Title
81344
    1CHL1    C3    1   3.039   3.802  10.182 -0.5660  0.0231  0.5432
    1CHL1    H3    2   3.138   3.845  10.156  0.3538 -1.8333  0.9114
    1CHL1    O3    3   3.001   3.837  10.313  0.0748  0.2742  0.0590
    1CHL1   H3'    4   2.906   3.828  10.312 -0.1624  2.5985 -0.7500
    1CHL1    C4    5   2.936   3.863  10.088 -0.3454 -0.3960  0.5244
    1CHL1   H4A    6   2.836   3.828  10.121 -0.3787 -0.2514  0.5760
    1CHL1   H4B    7   2.933   3.974  10.092 -0.7048 -0.3576 -0.7188
    1CHL1    C5    8   2.942   3.808   9.945 -0.0221 -0.0805  0.1286
    1CHL1    C6    9   2.948   3.889   9.838  0.6547 -0.3579  0.5726
    1CHL1    H6   10   2.940   3.997   9.862 -0.6320 -0.1125 -0.9150
    1CHL1    C7   11   2.956   3.849   9.695  0.1060  0.6121 -0.2330
    1CHL1   H7A   12   2.885   3.901   9.628 -2.0704 -2.3282 -0.2949
    1CHL1   H7B   13   3.056   3.884   9.659  0.9306 -0.2716  1.1310
    1CHL1    C8   14   2.943   3.697   9.664 -0.7282 -0.1517  0.4480
    1CHL1    H8   15   2.834   3.676   9.653 -0.5967  0.6221 -2.7551
    1CHL1   C14   16   3.024   3.655   9.546  0.1838  0.5214 -0.0104
    1CHL1   H14   17   3.132   3.675   9.567 -0.1976  2.2464  0.3817
    1CHL1   C15   18   2.998   3.728   9.416 -0.7916 -0.1576 -1.0604
    1CHL1  H15A   19   2.892   3.755   9.395 -0.5120  0.4422 -1.7094
    1CHL1  H15B   20   3.051   3.825   9.409 -0.9557 -0.0535 -0.8513
    1CHL1   C16   21   3.048   3.637   9.305 -0.0092  0.0559  0.0017
    1CHL1  H16A   22   2.962   3.621   9.237 -2.3465  0.0430  2.8806
    1CHL1  H16B   23   3.130   3.684   9.246 -1.0065  1.8071 -0.0240
    1CHL1   C17   24   3.094   3.505   9.369 -0.3637  1.0665  0.1998
    1CHL1   H17   25   3.201   3.521   9.395  0.1566 -1.6161 -0.1302
    1CHL1   C13   26   3.011   3.509   9.500 -0.1324  0.8697 -0.8577
    1CHL1   C18   27   2.865   3.466   9.469 -0.4800  0.4155  0.4417
    1CHL1  H18A   28   2.828   3.518   9.378  2.1051  1.3101 -0.1528
    1CHL1  H18B   29   2.862   3.358   9.442  1.4214  1.1060 -2.8341
    1CHL1  H18C   30   2.796   3.475   9.556  1.4731  0.6101  2.0111
    1CHL1   C12   31   3.063   3.423   9.622  1.2348  0.2450 -0.2421
    1CHL1  H12A   32   3.056   3.316   9.596 -0.2230  0.1463  0.4914
    1CHL1  H12B   33   3.169   3.452   9.643  1.2972 -0.7291  0.8459
    1CHL1   C11   34   2.998   3.466   9.751 -0.0705  0.4215 -0.0270
    1CHL1  H11A   35   2.894   3.428   9.757  0.1630  0.0333  1.9350
    1CHL1  H11B   36   3.053   3.414   9.833  0.2183  2.9217  1.4075
    1CHL1    C9   37   3.004   3.615   9.784  0.3677  0.6517  0.5587
    1CHL1    H9   38   3.112   3.641   9.786  0.3361  0.9254 -1.2723
    1CHL1   C10   39   2.957   3.659   9.925 -0.1938  0.1538 -0.2441
    1CHL1   C19   40   2.825   3.597   9.960 -0.0110 -0.6222 -0.0291
    1CHL1  H19A   41   2.747   3.628   9.887  3.0396  1.0694 -2.7043
    1CHL1  H19B   42   2.832   3.486   9.963 -1.7125 -0.8055 -1.9626
    1CHL1  H19C   43   2.790   3.627  10.060 -1.3706  1.8734 -1.2067
    1CHL1    C1   44   3.066   3.613  10.028  0.3468 -0.7499 -0.6983
    1CHL1   H1A   45   3.094   3.506  10.015 -0.1440 -0.8940 -0.6072
    1CHL1   H1B   46   3.157   3.668   9.997  1.0141 -0.8851  0.9928
    1CHL1    C2   47   3.039   3.647  10.176 -0.2247  0.4476  0.4352
    1CHL1   H2A   48   3.129   3.617  10.234 -0.2798  0.2679  0.4271
    1CHL1   H2B   49   2.946   3.602  10.217  0.3279 -2.4671 -1.3922
    1CHL1   C20   50   3.082   3.389   9.270  0.7071  0.1786 -0.1132
    1CHL1   H20   51   2.976   3.381   9.238  0.8862 -0.5979 -0.5311
    1CHL1   C21   52   3.113   3.248   9.343 -0.0478  0.0657 -0.2304
    1CHL1  H21A   53   3.089   3.161   9.278  1.0584 -0.6380  0.2842
    1CHL1  H21B   54   3.037   3.233   9.423 -1.5956  0.6842 -1.5668
    1CHL1  H21C   55   3.220   3.247   9.373 -0.0247  1.7183 -0.2152
    1CHL1   C22   56   3.185   3.396   9.148 -0.3872  0.8896  0.1359
    1CHL1  H22A   57   3.195   3.500   9.110  0.6673  0.4819 -0.7309
    1CHL1  H22B   58   3.283   3.364   9.189  0.0149  1.4392 -0.3711
    1CHL1   C23   59   3.145   3.309   9.028 -0.3815  0.5225 -0.4695
    1CHL1  H23A   60   3.138   3.204   9.065  3.2638 -0.4430 -2.3114
    1CHL1  H23B   61   3.043   3.344   9.005 -0.9448  0.0824  1.2623
    1CHL1   C24   62   3.243   3.316   8.912  0.0363  0.1091 -1.1830
    1CHL1  H24A   63   3.254   3.424   8.888  0.4374 -0.2373 -2.5669
    1CHL1  H24B   64   3.344   3.279   8.940  0.1078  0.7096 -0.6056
    1CHL1   C25   65   3.200   3.237   8.786 -0.7770 -0.0123 -1.1323
    1CHL1   H25   66   3.189   3.132   8.820  2.3989  0.0232  0.2359
    1CHL1   C26   67   3.068   3.272   8.711  0.2070 -0.6225  0.5037
    1CHL1  H26A   68   3.057   3.207   8.622  2.5680  1.3352 -1.3008
    1CHL1  H26B   69   2.977   3.258   8.773 -0.6401 -1.1764 -0.8623
    1CHL1  H26C   70   3.056   3.378   8.678  1.8789 -1.4910 -3.1104
    1CHL1   C27   71   3.305   3.231   8.686 -0.3728 -0.0928  0.5764
    1CHL1  H27A   72   3.399   3.195   8.733  0.8365 -0.0819 -1.7659
    1CHL1  H27B   73   3.293   3.149   8.613 -1.2929  1.0178 -0.5470
    1CHL1  H27C   74   3.317   3.331   8.639 -0.8846  0.0214  0.6810
    2CHL1    C3   75   3.632   1.516   9.999 -0.5455  0.5489  0.5691
    2CHL1    H3   76   3.683   1.614   9.982  1.1037 -0.5739 -1.2798
    2CHL1    O3   77   3.644   1.486  10.140 -0.0087 -0.2118  0.5520
    2CHL1   H3'   78   3.586   1.412  10.160 -2.4463  1.6300  0.4780
    2CHL1    C4   79   3.482   1.522   9.953 -0.4077 -0.2638 -0.3374
    2CHL1   H4A   80   3.435   1.423   9.970 -1.1545  0.0679 -0.4457
    2CHL1   H4B   81   3.428   1.597  10.015  0.8940 -0.3443  0.9346
    2CHL1    C5   82   3.473   1.541   9.801 -0.1233  0.2206  0.0910
    2CHL1    C6   83   3.407   1.641   9.749  0.4452  0.0399  0.0637
    2CHL1    H6   84   3.350   1.700   9.823 -1.1613 -2.2072  0.6795
    2CHL1    C7   85   3.384   1.669   9.609  0.2277  0.6485 -0.1091
    2CHL1   H7A   86   3.273   1.679   9.605  0.2363  0.5482 -0.5508
    2CHL1   H7B   87   3.428   1.764   9.571  1.7713 -1.2302 -3.1771
    2CHL1    C8   88   3.426   1.548   9.518 -0.1484 -0.4203  0.1386
    2CHL1    H8   89   3.359   1.461   9.538  1.0681 -1.0418  1.6389
    2CHL1   C14   90   3.422   1.585   9.371 -0.3975  0.0774  0.1115
    2CHL1   H14   91   3.485   1.675   9.358 -1.3872  0.9102  1.0080
    2CHL1   C15   92   3.283   1.623   9.320 -0.6996  0.8225  0.0796
    2CHL1  H15A   93   3.210   1.545   9.348 -0.7734  0.7893 -0.2003
    2CHL1  H15B   94   3.258   1.727   9.348  2.7292  1.8361 -0.4071
    2CHL1   C16   95   3.303   1.613   9.163  0.0216  0.6455 -0.4803
    2CHL1  H16A   96   3.226   1.543   9.125 -0.9207  1.7003 -0.5733
    2CHL1  H16B   97   3.289   1.710   9.111 -2.2494 -0.1984 -1.4953
    2CHL1   C17   98   3.447   1.560   9.143 -0.8657  0.7026 -0.0181
    2CHL1   H17   99   3.512   1.650   9.141 -1.0364  0.8441  0.9240
    2CHL1   C13  100   3.485   1.488   9.275 -0.0087  0.1471  0.8941
    2CHL1   C18  101   3.412   1.348   9.273 -0.1842 -0.8939  0.2656
    2CHL1  H18A  102   3.384   1.321   9.377 -1.0414  1.2483  0.6116
    2CHL1  H18B  103   3.319   1.350   9.213  0.5449  0.1504 -0.8557
    2CHL1  H18C  104   3.485   1.269   9.245 -1.1605 -2.0593  1.0108
    2CHL1   C12  105   3.626   1.456   9.318  0.0030 -0.0019  0.7877
    2CHL1  H12A  106   3.678   1.382   9.254 -0.2576  0.9093 -0.4863
    2CHL1  H12B  107   3.687   1.549   9.315  2.1649 -1.3558  1.8112
    2CHL1   C11  108   3.625   1.403   9.463 -0.4667 -0.2538 -0.0262
    2CHL1  H11A  109   3.584   1.299   9.462 -0.3106 -0.3308  1.4617
    2CHL1  H11B  110   3.731   1.387   9.492 -0.6713  0.4499  1.1198
    2CHL1    C9  111   3.559   1.493   9.570  0.5114  0.1645 -0.4676
    2CHL1    H9  112   3.634   1.575   9.571  0.2784  0.4370 -2.7473
    2CHL1   C10  113   3.553   1.442   9.716 -0.0177  0.6396  0.0392
    2CHL1   C19  114   3.472   1.314   9.726 -0.0478 -0.4350  0.1057
    2CHL1  H19A  115   3.440   1.286   9.828 -2.4124  2.1784  0.1400
    2CHL1  H19B  116   3.377   1.314   9.668 -0.3250  1.2299  0.5308
    2CHL1  H19C  117   3.530   1.235   9.673  1.9908  0.5040  0.8668
    2CHL1    C1  118   3.696   1.432   9.772  0.2622 -0.0645  0.2126
    2CHL1   H1A  119   3.768   1.368   9.717 -0.2721 -0.4685 -0.0127
    2CHL1   H1B  120   3.745   1.532   9.763  0.7521 -0.3732 -0.5991
    2CHL1    C2  121   3.699   1.404   9.919 -0.7578 -0.1001  0.1951
    2CHL1   H2A  122   3.806   1.393   9.947 -0.2804 -1.8559 -2.1348
    2CHL1   H2B  123   3.642   1.310   9.938 -2.6188  1.0120  0.2225
    2CHL1   C20  124   3.476   1.485   9.008 -0.1612  0.0328  0.3824
    2CHL1   H20  125   3.423   1.389   8.995  0.2296 -0.0971 -0.2475
    2CHL1   C21  126   3.628   1.458   8.993 -0.3180 -0.4482  0.0791
    2CHL1  H21A  127   3.655   1.433   8.888 -2.6360  1.5150 -1.0499
    2CHL1  H21B  128   3.657   1.372   9.056  0.8519 -0.9870 -1.1704
    2CHL1  H21C  129   3.690   1.547   9.019  0.2113 -0.3565 -1.4121
    2CHL1   C22  130   3.412   1.578   8.899 -0.1954  0.3561  0.8771
    2CHL1  H22A  131   3.301   1.573   8.900 -0.2806  1.7358 -0.5617
    2CHL1  H22B  132   3.437   1.685   8.920 -0.7801  1.0508 -1.8563
    2CHL1   C23  133   3.452   1.543   8.751  0.1328 -0.2419  0.1898
    2CHL1  H23A  134   3.559   1.569   8.733 -0.1915  0.4767 -0.7277
    2CHL1  H23B  135   3.434   1.434   8.743 -0.1267 -0.3853  2.3205
    2CHL1   C24  136   3.381   1.635   8.646  0.0773  0.1383 -0.5877
    2CHL1  H24A  137   3.273   1.640   8.671  0.7677  3.0470  2.1147
    2CHL1  H24B  138   3.412   1.741   8.635 -0.0754  0.4252  1.5661
    2CHL1   C25  139   3.391   1.573   8.505  0.0306  0.1386 -0.0123
    2CHL1   H25  140   3.341   1.474   8.500 -0.4635  0.3470  0.7889
    2CHL1   C26  141   3.327   1.660   8.394 -0.0426 -1.0692 -0.1440
    2CHL1  H26A  142   3.348   1.641   8.286 -1.1632  0.2536 -0.6146
    2CHL1  H26B  143   3.217   1.660   8.412  0.0426 -0.0963  0.3795
    2CHL1  H26C  144   3.362   1.764   8.409 -3.1132 -0.0568  0.3896
    2CHL1   C27  145   3.530   1.545   8.463 -0.1772  0.3774  0.1777
    2CHL1  H27A  146   3.522   1.491   8.367 -1.4584  1.8366 -0.5498
    2CHL1  H27B  147   3.591   1.636   8.448  1.1828 -0.2331  1.7679
    2CHL1  H27C  148   3.579   1.476   8.535 -3.0464  2.3733  4.2426
    3CHL1    C3  149   4.130   1.025  10.133  0.1818  0.5442  0.6488
    3CHL1    H3  150   4.042   0.958  10.139 -0.0223  0.9112  1.9068
    3CHL1    O3  151   4.175   1.041  10.265 -0.1251  0.1028  0.2828
    3CHL1   H3'  152   4.232   0.965  10.274 -1.8561 -1.2450  0.2014
    3CHL1    C4  153   4.242   0.981  10.038  0.3567 -0.1996 -0.4705
    3CHL1   H4A  154   4.320   1.058  10.052 -0.7446  0.6951  0.8794
    3CHL1   H4B  155   4.282   0.889  10.085  2.7992  1.7764  1.4590
    3CHL1    C5  156   4.210   0.990   9.897  1.0869 -0.3661  0.5981
    3CHL1    C6  157   4.225   0.880   9.820  0.4536 -0.0761  0.4476
    3CHL1    H6  158   4.259   0.788   9.869 -0.4954  0.7791  2.7729
    3CHL1    C7  159   4.201   0.873   9.672 -0.2942  0.2029  0.4312
    3CHL1   H7A  160   4.286   0.818   9.627  0.2578  1.8440 -0.5432
    3CHL1   H7B  161   4.113   0.807   9.657  0.0453 -0.3450  0.8273
    3CHL1    C8  162   4.179   1.016   9.616  0.0113  0.0267 -0.8872
    3CHL1    H8  163   4.283   1.055   9.609 -0.4244  1.2773 -0.5356
    3CHL1   C14  164   4.118   1.005   9.472 -0.5792  0.4966  0.7915
    3CHL1   H14  165   4.013   0.977   9.495 -0.5109 -1.7420 -1.4261
    3CHL1   C15  166   4.185   0.904   9.378  0.6381 -0.7524 -0.0326
    3CHL1  H15A  167   4.294   0.925   9.381  0.7518 -1.3029 -0.4209
    3CHL1  H15B  168   4.173   0.798   9.408 -0.6152 -0.4514  0.5501
    3CHL1   C16  169   4.128   0.949   9.238  0.3407  0.0766 -0.0544
    3CHL1  H16A  170   4.203   0.950   9.156  0.3310  1.6881 -0.0681
    3CHL1  H16B  171   4.035   0.896   9.208  0.9999 -1.3461  0.4151
    3CHL1   C17  172   4.051   1.088   9.262  0.4472  0.3650 -0.5592
    3CHL1   H17  173   3.946   1.063   9.285  0.5920 -0.0461 -0.3320
    3CHL1   C13  174   4.105   1.144   9.397 -0.3987 -0.3013  0.4898
    3CHL1   C18  175   4.242   1.215   9.373 -0.4212 -0.0201  0.4698
    3CHL1  H18A  176   4.304   1.160   9.300 -0.6401  0.8540 -0.3790
    3CHL1  H18B  177   4.228   1.319   9.338 -1.0618 -0.9447 -2.1551
    3CHL1  H18C  178   4.308   1.226   9.462 -0.3108 -1.7504  0.6284
    3CHL1   C12  179   4.020   1.243   9.486 -0.3237  0.2632  0.9316
    3CHL1  H12A  180   4.029   1.341   9.435 -0.1917 -0.4435 -0.4165
    3CHL1  H12B  181   3.915   1.207   9.483  0.0728 -0.7700 -2.9411
    3CHL1   C11  182   4.079   1.248   9.626  0.4208 -0.0172 -1.1320
    3CHL1  H11A  183   4.173   1.308   9.630  0.0877  0.4106  0.9824
    3CHL1  H11B  184   4.008   1.308   9.687 -0.0754  1.4942 -3.1446
    3CHL1    C9  185   4.095   1.110   9.697 -0.4328 -0.5028  0.4341
    3CHL1    H9  186   3.991   1.073   9.703  0.6396 -4.3729 -2.7272
    3CHL1   C10  187   4.151   1.123   9.847  0.4097  0.3801  0.6345
    3CHL1   C19  188   4.278   1.215   9.843  0.3136  0.3099  0.4360
    3CHL1  H19A  189   4.330   1.223   9.941  0.4470  0.8814  0.3174
    3CHL1  H19B  190   4.346   1.188   9.760 -3.3343 -3.6823 -1.4499
    3CHL1  H19C  191   4.245   1.317   9.816  0.2302 -0.3293 -1.9486
    3CHL1    C1  192   4.038   1.178   9.940 -0.2918  0.3106  0.0499
    3CHL1   H1A  193   4.022   1.284   9.909 -0.7041  1.4284  3.7812
    3CHL1   H1B  194   3.951   1.111   9.921  2.1409 -3.0783  0.4602
    3CHL1    C2  195   4.073   1.162  10.092 -0.2000  0.2154  0.0991
    3CHL1   H2A  196   3.980   1.174  10.151 -1.0861 -2.4045 -0.7017
    3CHL1   H2B  197   4.142   1.241  10.129  0.3166  0.0357 -0.4537
    3CHL1   C20  198   4.044   1.166   9.131  0.4082 -0.5019  0.6965
    3CHL1   H20  199   4.148   1.173   9.091  0.5059 -1.2469  0.8005
    3CHL1   C21  200   3.978   1.305   9.167  0.0771  0.2188  0.4226
    3CHL1  H21A  201   3.869   1.298   9.191 -0.1080 -0.4578 -0.6092
    3CHL1  H21B  202   3.978   1.359   9.071 -0.4599 -0.9070 -0.2239
    3CHL1  H21C  203   4.036   1.365   9.241  0.5762 -2.1786  2.0260
    3CHL1   C22  204   3.960   1.094   9.023  0.5328  0.3526  1.2775
    3CHL1  H22A  205   4.006   0.997   8.992 -1.0930  0.2647 -1.0218
    3CHL1  H22B  206   3.856   1.074   9.058  0.1881  0.7090  0.4698
    3CHL1   C23  207   3.948   1.167   8.894  0.9014 -0.2341 -0.0080
    3CHL1  H23A  208   3.880   1.253   8.905  3.1919  1.4964  1.0224
    3CHL1  H23B  209   4.047   1.210   8.865  0.8580  0.2094  0.4976
    3CHL1   C24  210   3.899   1.083   8.773 -0.2360 -0.0511  0.6130
    3CHL1  H24A  211   3.963   0.993   8.758  0.1339  0.0437  1.6189
    3CHL1  H24B  212   3.799   1.049   8.807 -0.4208 -0.0730  0.0530
    3CHL1   C25  213   3.877   1.153   8.638 -0.3459  0.2950 -0.7060
    3CHL1   H25  214   3.974   1.196   8.606 -0.7284  0.2318 -1.9934
    3CHL1   C26  215   3.834   1.056   8.525  0.1988 -0.3735  0.6465
    3CHL1  H26A  216   3.841   1.114   8.431  2.3507 -2.4815 -0.5385
    3CHL1  H26B  217   3.905   0.971   8.524 -0.2456 -0.7553 -2.9177
    3CHL1  H26C  218   3.732   1.012   8.537 -0.9443  2.6080  2.2490
    3CHL1   C27  219   3.782   1.267   8.661 -0.3276  0.0708  0.0687
    3CHL1  H27A  220   3.709   1.238   8.739  1.5329 -0.8767  1.5033
    3CHL1  H27B  221   3.845   1.353   8.693 -0.8896  0.8294 -0.8505
    3CHL1  H27C  222   3.732   1.309   8.571 -0.7613  0.9047  0.6989
    4CHL1    C3  223   4.039   3.323  10.536  0.2384 -0.7319 -0.7331
    4CHL1    H3  224   4.132   3.372  10.500 -0.0989  0.4521 -0.0217
    4CHL1    O3  225   4.040   3.325  10.678 -0.0401 -0.7863 -0.8517
    4CHL1   H3'  226   4.096   3.251  10.702 -2.3210 -1.6104  2.3217
    4CHL1    C4  227   3.914   3.387  10.472 -0.1946 -0.7583  0.1403
    4CHL1   H4A  228   3.827   3.319  10.480  0.6431 -1.5218  3.4008
    4CHL1   H4B  229   3.899   3.488  10.518  2.3728 -0.3035  0.0666
    4CHL1    C5  230   3.920   3.398  10.322 -0.3291  0.5551 -0.3285
    4CHL1    C6  231   3.922   3.512  10.260  0.0421  0.8135 -0.0381
    4CHL1    H6  232   3.895   3.601  10.318  1.4890  0.1987  1.6409
    4CHL1    C7  233   3.940   3.530  10.116  0.1052  0.7454  0.1473
    4CHL1   H7A  234   3.880   3.615  10.077 -1.7301 -0.2444  0.7844
    4CHL1   H7B  235   4.044   3.569  10.106  0.9237 -1.3585  0.1547
    4CHL1    C8  236   3.926   3.400  10.037 -0.6187 -0.3348 -0.2781
    4CHL1    H8  237   3.817   3.385  10.027 -0.6990 -0.6556  1.0343
    4CHL1   C14  238   3.985   3.420   9.895 -0.2587 -0.6545  0.4793
    4CHL1   H14  239   4.092   3.439   9.919 -0.6659  2.7990 -0.1534
    4CHL1   C15  240   3.954   3.545   9.804  0.9981  0.5224 -1.3961
    4CHL1  H15A  241   3.847   3.569   9.824  1.5485  1.0182  1.0885
    4CHL1  H15B  242   4.020   3.630   9.831 -0.3633  0.1508  3.5344
    4CHL1   C16  243   3.976   3.500   9.660 -0.3563  0.2237 -0.0240
    4CHL1  H16A  244   3.873   3.485   9.622  0.2986  0.3320 -1.9104
    4CHL1  H16B  245   4.029   3.571   9.592  0.7264 -0.2204  0.3462
    4CHL1   C17  246   4.053   3.362   9.666  0.0040  0.1225  0.8490
    4CHL1   H17  247   4.161   3.378   9.683 -0.0232 -0.2544  1.4202
    4CHL1   C13  248   3.992   3.296   9.798  0.4131 -0.2556  0.4111
    4CHL1   C18  249   3.846   3.248   9.764  0.0794 -0.1160  0.2669
    4CHL1  H18A  250   3.851   3.156   9.702  0.7477  0.8121 -1.0721
    4CHL1  H18B  251   3.789   3.240   9.860 -0.4283  3.1644  0.3117
    4CHL1  H18C  252   3.786   3.318   9.702 -0.4982 -0.1406  0.7880
    4CHL1   C12  253   4.067   3.182   9.870  0.0396 -0.2164  0.5541
    4CHL1  H12A  254   4.081   3.090   9.809  1.8177  0.5779 -0.2624
    4CHL1  H12B  255   4.173   3.209   9.891  0.4416 -1.4318  0.1474
    4CHL1   C11  256   4.012   3.154  10.007  0.9258  0.5477  0.4062
    4CHL1  H11A  257   3.914   3.106   9.989  1.5234 -0.0376 -1.4417
    4CHL1  H11B  258   4.076   3.079  10.059 -1.0056 -1.6920 -0.3441
    4CHL1    C9  259   4.002   3.284  10.097 -0.0080  0.6665  0.7059
    4CHL1    H9  260   4.106   3.323  10.109 -0.6705  1.8019  3.0979
    4CHL1   C10  261   3.944   3.261  10.249 -0.0309  0.2136  0.0512
    4CHL1   C19  262   3.803   3.191  10.234  0.4897  0.0197 -0.1921
    4CHL1  H19A  263   3.809   3.097  10.175 -0.6864  0.4367 -0.9894
    4CHL1  H19B  264   3.754   3.159  10.328 -1.9937  0.9450 -1.1349
    4CHL1  H19C  265   3.734   3.245  10.166  0.0937  1.1081  1.0637
    4CHL1    C1  266   4.040   3.177  10.325  0.1250  0.4245 -0.1074
    4CHL1   H1A  267   4.033   3.067  10.312  1.0397 -0.1327  3.4947
    4CHL1   H1B  268   4.149   3.193  10.308  0.9623 -1.0592  3.2885
    4CHL1    C2  269   4.038   3.181  10.481 -0.2903  0.1679  0.5319
    4CHL1   H2A  270   4.131   3.133  10.519  1.1656  1.5556 -1.1653
    4CHL1   H2B  271   3.952   3.131  10.529 -0.8490 -0.6079 -1.2505
    4CHL1   C20  272   4.034   3.289   9.524 -0.1934  0.6461 -0.0460
    4CHL1   H20  273   3.924   3.291   9.505 -0.1807  0.5427 -0.1299
    4CHL1   C21  274   4.088   3.151   9.524 -0.3261  0.8381  0.0842
    4CHL1  H21A  275   4.199   3.151   9.519 -0.3589 -0.6014 -1.0680
    4CHL1  H21B  276   4.060   3.095   9.432  0.6267 -1.2778  1.0426
    4CHL1  H21C  277   4.055   3.088   9.609  0.5969 -0.7612 -0.7060
    4CHL1   C22  278   4.103   3.371   9.410 -0.1308 -0.2741 -0.2803
    4CHL1  H22A  279   4.040   3.462   9.402 -0.0168 -0.2535 -0.8996
    4CHL1  H22B  280   4.207   3.406   9.427 -0.3950  0.1577  0.5000
    4CHL1   C23  281   4.093   3.314   9.268 -0.0662 -0.3399 -0.0124
    4CHL1  H23A  282   4.164   3.231   9.250 -0.3463 -0.3135 -1.2365
    4CHL1  H23B  283   3.992   3.273   9.245  1.0343 -1.8253 -2.2689
    4CHL1   C24  284   4.130   3.420   9.168 -0.1745  0.2849  0.6676
    4CHL1  H24A  285   4.046   3.493   9.166  1.6433  2.3969 -1.2389
    4CHL1  H24B  286   4.221   3.465   9.212 -1.1900 -0.0124  3.1189
    4CHL1   C25  287   4.149   3.369   9.024 -0.3438  0.0632  0.0869
    4CHL1   H25  288   4.232   3.295   9.031  0.1768  0.5843 -0.4582
    4CHL1   C26  289   4.019   3.308   8.969  0.8059  0.0228 -0.6765
    4CHL1  H26A  290   3.940   3.385   8.957 -0.2088 -0.5147  2.2777
    4CHL1  H26B  291   4.040   3.267   8.868 -0.3025  0.9712 -1.3060
    4CHL1  H26C  292   3.996   3.221   9.033 -1.9758  1.5411  0.4733
    4CHL1   C27  293   4.186   3.481   8.925  0.0192  0.5967 -0.5832
    4CHL1  H27A  294   4.098   3.549   8.928  0.8137  1.5947  1.2278
    4CHL1  H27B  295   4.271   3.539   8.967  0.0364  2.4420 -3.0694
    4CHL1  H27C  296   4.219   3.448   8.824 -1.6632 -1.3153 -0.5299
    5CHL1    C3  297   4.723   0.912  10.057  0.4796  0.3073 -0.3962
    5CHL1    H3  298   4.797   0.995  10.053  0.9288  0.0247  1.3676
    5CHL1    O3  299   4.676   0.882  10.195 -0.6557 -0.0858 -0.5636
    5CHL1   H3'  300   4.613   0.810  10.195 -1.7898  0.7990  3.1020
    5CHL1    C4  301   4.607   0.959   9.976 -0.3367  0.0590 -0.5001
    5CHL1   H4A  302   4.528   0.883   9.983 -0.9245  0.8232  1.4763
    5CHL1   H4B  303   4.569   1.055  10.018  2.7433  1.0800  0.1240
    5CHL1    C5  304   4.640   0.977   9.829  0.4411  0.2629  0.2549
    5CHL1    C6  305   4.631   1.095   9.764 -0.0276  0.5276  0.0598
    5CHL1    H6  306   4.601   1.189   9.812  0.2654  1.2844 -1.2187
    5CHL1    C7  307   4.655   1.112   9.616  0.0402  1.1021  0.2140
    5CHL1   H7A  308   4.574   1.176   9.574 -0.1843 -0.5395 -1.9191
    5CHL1   H7B  309   4.753   1.161   9.600 -0.1224  0.7189 -2.0909
    5CHL1    C8  310   4.639   0.980   9.544  0.7353 -0.1583  0.0874
    5CHL1    H8  311   4.533   0.947   9.535 -0.3965  3.1696  0.5465
    5CHL1   C14  312   4.685   0.999   9.393 -0.2954  0.0588 -0.6035
    5CHL1   H14  313   4.790   1.034   9.402 -0.9435  1.6025  1.0723
    5CHL1   C15  314   4.600   1.087   9.296 -0.4139 -0.2979 -0.3768
    5CHL1  H15A  315   4.496   1.049   9.309 -0.3726 -0.7863 -1.4167
    5CHL1  H15B  316   4.605   1.198   9.306 -1.6144 -0.3299  0.6968
    5CHL1   C16  317   4.660   1.056   9.158  0.3345 -0.9284  0.2202
    5CHL1  H16A  318   4.568   1.042   9.098  0.1784  1.0733 -0.0301
    5CHL1  H16B  319   4.723   1.137   9.116  0.0018 -1.5300 -1.4416
    5CHL1   C17  320   4.737   0.923   9.178  0.3246 -0.2914 -0.5310
    5CHL1   H17  321   4.838   0.967   9.185  0.9258 -1.9897  2.8646
    5CHL1   C13  322   4.699   0.865   9.317  0.7589  0.4551 -0.6892
    5CHL1   C18  323   4.570   0.782   9.301  0.9201 -0.4029 -0.3040
    5CHL1  H18A  324   4.493   0.841   9.248  0.2735 -0.7899  0.1956
    5CHL1  H18B  325   4.588   0.698   9.232 -1.0363 -3.0420  2.2663
    5CHL1  H18C  326   4.530   0.761   9.403 -1.5744  1.8841 -0.7433
    5CHL1   C12  327   4.812   0.783   9.388 -0.8172  0.1845  0.4016
    5CHL1  H12A  328   4.829   0.690   9.329 -3.1592  0.8869 -1.4671
    5CHL1  H12B  329   4.909   0.835   9.401 -1.2710  0.5260  2.4802
    5CHL1   C11  330   4.764   0.754   9.528 -0.6181  0.3863  0.6030
    5CHL1  H11A  331   4.679   0.682   9.525 -0.7029  0.4922  0.4632
    5CHL1  H11B  332   4.844   0.696   9.578 -1.0259  1.3563  2.4340
    5CHL1    C9  333   4.732   0.874   9.612 -0.2612 -0.1525  0.7586
    5CHL1    H9  334   4.832   0.920   9.620 -0.1994 -0.0142 -0.6778
    5CHL1   C10  335   4.695   0.849   9.758  0.1118  0.6266 -0.8072
    5CHL1   C19  336   4.579   0.749   9.751  0.2048 -0.4748  0.5139
    5CHL1  H19A  337   4.523   0.737   9.846  0.9911 -0.1022  1.0253
    5CHL1  H19B  338   4.503   0.766   9.672  0.5152  3.2328  0.9656
    5CHL1  H19C  339   4.630   0.653   9.724  2.0995  0.8983 -0.9164
    5CHL1    C1  340   4.809   0.796   9.848  0.1125 -0.0643  0.1787
    5CHL1   H1A  341   4.840   0.698   9.807  2.1119  0.0717  1.2854
    5CHL1   H1B  342   4.902   0.857   9.844 -0.4233  0.8361  1.1068
    5CHL1    C2  343   4.768   0.781   9.995  0.0548  0.9823 -0.5197
    5CHL1   H2A  344   4.859   0.754  10.054  0.1016  1.7279 -0.2305
    5CHL1   H2B  345   4.704   0.691  10.000  1.9669 -0.4768 -1.5866
    5CHL1   C20  346   4.723   0.843   9.048  0.1280 -0.5805 -0.6373
    5CHL1   H20  347   4.625   0.802   9.016  0.8163 -2.5810 -0.2308
    5CHL1   C21  348   4.815   0.718   9.054 -0.6245  0.1100 -1.2525
    5CHL1  H21A  349   4.825   0.674   8.952 -2.0977 -0.8236 -1.0115
    5CHL1  H21B  350   4.765   0.644   9.120  2.2392  0.1941  1.0839
    5CHL1  H21C  351   4.915   0.748   9.092 -0.8999  0.2777 -0.6557
    5CHL1   C22  352   4.780   0.939   8.941 -0.1842  0.5168  0.6173
    5CHL1  H22A  353   4.746   1.044   8.934 -1.6889  0.0709  0.9838
    5CHL1  H22B  354   4.884   0.953   8.975  0.0687 -0.4394  0.2654
    5CHL1   C23  355   4.787   0.886   8.797  0.0007  0.2311 -0.3498
    5CHL1  H23A  356   4.846   0.792   8.794 -1.3300 -0.6662  0.8292
    5CHL1  H23B  357   4.681   0.859   8.780 -0.1226  0.5604 -0.1209
    5CHL1   C24  358   4.840   0.987   8.693  0.0979  1.1199  0.5585
    5CHL1  H24A  359   4.806   1.087   8.726 -1.5327 -0.0262  2.4989
    5CHL1  H24B  360   4.951   0.984   8.701  0.0912  2.2686  1.1568
    5CHL1   C25  361   4.806   0.955   8.542 -0.0249 -0.1866 -0.0794
    5CHL1   H25  362   4.849   1.040   8.485  0.1734 -0.2795 -0.0691
    5CHL1   C26  363   4.874   0.830   8.494 -0.2889 -0.2833  0.1897
    5CHL1  H26A  364   4.863   0.824   8.383 -0.6189  3.0314 -0.0029
    5CHL1  H26B  365   4.981   0.823   8.524  0.1039  0.7060 -0.9305
    5CHL1  H26C  366   4.828   0.744   8.547  0.6916 -0.3419  0.9692
    5CHL1   C27  367   4.658   0.956   8.507  0.0427 -0.7023 -0.1461
    5CHL1  H27A  368   4.609   1.051   8.537 -0.7011 -0.3923 -2.2249
    5CHL1  H27B  369   4.652   0.951   8.396 -0.7171 -1.5466 -0.0811
    5CHL1  H27C  370   4.613   0.865   8.552  1.4342 -1.5478 -0.4387
    6CHL1    C3  371   2.741   5.061  10.425 -0.9045 -0.1583  0.1551
    6CHL1    H3  372   2.851   5.063  10.407 -0.9326 -0.6983 -0.0979
    6CHL1    O3  373   2.732   5.045  10.566 -0.6842  0.4074  0.3197
    6CHL1   H3'  374   2.737   4.951  10.586  0.1380  0.8604  2.2837
    6CHL1    C4  375   2.688   5.202  10.392  0.3312 -0.0130  0.0946
    6CHL1   H4A  376   2.587   5.216  10.435 -0.3753  1.0533 -1.8288
    6CHL1   H4B  377   2.749   5.276  10.448  0.9188 -0.7640  0.4589
    6CHL1    C5  378   2.688   5.229  10.240 -0.4731  0.5819 -0.1634
    6CHL1    C6  379   2.735   5.344  10.197  0.3870 -0.1761  0.3765
    6CHL1    H6  380   2.764   5.415  10.276  1.3845 -1.2411  0.9819
    6CHL1    C7  381   2.734   5.391  10.051 -0.9061  0.3585 -1.0855
    6CHL1   H7A  382   2.693   5.494  10.050 -0.9006  0.3794 -0.0050
    6CHL1   H7B  383   2.841   5.404  10.025 -0.4597  1.3016  1.0692
    6CHL1    C8  384   2.660   5.290   9.955  0.6437 -0.9147  0.2379
    6CHL1    H8  385   2.554   5.321   9.968  1.4138  2.2577 -0.4856
    6CHL1   C14  386   2.703   5.313   9.812 -0.5244  0.9226  0.3046
    6CHL1   H14  387   2.811   5.287   9.816 -0.3705  1.1032 -1.8997
    6CHL1   C15  388   2.692   5.459   9.760 -0.3213  0.2572  0.4147
    6CHL1  H15A  389   2.595   5.496   9.797 -1.0067  0.8278 -1.8430
    6CHL1  H15B  390   2.772   5.523   9.804  0.3180 -0.2548  0.0127
    6CHL1   C16  391   2.700   5.450   9.608 -0.1912 -0.3777  0.0146
    6CHL1  H16A  392   2.619   5.508   9.559  0.2784 -1.2536 -1.8294
    6CHL1  H16B  393   2.801   5.470   9.567  0.0412 -2.9472 -0.7010
    6CHL1   C17  394   2.693   5.294   9.582 -0.4605  0.2174  0.1777
    6CHL1   H17  395   2.800   5.266   9.592 -0.7324 -0.5050  1.0579
    6CHL1   C13  396   2.633   5.228   9.708 -0.1804  0.3047 -0.1007
    6CHL1   C18  397   2.482   5.260   9.690 -0.1299  0.1723 -0.1372
    6CHL1  H18A  398   2.431   5.172   9.644 -0.0028  0.3433 -0.6070
    6CHL1  H18B  399   2.439   5.266   9.792  0.5497 -2.5948  0.3520
    6CHL1  H18C  400   2.467   5.355   9.635  1.0981  1.1600  1.2266
    6CHL1   C12  401   2.650   5.083   9.754 -0.0587 -0.9228 -0.3594
    6CHL1  H12A  402   2.604   5.013   9.681  1.8716 -1.3262 -1.2236
    6CHL1  H12B  403   2.759   5.061   9.760 -0.1630 -0.8455  2.2384
    6CHL1   C11  404   2.597   5.052   9.889 -0.0337 -0.4856 -0.6153
    6CHL1  H11A  405   2.487   5.068   9.894  0.5633  3.8728  0.5636
    6CHL1  H11B  406   2.615   4.945   9.913 -0.9458 -0.2231  1.4167
    6CHL1    C9  407   2.671   5.140   9.993  0.3074 -0.4633 -0.6819
    6CHL1    H9  408   2.778   5.115   9.985 -0.1007 -2.1710 -0.8690
    6CHL1   C10  409   2.632   5.115  10.148 -0.1266  0.4681 -0.5615
    6CHL1   C19  410   2.483   5.119  10.152  0.5462  0.2306 -0.1487
    6CHL1  H19A  411   2.448   5.213  10.106  1.4351 -0.9192 -3.3446
    6CHL1  H19B  412   2.447   5.025  10.105  0.0305 -1.0027  2.6440
    6CHL1  H19C  413   2.450   5.097  10.255 -0.4241  1.0755 -0.2778
    6CHL1    C1  414   2.692   4.977  10.195 -0.5824  0.6961  0.5025
    6CHL1   H1A  415   2.637   4.908  10.128  0.9811  1.4002 -1.5444
    6CHL1   H1B  416   2.799   4.981  10.168 -0.8529 -0.1932 -0.7174
    6CHL1    C2  417   2.668   4.946  10.346  0.4207  0.1758 -0.0124
    6CHL1   H2A  418   2.698   4.845  10.381  2.4473  1.1223  1.1136
    6CHL1   H2B  419   2.563   4.950  10.380  0.7188  1.8234  0.7798
    6CHL1   C20  420   2.644   5.253   9.443  0.2029  0.6793  0.5082
    6CHL1   H20  421   2.534   5.244   9.436  0.3596 -1.1222  0.0405
    6CHL1   C21  422   2.708   5.117   9.408  0.5921 -0.4559 -0.2515
    6CHL1  H21A  423   2.669   5.070   9.315 -0.0742 -1.1582  0.3689
    6CHL1  H21B  424   2.678   5.043   9.486 -1.2244 -0.2937 -0.7788
    6CHL1  H21C  425   2.818   5.129   9.404  0.8380 -2.0899  0.8379
    6CHL1   C22  426   2.683   5.355   9.338  0.2146 -0.0540 -0.3623
    6CHL1  H22A  427   2.637   5.452   9.368  1.0410  1.0768 -2.5901
    6CHL1  H22B  428   2.789   5.389   9.336  0.5435 -0.9447  1.1951
    6CHL1   C23  429   2.643   5.320   9.196 -0.2678 -0.0828  0.6743
    6CHL1  H23A  430   2.695   5.235   9.146 -0.6224  1.7308 -2.9428
    6CHL1  H23B  431   2.541   5.278   9.207 -0.7038 -0.0238 -2.6645
    6CHL1   C24  432   2.629   5.442   9.100 -0.3372  0.3171  0.4217
    6CHL1  H24A  433   2.565   5.516   9.153 -0.9777  0.5056 -0.5979
    6CHL1  H24B  434   2.726   5.494   9.090 -1.4191  2.0102 -1.6678
    6CHL1   C25  435   2.577   5.409   8.962 -0.5335  0.6915  0.4980
    6CHL1   H25  436   2.481   5.354   8.963 -0.0527 -0.1708 -0.0755
    6CHL1   C26  437   2.567   5.547   8.892  0.2989  0.8184 -0.0455
    6CHL1  H26A  438   2.665   5.599   8.903 -0.2839  1.6305  1.7047
    6CHL1  H26B  439   2.536   5.539   8.786  0.2127  0.5873 -0.0003
    6CHL1  H26C  440   2.487   5.601   8.948 -0.1844  1.8282 -1.6640
    6CHL1   C27  441   2.677   5.326   8.883 -0.6571  0.2474 -0.0185
    6CHL1  H27A  442   2.653   5.221   8.910 -0.3989 -0.3110 -1.9155
    6CHL1  H27B  443   2.652   5.329   8.775  0.8648  0.5982 -0.3693
    6CHL1  H27C  444   2.785   5.348   8.897 -0.6433  1.5449 -1.8885
    7CHL1    C3  445   5.635   1.914  10.523 -0.4527  0.0048  0.0139
    7CHL1    H3  446   5.532   1.940  10.554 -0.6552 -0.6975 -0.0751
    7CHL1    O3  447   5.709   1.904  10.647  0.0206  0.5704 -0.2279
    7CHL1   H3'  448   5.795   1.868  10.624  1.1079  3.5967 -1.1474
    7CHL1    C4  449   5.635   1.779  10.449 -0.4081  0.0092  0.5592
    7CHL1   H4A  450   5.743   1.757  10.432 -0.2799  0.7715  0.3968
    7CHL1   H4B  451   5.587   1.697  10.507  0.5808  0.2657  1.7827
    7CHL1    C5  452   5.570   1.776  10.315  0.9472  0.0182  0.2066
    7CHL1    C6  453   5.473   1.686  10.288  0.4070 -0.9054  0.2421
    7CHL1    H6  454   5.454   1.613  10.368 -1.7548  0.2555  0.8128
    7CHL1    C7  455   5.404   1.673  10.156  0.5552  0.8504  0.0940
    7CHL1   H7A  456   5.390   1.567  10.127 -1.6525  1.4425 -1.0650
    7CHL1   H7B  457   5.300   1.710  10.167 -1.0127 -3.8523  2.5536
    7CHL1    C8  458   5.476   1.758  10.050 -0.9208 -0.4848 -0.4458
    7CHL1    H8  459   5.567   1.699  10.024 -2.5798 -2.2873 -2.3553
    7CHL1   C14  460   5.392   1.764   9.925 -0.8050 -0.1453 -0.1053
    7CHL1   H14  461   5.300   1.820   9.953  0.4797  0.7720  2.4428
    7CHL1   C15  462   5.350   1.622   9.869 -0.2536 -0.0559 -0.5481
    7CHL1  H15A  463   5.434   1.555   9.897 -0.6951 -0.6021 -0.5101
    7CHL1  H15B  464   5.262   1.589   9.928 -0.2848  2.8966  1.1551
    7CHL1   C16  465   5.334   1.657   9.717 -0.4288 -0.0365  0.2793
    7CHL1  H16A  466   5.398   1.582   9.667 -0.3344  0.1545  0.1133
    7CHL1  H16B  467   5.228   1.653   9.685 -0.3392  0.6435 -0.1147
    7CHL1   C17  468   5.381   1.806   9.694  0.6547  0.7192 -0.0522
    7CHL1   H17  469   5.290   1.865   9.719  0.7113  0.4752  0.7359
    7CHL1   C13  470   5.473   1.834   9.820 -0.3209  0.2711 -0.3134
    7CHL1   C18  471   5.617   1.780   9.776 -0.2446 -0.4187 -0.2056
    7CHL1  H18A  472   5.687   1.773   9.862 -0.0099  0.1097 -0.3508
    7CHL1  H18B  473   5.613   1.675   9.739  1.9796 -0.7126  0.2967
    7CHL1  H18C  474   5.671   1.849   9.707 -0.0934  0.6012  0.9278
    7CHL1   C12  475   5.489   1.984   9.860 -0.3403  0.1737  0.3920
    7CHL1  H12A  476   5.548   2.039   9.783  0.2643  0.7139  1.2366
    7CHL1  H12B  477   5.392   2.038   9.870 -1.1010 -1.0303 -0.3506
    7CHL1   C11  478   5.573   2.002   9.986  0.0197  0.0772 -0.6367
    7CHL1  H11A  479   5.679   1.982   9.959 -0.1058 -1.7393  0.1095
    7CHL1  H11B  480   5.558   2.106  10.022 -1.9438 -0.2829 -0.3367
    7CHL1    C9  481   5.517   1.901  10.093  0.3594  0.1321 -0.0815
    7CHL1    H9  482   5.419   1.939  10.130 -0.7881 -2.7026 -0.0796
    7CHL1   C10  483   5.610   1.888  10.220  0.5326 -0.4858  0.1257
    7CHL1   C19  484   5.755   1.851  10.173 -0.3518  0.0949  0.4169
    7CHL1  H19A  485   5.831   1.837  10.253 -1.1103  1.2970  1.3715
    7CHL1  H19B  486   5.752   1.759  10.110  0.8772 -0.0976  0.6416
    7CHL1  H19C  487   5.804   1.939  10.127  0.2471  0.7314  2.2462
    7CHL1    C1  488   5.615   2.027  10.293 -0.1955 -0.6618 -0.2338
    7CHL1   H1A  489   5.666   2.101  10.227  1.2952 -0.9002  0.6190
    7CHL1   H1B  490   5.514   2.069  10.315  0.0465  0.6996 -1.6605
    7CHL1    C2  491   5.694   2.021  10.429  0.5399  0.2574  0.3886
    7CHL1   H2A  492   5.703   2.118  10.481  1.3642  0.1582  0.4411
    7CHL1   H2B  493   5.800   2.005  10.400  0.0175 -0.7954 -1.0156
    7CHL1   C20  494   5.422   1.847   9.554 -0.3152 -0.3703 -0.3457
    7CHL1   H20  495   5.530   1.827   9.540  0.6308  1.0020  4.2206
    7CHL1   C21  496   5.381   1.990   9.532 -0.1153  0.2260  0.2928
    7CHL1  H21A  497   5.270   2.003   9.537 -0.2477 -1.1755  1.4225
    7CHL1  H21B  498   5.406   2.011   9.426 -0.2403 -0.4742  0.1210
    7CHL1  H21C  499   5.429   2.068   9.595  0.2664  0.8878 -0.8191
    7CHL1   C22  500   5.357   1.751   9.441 -0.6305  0.1742 -0.0597
    7CHL1  H22A  501   5.346   1.644   9.469 -1.6206 -0.0078 -1.1117
    7CHL1  H22B  502   5.253   1.786   9.420 -0.6445 -1.5429 -3.0905
    7CHL1   C23  503   5.420   1.743   9.306  0.2193  0.6735 -0.0766
    7CHL1  H23A  504   5.429   1.845   9.263  1.2911 -0.2211 -2.0576
    7CHL1  H23B  505   5.517   1.695   9.327  0.1380  0.9770  1.0216
    7CHL1   C24  506   5.344   1.644   9.205 -0.1422 -0.0582  0.0778
    7CHL1  H24A  507   5.321   1.545   9.249 -1.3933  0.0961 -0.2094
    7CHL1  H24B  508   5.250   1.687   9.164  0.5907  2.7169  1.2001
    7CHL1   C25  509   5.422   1.614   9.081 -0.0586 -0.0716  0.0125
    7CHL1   H25  510   5.515   1.564   9.114  0.3768  0.0230 -1.0526
    7CHL1   C26  511   5.333   1.517   8.990  0.2627 -0.1445  0.1297
    7CHL1  H26A  512   5.309   1.438   9.064  0.0387 -0.3625 -0.1759
    7CHL1  H26B  513   5.242   1.567   8.952  0.6892 -0.2040 -0.9727
    7CHL1  H26C  514   5.397   1.486   8.905  1.6482 -0.2421  1.1700
    7CHL1   C27  515   5.463   1.747   9.001 -0.0753 -0.5312 -0.4288
    7CHL1  H27A  516   5.494   1.720   8.898 -0.8064  0.0934 -0.8077
    7CHL1  H27B  517   5.372   1.810   9.002 -0.5595 -1.2281  0.7987
    7CHL1  H27C  518   5.537   1.807   9.059 -0.8679  1.2835 -1.2907
    8CHL1    C3  519   5.948   3.055  10.346  1.2397  0.0014  0.3803
    8CHL1    H3  520   5.864   2.982  10.351 -0.9880  2.5283  0.9333
    8CHL1    O3  521   5.967   3.114  10.470 -0.4958  0.4835 -0.8949
    8CHL1   H3'  522   5.884   3.112  10.519  1.0081 -0.3995  1.7183
    8CHL1    C4  523   6.063   2.967  10.295 -0.2526  0.0779 -0.3347
    8CHL1   H4A  524   6.155   3.029  10.291  0.3534 -0.8607 -1.0602
    8CHL1   H4B  525   6.078   2.885  10.369  1.7446 -0.3121 -1.1415
    8CHL1    C5  526   6.037   2.920  10.159  0.7116  0.3587  0.9348
    8CHL1    C6  527   6.029   2.792  10.122 -0.6572 -0.8023 -0.0205
    8CHL1    H6  528   6.041   2.710  10.194 -1.3169 -2.4208 -1.7116
    8CHL1    C7  529   6.012   2.748   9.981  0.0051  0.7603 -0.5485
    8CHL1   H7A  530   6.071   2.655   9.964  0.0803  0.5959  0.5480
    8CHL1   H7B  531   5.905   2.736   9.955 -0.3594 -0.6888  1.5489
    8CHL1    C8  532   6.049   2.851   9.877  0.2407 -1.0573 -0.0270
    8CHL1    H8  533   6.158   2.870   9.864  0.1590 -1.7690 -1.8475
    8CHL1   C14  534   6.001   2.808   9.742  0.3301 -0.2697  0.2544
    8CHL1   H14  535   5.891   2.797   9.753  0.4557 -0.0330  1.9882
    8CHL1   C15  536   6.048   2.675   9.686  0.4187 -0.1227  0.4440
    8CHL1  H15A  537   6.156   2.650   9.697  0.7753  1.1861 -0.0534
    8CHL1  H15B  538   5.979   2.597   9.724  1.3652 -1.1559  0.1081
    8CHL1   C16  539   6.022   2.694   9.531 -0.3306 -0.1896  0.7176
    8CHL1  H16A  540   6.125   2.694   9.490 -0.2440  2.7140  0.8374
    8CHL1  H16B  541   5.979   2.602   9.484  0.2170 -0.4976  0.8205
    8CHL1   C17  542   5.958   2.830   9.514  0.4346 -0.7578  0.7174
    8CHL1   H17  543   5.849   2.821   9.535  0.2857 -1.2622 -0.2363
    8CHL1   C13  544   6.010   2.914   9.632 -0.0507  0.3578  0.1224
    8CHL1   C18  545   6.157   2.966   9.610 -0.1305 -0.3291 -0.0822
    8CHL1  H18A  546   6.233   2.886   9.592 -1.0488 -0.6768 -2.6987
    8CHL1  H18B  547   6.160   3.048   9.535  0.3797 -0.1290  0.1546
    8CHL1  H18C  548   6.191   3.009   9.706 -0.5228  1.5549 -0.7738
    8CHL1   C12  549   5.923   3.038   9.661  0.7345 -0.2284  0.1339
    8CHL1  H12A  550   5.930   3.121   9.588 -0.0104 -1.4045 -1.3167
    8CHL1  H12B  551   5.823   2.990   9.668  1.3632 -1.5701  0.0851
    8CHL1   C11  552   5.975   3.096   9.798 -0.9821 -0.1614 -0.5094
    8CHL1  H11A  553   6.074   3.143   9.781 -0.2788 -2.0708 -1.9477
    8CHL1  H11B  554   5.908   3.180   9.824  0.5278  0.5465  1.2549
    8CHL1    C9  555   5.979   2.988   9.913 -0.6465  0.0407  0.2111
    8CHL1    H9  556   5.871   2.962   9.910 -0.2096 -1.6777 -2.1038
    8CHL1   C10  557   6.025   3.032  10.054 -0.0314  0.1420 -0.9004
    8CHL1   C19  558   6.157   3.109  10.028  0.4637  0.4298  0.6730
    8CHL1  H19A  559   6.136   3.211   9.991 -0.2145  0.2195  0.4677
    8CHL1  H19B  560   6.212   3.126  10.123 -0.0324  2.4724  0.6009
    8CHL1  H19C  561   6.218   3.047   9.959 -1.9110 -0.6617 -0.5056
    8CHL1    C1  562   5.908   3.128  10.099  0.0263 -0.3311 -0.0530
    8CHL1   H1A  563   5.920   3.220  10.038  2.7836 -2.2121 -2.4724
    8CHL1   H1B  564   5.808   3.081  10.085  0.3481 -0.2288 -2.9906
    8CHL1    C2  565   5.918   3.172  10.247  0.0388  0.3647  0.1504
    8CHL1   H2A  566   5.824   3.231  10.260 -1.0489 -0.9959 -1.4310
    8CHL1   H2B  567   6.003   3.244  10.249  0.0826  0.3159 -0.0304
    8CHL1   C20  568   5.973   2.896   9.368  0.1308 -0.1171  0.8640
    8CHL1   H20  569   5.955   3.002   9.395  0.0604 -0.0467  0.5395
    8CHL1   C21  570   5.853   2.850   9.283  0.0502 -0.4467  0.5362
    8CHL1  H21A  571   5.755   2.882   9.326  0.6112 -0.5076  1.8733
    8CHL1  H21B  572   5.857   2.741   9.266  2.3255 -0.3906  0.5364
    8CHL1  H21C  573   5.860   2.908   9.189  1.4003 -1.2146  0.1561
    8CHL1   C22  574   6.104   2.873   9.304  0.1088 -0.1150  0.0719
    8CHL1  H22A  575   6.189   2.855   9.373  1.5116  0.8971 -1.3631
    8CHL1  H22B  576   6.095   2.775   9.254 -0.6622  0.2920 -0.6071
    8CHL1   C23  577   6.154   2.989   9.216 -0.5813  0.2236 -0.1576
    8CHL1  H23A  578   6.067   3.023   9.157  0.5820 -1.9163 -3.2230
    8CHL1  H23B  579   6.184   3.074   9.281 -2.0514 -0.2395  1.1675
    8CHL1   C24  580   6.274   2.943   9.130  0.6772 -0.6969  0.4382
    8CHL1  H24A  581   6.353   2.907   9.200  1.2241 -1.3108 -0.4871
    8CHL1  H24B  582   6.232   2.851   9.084  1.7667 -0.7666 -0.4366
    8CHL1   C25  583   6.330   3.043   9.027  0.0239 -0.1761  0.4673
    8CHL1   H25  584   6.251   3.075   8.955  1.3208  0.5208 -0.6742
    8CHL1   C26  585   6.400   3.159   9.096  0.1633  0.4381 -1.1640
    8CHL1  H26A  586   6.320   3.226   9.135 -0.4836 -0.9398 -0.0668
    8CHL1  H26B  587   6.462   3.114   9.176  0.3382  0.8189 -1.0850
    8CHL1  H26C  588   6.466   3.210   9.023  0.6293  0.7929 -0.4990
    8CHL1   C27  589   6.430   2.970   8.948 -0.1437  0.6195  0.7983
    8CHL1  H27A  590   6.375   2.930   8.861  1.4731  0.8321 -0.3427
    8CHL1  H27B  591   6.516   3.027   8.908 -2.1883  2.7985 -0.6101
    8CHL1  H27C  592   6.478   2.893   9.013  0.0107  0.4983  0.5414
    9CHL1    C3  593   2.435   6.152  10.085 -0.1409  0.8738 -0.3113
    9CHL1    H3  594   2.375   6.235  10.043 -1.9884  0.1488  0.8561
    9CHL1    O3  595   2.420   6.152  10.225 -0.5571 -0.4873  0.5801
    9CHL1   H3'  596   2.451   6.068  10.259  2.2968  0.4345  0.4123
    9CHL1    C4  597   2.386   6.019  10.020  0.7654  0.1794  0.1090
    9CHL1   H4A  598   2.431   5.931  10.070  1.3151 -0.3121 -1.2286
    9CHL1   H4B  599   2.277   6.018  10.038  0.8475 -0.4451  0.5563
    9CHL1    C5  600   2.424   6.004   9.870 -0.1962  0.2078 -0.5306
    9CHL1    C6  601   2.327   5.981   9.776  0.4259  0.4291  0.5222
    9CHL1    H6  602   2.225   5.975   9.817 -0.3551  1.3967 -1.2345
    9CHL1    C7  603   2.355   5.983   9.624  0.1971  0.6913  0.1549
    9CHL1   H7A  604   2.305   5.898   9.573  0.1846  0.6732  0.1956
    9CHL1   H7B  605   2.334   6.079   9.572  0.7516  1.2121  0.8790
    9CHL1    C8  606   2.508   5.949   9.600 -0.0430  0.5337 -0.3476
    9CHL1    H8  607   2.524   5.846   9.639 -1.3142  0.3569 -0.2657
    9CHL1   C14  608   2.541   5.959   9.450  0.4881  0.3315 -0.5994
    9CHL1   H14  609   2.523   6.062   9.413 -0.7781  0.4631  0.3222
    9CHL1   C15  610   2.482   5.859   9.354 -0.1796 -0.7255  0.0631
    9CHL1  H15A  611   2.453   5.773   9.418  1.6184 -1.3637  0.0520
    9CHL1  H15B  612   2.389   5.907   9.317 -1.2073 -1.2028  1.9200
    9CHL1   C16  613   2.585   5.835   9.242  0.0423 -0.5815 -0.8042
    9CHL1  H16A  614   2.622   5.731   9.232  0.4077 -0.5647  0.2412
    9CHL1  H16B  615   2.526   5.856   9.151 -0.4159  1.3453 -0.0890
    9CHL1   C17  616   2.701   5.930   9.272 -0.4851  0.0236  0.2585
    9CHL1   H17  617   2.664   6.027   9.231 -2.2403 -1.9716 -3.0778
    9CHL1   C13  618   2.686   5.942   9.426  0.1657  0.2642  0.4251
    9CHL1   C18  619   2.748   5.810   9.489 -0.7247 -0.1161 -0.0020
    9CHL1  H18A  620   2.712   5.786   9.591 -1.6721  2.5533  0.3486
    9CHL1  H18B  621   2.724   5.718   9.432  1.4443 -0.3188 -0.6558
    9CHL1  H18C  622   2.859   5.814   9.476 -0.4030 -2.1240  1.8332
    9CHL1   C12  623   2.753   6.059   9.499 -0.3259 -0.0946  0.2148
    9CHL1  H12A  624   2.862   6.075   9.490 -0.7251  3.1578  0.3990
    9CHL1  H12B  625   2.705   6.155   9.471 -0.3851 -0.2496 -0.2098
    9CHL1   C11  626   2.746   6.043   9.651 -1.0973 -0.3429  0.1274
    9CHL1  H11A  627   2.802   5.952   9.680  1.9255  1.1567 -0.8435
    9CHL1  H11B  628   2.808   6.124   9.695  0.5659 -0.9732 -1.0232
    9CHL1    C9  629   2.594   6.049   9.685  0.8183 -0.3594  0.8251
    9CHL1    H9  630   2.556   6.149   9.655  2.0732 -0.5524 -1.5850
    9CHL1   C10  631   2.572   6.038   9.835 -0.0405  0.2703 -0.1752
    9CHL1   C19  632   2.659   5.921   9.884 -0.5098  0.1441  0.1513
    9CHL1  H19A  633   2.640   5.897   9.991 -1.9232 -0.0167 -0.1364
    9CHL1  H19B  634   2.654   5.832   9.817  0.1547  1.1772 -1.2882
    9CHL1  H19C  635   2.766   5.951   9.892 -0.6217  0.9752 -1.2540
    9CHL1    C1  636   2.619   6.166   9.905  0.1130 -0.2494  0.3528
    9CHL1   H1A  637   2.727   6.184   9.888 -0.5849  3.1515 -0.9463
    9CHL1   H1B  638   2.562   6.252   9.864  2.3093  1.3870  0.6277
    9CHL1    C2  639   2.584   6.161  10.054 -0.5407  0.2674 -0.0954
    9CHL1   H2A  640   2.613   6.259  10.097 -0.6154 -1.0064  2.9816
    9CHL1   H2B  641   2.642   6.082  10.108 -0.6568 -0.0346 -0.4121
    9CHL1   C20  642   2.826   5.895   9.200  0.0947  0.2119 -0.1634
    9CHL1   H20  643   2.848   5.789   9.227  0.0849  0.7628  2.1035
    9CHL1   C21  644   2.938   5.989   9.234 -0.4807 -0.6332  1.0262
    9CHL1  H21A  645   3.011   5.999   9.151 -2.0838 -0.1960 -0.3493
    9CHL1  H21B  646   2.987   5.952   9.327  0.4555 -3.4256 -0.5182
    9CHL1  H21C  647   2.896   6.090   9.253  1.6894  0.7376 -1.1958
    9CHL1   C22  648   2.811   5.892   9.045 -0.4020 -0.2230  0.1626
    9CHL1  H22A  649   2.912   5.868   9.006 -0.7475 -3.5951  1.1987
    9CHL1  H22B  650   2.739   5.813   9.014  0.4297 -0.6966 -0.6018
    9CHL1   C23  651   2.767   6.016   8.974 -0.0901  0.6848 -0.2135
    9CHL1  H23A  652   2.672   6.045   9.024 -0.3592  1.2285 -1.0411
    9CHL1  H23B  653   2.850   6.090   8.971  1.1575 -0.7203 -1.3356
    9CHL1   C24  654   2.713   5.984   8.835 -1.0173  0.6818 -0.1343
    9CHL1  H24A  655   2.796   5.940   8.777 -1.0583  0.2184  0.1587
    9CHL1  H24B  656   2.641   5.902   8.855  2.0945 -2.2727 -0.5833
    9CHL1   C25  657   2.646   6.097   8.753  0.3426  0.3420 -0.0017
    9CHL1   H25  658   2.628   6.060   8.650 -0.0536 -0.2962  0.2933
    9CHL1   C26  659   2.507   6.138   8.815 -0.6247 -0.6079 -0.1856
    9CHL1  H26A  660   2.438   6.052   8.803  0.1723 -1.4278  0.9850
    9CHL1  H26B  661   2.516   6.173   8.920  0.1136 -0.2422 -0.3612
    9CHL1  H26C  662   2.473   6.223   8.751  1.5504  0.2215 -0.2916
    9CHL1   C27  663   2.731   6.224   8.747  0.4265  0.2274 -0.1296
    9CHL1  H27A  664   2.825   6.210   8.689 -2.1903 -1.6518 -4.1656
    9CHL1  H27B  665   2.670   6.304   8.700  2.5958  0.2391 -3.0194
    9CHL1  H27C  666   2.764   6.257   8.848  3.1028  0.7846 -1.1501
   10CHL1    C3  667   1.357   3.635  10.033 -0.7749  0.8306 -0.3553
   10CHL1    H3  668   1.323   3.529  10.028  0.5278  0.3225  1.1519
   10CHL1    O3  669   1.398   3.669  10.165  0.2627 -0.0756 -0.3139
   10CHL1   H3'  670   1.425   3.761  10.159 -1.4331  0.5181  0.7661
   10CHL1    C4  671   1.473   3.658   9.943 -0.6219  0.2608  0.1626
   10CHL1   H4A  672   1.501   3.765   9.941 -1.4954  0.5329  1.4615
   10CHL1   H4B  673   1.559   3.600   9.983 -1.1239  0.0849  1.0053
   10CHL1    C5  674   1.438   3.622   9.805  0.0737 -0.1669  0.0007
   10CHL1    C6  675   1.510   3.529   9.742 -0.9063 -0.0816  0.4377
   10CHL1    H6  676   1.589   3.473   9.792 -0.3765  1.9331  1.9272
   10CHL1    C7  677   1.490   3.508   9.595  0.0080  0.1563 -0.1141
   10CHL1   H7A  678   1.587   3.489   9.543  0.4250  0.5302  0.5185
   10CHL1   H7B  679   1.438   3.412   9.576 -1.3830  1.0879 -1.1012
   10CHL1    C8  680   1.397   3.612   9.522 -1.0636 -0.5544 -0.0146
   10CHL1    H8  681   1.463   3.700   9.508  0.9000 -2.1189 -0.9043
   10CHL1   C14  682   1.347   3.560   9.393 -0.3764 -0.3359  0.0523
   10CHL1   H14  683   1.274   3.483   9.427  1.3525 -1.5449  1.1078
   10CHL1   C15  684   1.457   3.498   9.300  0.0643 -0.4193  0.1255
   10CHL1  H15A  685   1.556   3.546   9.311  0.5146 -1.9253  2.9631
   10CHL1  H15B  686   1.463   3.388   9.315  0.2084 -0.3753  0.3942
   10CHL1   C16  687   1.406   3.514   9.162 -0.4404  0.5953  0.1199
   10CHL1  H16A  688   1.475   3.585   9.114 -0.1796 -0.0273 -0.4278
   10CHL1  H16B  689   1.412   3.415   9.112  0.8589  0.8050 -0.1408
   10CHL1   C17  690   1.259   3.574   9.181 -0.5631 -1.1647  0.5332
   10CHL1   H17  691   1.193   3.487   9.204 -1.7335 -1.1027 -2.4032
   10CHL1   C13  692   1.269   3.661   9.309 -0.1371 -0.4259 -0.3193
   10CHL1   C18  693   1.354   3.791   9.286  0.1826  0.2563 -0.8838
   10CHL1  H18A  694   1.345   3.861   9.372  0.1118  0.4679 -1.0635
   10CHL1  H18B  695   1.461   3.768   9.270 -0.1064 -1.8633  0.0711
   10CHL1  H18C  696   1.330   3.840   9.189 -0.8442 -3.1618 -2.4487
   10CHL1   C12  697   1.134   3.690   9.383 -0.0393 -0.2122  0.5304
   10CHL1  H12A  698   1.065   3.767   9.343 -1.3301 -0.4627  2.1895
   10CHL1  H12B  699   1.080   3.593   9.391 -0.2255 -0.0406  1.4962
   10CHL1   C11  700   1.175   3.737   9.528 -0.0467 -0.4110 -0.3834
   10CHL1  H11A  701   1.206   3.844   9.523  0.3952 -0.5047  0.3388
   10CHL1  H11B  702   1.082   3.718   9.585 -0.7844 -2.2402 -2.1376
   10CHL1    C9  703   1.270   3.646   9.608 -0.5499  0.4710  0.7283
   10CHL1    H9  704   1.217   3.550   9.631 -0.4166 -0.1947 -1.5564
   10CHL1   C10  705   1.321   3.708   9.742 -0.0525  1.1456 -0.2874
   10CHL1   C19  706   1.365   3.854   9.718  0.3825  0.3923 -0.2951
   10CHL1  H19A  707   1.395   3.896   9.817  1.7209 -0.3679 -0.3713
   10CHL1  H19B  708   1.456   3.853   9.656  1.7449  1.2400  1.6384
   10CHL1  H19C  709   1.286   3.921   9.678 -1.0430  0.0525  1.8449
   10CHL1    C1  710   1.205   3.701   9.843 -0.4270  0.0234 -0.6493
   10CHL1   H1A  711   1.124   3.773   9.818 -0.6251 -0.8490 -2.6503
   10CHL1   H1B  712   1.157   3.600   9.837  1.0931 -1.0463  3.5818
   10CHL1    C2  713   1.255   3.730   9.989  0.6896  0.0783  0.3860
   10CHL1   H2A  714   1.172   3.727  10.063  0.8264 -2.0568  0.4780
   10CHL1   H2B  715   1.289   3.836   9.991 -0.0462  0.3548 -0.9349
   10CHL1   C20  716   1.207   3.629   9.047 -0.8135 -0.1970  0.0366
   10CHL1   H20  717   1.282   3.702   9.011  0.9250 -2.4851 -1.0698
   10CHL1   C21  718   1.070   3.694   9.073  0.7830  0.4685 -0.2683
   10CHL1  H21A  719   1.072   3.790   9.128 -0.5114 -0.5928  1.6990
   10CHL1  H21B  720   1.002   3.618   9.119  1.1936  1.8515  2.7352
   10CHL1  H21C  721   1.019   3.724   8.979  0.4071 -1.1666 -0.6106
   10CHL1   C22  722   1.192   3.513   8.946 -0.4409  0.9266 -0.4301
   10CHL1  H22A  723   1.280   3.445   8.943 -0.3130  1.0979 -0.6118
   10CHL1  H22B  724   1.100   3.454   8.968  1.2012 -1.0660  1.3242
   10CHL1   C23  725   1.179   3.552   8.794  0.0303  1.0156  0.2880
   10CHL1  H23A  726   1.111   3.639   8.783 -0.5676  0.6930  1.3545
   10CHL1  H23B  727   1.281   3.585   8.763  0.2537 -0.1008 -0.1795
   10CHL1   C24  728   1.144   3.439   8.691 -0.7379 -0.0435  0.1435
   10CHL1  H24A  729   1.201   3.347   8.716  0.9793  1.0061  0.1896
   10CHL1  H24B  730   1.038   3.411   8.705 -0.4910 -1.5296 -0.8109
   10CHL1   C25  731   1.169   3.471   8.544  0.7133 -0.0261 -0.5789
   10CHL1   H25  732   1.278   3.476   8.525  0.7694  1.1004  0.0112
   10CHL1   C26  733   1.097   3.373   8.446 -0.2338  0.0587  0.3191
   10CHL1  H26A  734   1.099   3.402   8.339 -0.1204  0.2450  0.3692
   10CHL1  H26B  735   1.148   3.276   8.463  0.6984  0.0708 -2.2240
   10CHL1  H26C  736   0.989   3.373   8.472 -0.5840 -0.7547 -1.1241
   10CHL1   C27  737   1.105   3.608   8.511 -0.1099  1.0771  1.0103
   10CHL1  H27A  738   1.126   3.632   8.404 -0.0452 -1.3816  0.4391
   10CHL1  H27B  739   0.995   3.612   8.527 -0.1241  2.6899  0.6031
   10CHL1  H27C  740   1.149   3.692   8.569 -0.7134  1.0980  1.4301
   11CHL1    C3  741   3.572   6.603   9.952  0.4026  0.0212 -0.6681
   11CHL1    H3  742   3.473   6.565   9.916  0.4919  1.9134 -2.9986
   11CHL1    O3  743   3.571   6.609  10.097  0.5949  0.0763 -0.0034
   11CHL1   H3'  744   3.662   6.599  10.126  0.4307  0.2688  0.5762
   11CHL1    C4  745   3.684   6.510   9.899 -0.1180  0.5013 -0.1101
   11CHL1   H4A  746   3.775   6.527   9.962 -0.4873 -0.2181  0.6175
   11CHL1   H4B  747   3.646   6.408   9.921  0.3617  0.1964 -0.6684
   11CHL1    C5  748   3.714   6.527   9.745  0.0327 -0.4535  0.7391
   11CHL1    C6  749   3.716   6.420   9.664  0.5565  0.1822  0.0439
   11CHL1    H6  750   3.712   6.318   9.706  0.8814 -0.2250 -0.8798
   11CHL1    C7  751   3.732   6.421   9.517 -0.1505  0.0930  0.0004
   11CHL1   H7A  752   3.796   6.336   9.483 -1.1179 -0.4335 -0.5568
   11CHL1   H7B  753   3.635   6.424   9.463  0.3737 -0.2624 -0.9799
   11CHL1    C8  754   3.808   6.548   9.473 -0.7127  1.1580 -0.3475
   11CHL1    H8  755   3.912   6.550   9.513 -0.0907 -0.0939 -1.8787
   11CHL1   C14  756   3.819   6.555   9.321  1.0381 -0.2725 -0.4805
   11CHL1   H14  757   3.715   6.541   9.284  0.9979 -3.0355  0.5396
   11CHL1   C15  758   3.895   6.445   9.256  0.2979  0.3804  0.0469
   11CHL1  H15A  759   3.987   6.429   9.317 -1.5974 -1.2483  2.5809
   11CHL1  H15B  760   3.839   6.349   9.257 -1.5425  1.4110  2.6569
   11CHL1   C16  761   3.941   6.507   9.118  0.4732  0.7220 -0.2917
   11CHL1  H16A  762   4.049   6.507   9.143  0.2344 -0.1124  0.8032
   11CHL1  H16B  763   3.917   6.454   9.024 -1.8151  0.9349  0.1328
   11CHL1   C17  764   3.879   6.644   9.121  0.5022 -0.4170 -0.1300
   11CHL1   H17  765   3.774   6.630   9.088 -0.3948  3.1674  0.9712
   11CHL1   C13  766   3.867   6.689   9.266  0.0723  0.3342  0.4183
   11CHL1   C18  767   4.014   6.720   9.315 -0.3620  0.1039 -0.7920
   11CHL1  H18A  768   4.009   6.727   9.426 -0.0615 -0.4464 -0.7397
   11CHL1  H18B  769   4.090   6.641   9.299 -0.8852 -0.4252 -0.6742
   11CHL1  H18C  770   4.043   6.816   9.268  2.7650  0.0946  0.9352
   11CHL1   C12  771   3.760   6.794   9.315 -0.2778  0.3287 -0.1190
   11CHL1  H12A  772   3.778   6.899   9.283 -2.2907  0.6968 -0.1010
   11CHL1  H12B  773   3.667   6.766   9.260  1.1728 -0.5464 -2.1969
   11CHL1   C11  774   3.740   6.801   9.469 -0.4844 -0.1475  0.3776
   11CHL1  H11A  775   3.838   6.848   9.495  0.0166 -0.6650 -0.5319
   11CHL1  H11B  776   3.666   6.877   9.501 -0.2009 -0.0022  0.6900
   11CHL1    C9  777   3.722   6.668   9.536 -0.4422 -0.3253 -0.3863
   11CHL1    H9  778   3.623   6.631   9.502 -0.8868  2.3297 -2.0363
   11CHL1   C10  779   3.723   6.669   9.689 -0.2662 -0.4491 -0.6355
   11CHL1   C19  780   3.856   6.732   9.745  0.0185 -0.2436 -0.3543
   11CHL1  H19A  781   3.867   6.722   9.855  2.3711  1.1195 -0.4293
   11CHL1  H19B  782   3.939   6.680   9.693  0.3104 -0.4738  0.3427
   11CHL1  H19C  783   3.853   6.840   9.717 -0.2601  0.3263  1.8168
   11CHL1    C1  784   3.604   6.751   9.747 -0.0848 -0.1305  0.1432
   11CHL1   H1A  785   3.622   6.859   9.725  3.3805 -0.0843  2.6687
   11CHL1   H1B  786   3.516   6.701   9.701  0.8031 -0.1169 -1.6089
   11CHL1    C2  787   3.590   6.743   9.896 -0.4129 -0.0744 -1.2075
   11CHL1   H2A  788   3.507   6.809   9.929  1.9112  2.4218 -0.1628
   11CHL1   H2B  789   3.679   6.783   9.951 -0.7390  2.0487 -2.1631
   11CHL1   C20  790   3.955   6.747   9.029  0.1858  0.0798 -0.3884
   11CHL1   H20  791   4.057   6.737   9.072  0.6145  0.1814 -1.3501
   11CHL1   C21  792   3.900   6.889   9.038  0.0481 -0.2867  0.2273
   11CHL1  H21A  793   3.790   6.881   9.049  0.0468 -0.9058 -0.1829
   11CHL1  H21B  794   3.916   6.939   8.940 -1.2889  0.5819  0.4424
   11CHL1  H21C  795   3.933   6.952   9.123  0.2191 -0.0784  0.0064
   11CHL1   C22  796   3.958   6.687   8.884 -0.6685 -0.2346  0.0202
   11CHL1  H22A  797   4.014   6.763   8.826  0.4844 -1.7080 -0.8238
   11CHL1  H22B  798   4.011   6.589   8.883  1.3331  0.8197 -1.7134
   11CHL1   C23  799   3.819   6.667   8.815 -0.3994 -0.0452 -0.4279
   11CHL1  H23A  800   3.769   6.595   8.883  1.2818  0.6737  1.6334
   11CHL1  H23B  801   3.753   6.755   8.829 -0.2294  0.1361 -0.7410
   11CHL1   C24  802   3.846   6.622   8.677  0.3255  0.1982 -0.1151
   11CHL1  H24A  803   3.917   6.692   8.628  0.3120 -2.0780 -3.5606
   11CHL1  H24B  804   3.891   6.521   8.686  0.0781  0.0145 -0.8771
   11CHL1   C25  805   3.718   6.608   8.594 -0.4346  0.1486  0.1939
   11CHL1   H25  806   3.675   6.710   8.593  0.1145  0.3814  0.2670
   11CHL1   C26  807   3.763   6.573   8.449 -0.2039  0.8554 -0.4098
   11CHL1  H26A  808   3.672   6.559   8.387 -0.8127  0.6794  0.5058
   11CHL1  H26B  809   3.820   6.654   8.400 -0.6837 -0.0430 -2.4812
   11CHL1  H26C  810   3.834   6.487   8.450  0.0960  1.0826 -1.5937
   11CHL1   C27  811   3.617   6.512   8.645 -0.3982  0.3978 -0.6572
   11CHL1  H27A  812   3.674   6.416   8.645 -0.2348  0.4951 -0.3269
   11CHL1  H27B  813   3.586   6.532   8.749  0.0341  1.0038 -0.6409
   11CHL1  H27C  814   3.532   6.509   8.573  1.0837 -0.8518 -2.4049
   12CHL1    C3  815   6.720   2.879  10.289  0.2491 -0.0211  0.4005
   12CHL1    H3  816   6.678   2.979  10.311  0.1136 -0.3456  1.6590
   12CHL1    O3  817   6.736   2.826  10.420  0.0871 -0.3000  0.5747
   12CHL1   H3'  818   6.774   2.739  10.407  0.0340 -0.2647  0.1881
   12CHL1    C4  819   6.617   2.803  10.203 -0.4835 -0.1523 -0.6048
   12CHL1   H4A  820   6.643   2.697  10.220 -0.1487 -0.4030 -2.6461
   12CHL1   H4B  821   6.514   2.815  10.244 -0.5862 -3.5410  0.2519
   12CHL1    C5  822   6.616   2.845  10.059 -0.2756 -0.3000  0.0676
   12CHL1    C6  823   6.510   2.890   9.994 -0.3725 -0.1639  0.3905
   12CHL1    H6  824   6.410   2.894  10.039 -0.2352 -0.9183  0.7763
   12CHL1    C7  825   6.505   2.927   9.847 -0.2826 -0.1257  0.1049
   12CHL1   H7A  826   6.407   2.901   9.800  0.7303  0.0884 -2.1858
   12CHL1   H7B  827   6.505   3.038   9.836 -1.1298 -0.3022 -1.9041
   12CHL1    C8  828   6.627   2.881   9.763 -0.2581  0.5439 -0.3148
   12CHL1    H8  829   6.606   2.773   9.752  0.8831  0.3792 -0.9456
   12CHL1   C14  830   6.621   2.951   9.630 -0.4514  0.1072  0.2817
   12CHL1   H14  831   6.656   3.054   9.650  1.8634 -0.2488 -1.6815
   12CHL1   C15  832   6.494   2.955   9.548 -0.6369  0.2704  0.1375
   12CHL1  H15A  833   6.445   2.856   9.566  0.5250 -0.1165  1.2337
   12CHL1  H15B  834   6.431   3.042   9.576 -2.3253  0.3073 -3.4938
   12CHL1   C16  835   6.544   2.978   9.400 -0.0761 -0.0500 -0.5446
   12CHL1  H16A  836   6.525   2.884   9.346  3.1751 -1.7824  1.1506
   12CHL1  H16B  837   6.482   3.062   9.361 -0.1252  0.7110  1.1055
   12CHL1   C17  838   6.704   2.975   9.408  0.1364 -0.2383  0.1994
   12CHL1   H17  839   6.737   3.078   9.434 -0.9804 -0.1388  1.2547
   12CHL1   C13  840   6.736   2.899   9.539 -0.9466 -0.2632  0.2569
   12CHL1   C18  841   6.714   2.745   9.517  0.3505 -0.0753 -0.7046
   12CHL1  H18A  842   6.607   2.714   9.518  0.7986 -1.6431  2.0162
   12CHL1  H18B  843   6.775   2.708   9.432 -0.5859 -1.1011 -0.9480
   12CHL1  H18C  844   6.764   2.689   9.598  0.9412 -1.5834 -2.0872
   12CHL1   C12  845   6.863   2.938   9.610 -0.0648  0.5117 -0.4702
   12CHL1  H12A  846   6.946   2.900   9.547  0.2736  0.7710 -0.1865
   12CHL1  H12B  847   6.872   3.049   9.615  2.0002  0.3172  0.5876
   12CHL1   C11  848   6.875   2.884   9.756 -0.6068 -0.2941  0.0498
   12CHL1  H11A  849   6.889   2.775   9.738 -2.1575 -0.2044 -1.8592
   12CHL1  H11B  850   6.967   2.919   9.807  0.3802 -2.3318 -0.2825
   12CHL1    C9  851   6.752   2.908   9.842 -0.0808 -0.7352  0.1977
   12CHL1    H9  852   6.749   3.019   9.850  0.0857 -0.6907 -0.3985
   12CHL1   C10  853   6.755   2.851   9.988  0.1829  0.2081  0.0002
   12CHL1   C19  854   6.817   2.704   9.987  0.1000 -0.4039 -0.4688
   12CHL1  H19A  855   6.922   2.709   9.951  0.5864  1.2252  1.0994
   12CHL1  H19B  856   6.834   2.656  10.085  1.7770 -2.6309 -1.8177
   12CHL1  H19C  857   6.753   2.637   9.926  0.8580  0.3962 -2.1796
   12CHL1    C1  858   6.845   2.942  10.075  0.3227 -0.0538 -0.5083
   12CHL1   H1A  859   6.947   2.943  10.033  0.7340 -0.4155  0.4566
   12CHL1   H1B  860   6.801   3.044  10.078  0.4347 -0.0131 -0.1693
   12CHL1    C2  861   6.853   2.896  10.221  0.8129  0.2595  0.1109
   12CHL1   H2A  862   6.903   2.982  10.270  1.0974 -0.8552  1.8057
   12CHL1   H2B  863   6.918   2.807  10.228  0.2454 -0.1795 -0.1394
   12CHL1   C20  864   6.778   2.932   9.285  0.3104 -0.7422  0.6185
   12CHL1   H20  865   6.878   2.899   9.321  1.4110  1.3415 -0.4521
   12CHL1   C21  866   6.799   3.067   9.211 -0.0428 -0.1240 -0.0061
   12CHL1  H21A  867   6.841   3.039   9.112  0.0100  1.7226 -0.5096
   12CHL1  H21B  868   6.867   3.138   9.261 -1.2169  0.7386  0.3652
   12CHL1  H21C  869   6.699   3.108   9.184  0.0099 -0.4380 -0.7071
   12CHL1   C22  870   6.728   2.825   9.190  0.2368 -0.4370 -0.5345
   12CHL1  H22A  871   6.673   2.747   9.247 -0.2828 -0.5855 -1.2273
   12CHL1  H22B  872   6.639   2.871   9.142  0.1911 -0.0838 -0.1083
   12CHL1   C23  873   6.822   2.770   9.083  0.2435  0.6654  0.1277
   12CHL1  H23A  874   6.861   2.852   9.019  0.7981 -0.2783 -0.7507
   12CHL1  H23B  875   6.908   2.727   9.139  1.2069 -0.3602 -2.0754
   12CHL1   C24  876   6.745   2.678   8.987  0.3989  0.4868  0.2363
   12CHL1  H24A  877   6.655   2.736   8.958 -0.0855 -0.8812 -1.0594
   12CHL1  H24B  878   6.807   2.669   8.895  1.2650 -0.0370  0.8690
   12CHL1   C25  879   6.715   2.538   9.040  0.4936 -0.1821 -0.9511
   12CHL1   H25  880   6.697   2.555   9.148  0.5002 -1.7559 -0.6974
   12CHL1   C26  881   6.587   2.481   8.987 -0.0959  0.4953  0.4724
   12CHL1  H26A  882   6.560   2.378   9.017 -0.8199  0.5439 -0.0005
   12CHL1  H26B  883   6.499   2.545   9.009 -2.2483 -2.2350  0.0450
   12CHL1  H26C  884   6.602   2.486   8.877 -3.2048 -2.4012 -0.1615
   12CHL1   C27  885   6.821   2.433   9.022  0.3123  0.4476 -0.4392
   12CHL1  H27A  886   6.846   2.401   8.919  1.3102  2.7878 -0.9678
   12CHL1  H27B  887   6.923   2.460   9.055  0.5047 -0.3434 -0.3839
   12CHL1  H27C  888   6.789   2.348   9.086  0.1305  1.5262  0.9317
   13CHL1    C3  889   5.744   4.714   9.855  0.0571 -0.8043 -0.3784
   13CHL1    H3  890   5.646   4.761   9.833  0.5463  0.7036  0.5915
   13CHL1    O3  891   5.754   4.658   9.983 -0.0860  0.5965 -0.0372
   13CHL1   H3'  892   5.843   4.630  10.007 -0.5953 -0.9507  0.1168
   13CHL1    C4  893   5.769   4.604   9.758  0.3514  0.3198  0.4557
   13CHL1   H4A  894   5.862   4.555   9.795 -0.6984 -1.3564  0.9312
   13CHL1   H4B  895   5.692   4.527   9.782 -0.7036  1.9391  2.4566
   13CHL1    C5  896   5.774   4.645   9.613 -0.5823 -0.0483 -0.3148
   13CHL1    C6  897   5.708   4.582   9.520  0.2951  0.0296 -0.2023
   13CHL1    H6  898   5.635   4.504   9.542 -1.3651  1.5475 -0.2645
   13CHL1    C7  899   5.707   4.612   9.373 -0.0053  0.1970  0.8809
   13CHL1   H7A  900   5.703   4.511   9.326 -1.8948  0.7849 -0.3218
   13CHL1   H7B  901   5.618   4.668   9.335 -0.4018 -0.5193  0.7382
   13CHL1    C8  902   5.833   4.700   9.348  0.1527  0.0206 -0.1974
   13CHL1    H8  903   5.922   4.634   9.356 -1.4953 -2.1046  1.3040
   13CHL1   C14  904   5.828   4.755   9.205  0.9793  0.8164  1.0336
   13CHL1   H14  905   5.739   4.822   9.195 -0.7721 -1.5482  0.1735
   13CHL1   C15  906   5.809   4.653   9.092 -0.2655 -0.0107  0.2540
   13CHL1  H15A  907   5.872   4.567   9.123  0.8277  0.9931  0.8887
   13CHL1  H15B  908   5.707   4.612   9.079 -0.6537  0.3297  2.0299
   13CHL1   C16  909   5.847   4.728   8.966 -0.5482 -0.2849  0.3913
   13CHL1  H16A  910   5.922   4.676   8.904 -0.7167 -0.6530  0.4974
   13CHL1  H16B  911   5.750   4.753   8.917  0.0313  1.7188  0.1969
   13CHL1   C17  912   5.915   4.862   9.014  0.1279 -0.3150  0.2749
   13CHL1   H17  913   5.842   4.945   9.009  0.8002  0.3225  0.8776
   13CHL1   C13  914   5.947   4.842   9.161 -0.6995  0.2972  0.3310
   13CHL1   C18  915   6.076   4.756   9.172 -0.7342  0.4336 -0.5039
   13CHL1  H18A  916   6.084   4.699   9.268 -0.8343  0.2313 -0.6144
   13CHL1  H18B  917   6.074   4.677   9.094  0.6518 -0.5170  0.3967
   13CHL1  H18C  918   6.171   4.813   9.179 -0.4298 -0.2109  0.9124
   13CHL1   C12  919   5.952   4.960   9.252  0.1825  0.2319 -0.9580
   13CHL1  H12A  920   6.025   5.041   9.231 -1.1334  1.5400 -0.5604
   13CHL1  H12B  921   5.852   5.009   9.252 -1.2557 -2.5369  0.6736
   13CHL1   C11  922   5.958   4.922   9.409 -0.0070  0.7264 -0.0028
   13CHL1  H11A  923   6.062   4.885   9.423 -0.0022  0.3767 -0.9292
   13CHL1  H11B  924   5.934   5.013   9.468  0.9368 -0.1710  1.8184
   13CHL1    C9  925   5.853   4.812   9.446  0.5092  0.8636 -0.0163
   13CHL1    H9  926   5.753   4.859   9.456 -0.8711 -2.6477  4.8860
   13CHL1   C10  927   5.875   4.757   9.585 -0.3671 -0.3716 -0.7096
   13CHL1   C19  928   6.017   4.698   9.606  0.6465  0.5192  0.0707
   13CHL1  H19A  929   6.098   4.774   9.616  1.7033 -0.4775 -0.7771
   13CHL1  H19B  930   6.018   4.637   9.699 -0.5046 -1.1457 -0.9960
   13CHL1  H19C  931   6.043   4.630   9.522  2.8297 -0.9760  1.8904
   13CHL1    C1  932   5.853   4.869   9.690 -1.0522  0.3250 -0.4175
   13CHL1   H1A  933   5.932   4.946   9.677 -1.6316  1.7872  3.9609
   13CHL1   H1B  934   5.751   4.910   9.676 -1.4650 -1.0416 -1.4112
   13CHL1    C2  935   5.848   4.824   9.839 -0.0784 -0.1099 -0.4544
   13CHL1   H2A  936   5.836   4.912   9.906  1.4637  0.9278 -1.4980
   13CHL1   H2B  937   5.948   4.779   9.860  0.5475  2.2261  1.8115
   13CHL1   C20  938   6.032   4.905   8.916  0.0835 -0.8982  0.0485
   13CHL1   H20  939   6.118   4.834   8.909  0.1024 -0.7178 -1.8274
   13CHL1   C21  940   6.084   5.045   8.966  0.3746 -0.2752  0.2499
   13CHL1  H21A  941   6.004   5.112   9.004 -0.6361 -0.0666 -2.1878
   13CHL1  H21B  942   6.146   5.086   8.884 -2.0040  2.3464 -0.3122
   13CHL1  H21C  943   6.148   5.021   9.054  1.4193  1.8558  0.1021
   13CHL1   C22  944   5.979   4.927   8.771  0.7249  0.4840  0.6414
   13CHL1  H22A  945   5.904   4.846   8.753  1.2301  0.4173 -1.2552
   13CHL1  H22B  946   5.913   5.015   8.758 -2.1481 -1.4017  1.7755
   13CHL1   C23  947   6.089   4.915   8.657  0.0707  0.4078  0.0674
   13CHL1  H23A  948   6.139   5.014   8.665 -2.2421  1.7623 -1.5823
   13CHL1  H23B  949   6.169   4.840   8.677  0.5648  0.8245 -0.3479
   13CHL1   C24  950   6.027   4.902   8.520 -0.6786 -0.2580  0.4537
   13CHL1  H24A  951   6.106   4.862   8.453 -0.1867 -0.6739  1.2762
   13CHL1  H24B  952   5.953   4.819   8.522 -1.3699  0.3197 -0.7300
   13CHL1   C25  953   5.945   5.019   8.455 -0.3002 -0.3847 -0.7245
   13CHL1   H25  954   5.864   5.042   8.527  0.2596 -0.8665  0.0731
   13CHL1   C26  955   6.040   5.134   8.423  0.1374  0.4663 -0.5245
   13CHL1  H26A  956   6.079   5.172   8.520 -2.5079  0.3603  0.6214
   13CHL1  H26B  957   6.124   5.080   8.375  0.1822 -1.3128  1.4642
   13CHL1  H26C  958   5.996   5.207   8.351  2.7565  1.3932 -1.2515
   13CHL1   C27  959   5.878   4.971   8.326  0.4255 -0.4690  0.3940
   13CHL1  H27A  960   5.823   5.045   8.266  0.8515 -0.1535  0.3913
   13CHL1  H27B  961   5.949   4.927   8.252  1.8794  4.0454 -1.0357
   13CHL1  H27C  962   5.806   4.888   8.344 -0.7529 -0.3703 -3.5318
   14CHL1    C3  963   5.233   0.950  10.261 -0.5588  0.5182  0.1696
   14CHL1    H3  964   5.197   0.858  10.210 -0.7916 -0.0055  1.2622
   14CHL1    O3  965   5.261   0.916  10.395 -0.2212  0.1625 -0.0067
   14CHL1   H3'  966   5.202   0.844  10.418  0.1148  0.4987  1.9791
   14CHL1    C4  967   5.352   1.007  10.184 -0.0556  0.0853 -0.0219
   14CHL1   H4A  968   5.383   1.093  10.247 -0.9728  0.1469  0.3606
   14CHL1   H4B  969   5.436   0.934  10.186  0.6321  0.8008 -2.1200
   14CHL1    C5  970   5.325   1.043  10.042 -0.5728 -0.0121  0.6260
   14CHL1    C6  971   5.403   0.992   9.944 -0.6578  0.6179  0.8269
   14CHL1    H6  972   5.490   0.927   9.958 -0.3553  0.5241 -1.3615
   14CHL1    C7  973   5.374   1.021   9.796 -0.1216 -0.7447 -0.7097
   14CHL1   H7A  974   5.467   1.048   9.741 -0.8533  1.4731 -0.9063
   14CHL1   H7B  975   5.345   0.927   9.744  0.3484 -1.9790  1.1928
   14CHL1    C8  976   5.273   1.141   9.768 -0.7728 -1.3162  0.7575
   14CHL1    H8  977   5.336   1.231   9.779  0.6596 -1.8101 -2.9031
   14CHL1   C14  978   5.224   1.120   9.629 -0.5860  0.5871 -0.0646
   14CHL1   H14  979   5.161   1.028   9.625 -0.2684  0.3829 -0.4309
   14CHL1   C15  980   5.338   1.102   9.525  0.1192 -0.2179 -0.6646
   14CHL1  H15A  981   5.417   1.177   9.545 -0.4338  0.1726  0.1156
   14CHL1  H15B  982   5.385   1.001   9.520 -1.1972 -0.7489 -3.1844
   14CHL1   C16  983   5.260   1.132   9.392 -0.3611 -0.0678  0.0058
   14CHL1  H16A  984   5.320   1.197   9.325  0.5002  1.2032  1.9403
   14CHL1  H16B  985   5.249   1.038   9.334  0.5631  1.1836 -2.2380
   14CHL1   C17  986   5.119   1.186   9.428  0.0459  0.8126 -0.1587
   14CHL1   H17  987   5.051   1.099   9.434  0.8730  0.0719 -1.3322
   14CHL1   C13  988   5.137   1.232   9.575  0.6587 -0.2678 -0.0056
   14CHL1   C18  989   5.215   1.364   9.573  0.5035  0.5286  0.3545
   14CHL1  H18A  990   5.142   1.447   9.558  0.4539 -0.1231 -3.3943
   14CHL1  H18B  991   5.271   1.372   9.669  0.5402  3.2564  0.1416
   14CHL1  H18C  992   5.278   1.366   9.482 -1.2029 -4.3350 -1.0584
   14CHL1   C12  993   5.017   1.244   9.670  0.1897 -0.4530 -0.8829
   14CHL1  H12A  994   4.944   1.324   9.642  1.5866  0.8697 -0.8370
   14CHL1  H12B  995   4.959   1.150   9.659 -0.2587 -0.3088  0.0932
   14CHL1   C11  996   5.058   1.252   9.823 -0.2018  0.4654 -0.2986
   14CHL1  H11A  997   5.100   1.354   9.839 -1.4558  1.0080 -0.3908
   14CHL1  H11B  998   4.968   1.238   9.887 -1.7013  1.3033 -2.1734
   14CHL1    C9  999   5.157   1.141   9.862  0.4318  0.4856 -0.2421
   14CHL1    H9 1000   5.109   1.042   9.843  0.9305  0.6467 -2.4299
   14CHL1   C10 1001   5.198   1.135  10.014 -0.9231  0.4025 -0.1957
   14CHL1   C19 1002   5.221   1.285  10.064 -0.4403  0.2896 -0.4046
   14CHL1  H19A 1003   5.253   1.270  10.169 -0.5343 -1.2607 -0.5896
   14CHL1  H19B 1004   5.300   1.335  10.005  0.0828 -0.7070 -0.5513
   14CHL1  H19C 1005   5.127   1.343  10.048 -2.0530 -2.0414  0.3138
   14CHL1    C1 1006   5.084   1.074  10.093 -0.1816  0.3791  0.4721
   14CHL1   H1A 1007   5.000   1.147  10.098  0.0894  0.5618  3.1700
   14CHL1   H1B 1008   5.027   0.991  10.045 -2.0455  2.3119 -0.7397
   14CHL1    C2 1009   5.117   1.047  10.239 -0.5538 -0.3868 -0.0071
   14CHL1   H2A 1010   5.029   0.990  10.276  1.2722 -2.3138  1.4829
   14CHL1   H2B 1011   5.138   1.144  10.287 -1.8565  0.5011 -1.1870
   14CHL1   C20 1012   5.061   1.279   9.323  0.2798  0.2673 -0.2036
   14CHL1   H20 1013   5.115   1.375   9.325 -0.2267  0.5543 -0.1996
   14CHL1   C21 1014   4.911   1.313   9.357  0.1469 -0.1627  0.2532
   14CHL1  H21A 1015   4.847   1.295   9.268 -0.3856  0.1490  0.5683
   14CHL1  H21B 1016   4.896   1.415   9.398 -0.4386 -1.1877  2.6901
   14CHL1  H21C 1017   4.874   1.247   9.438 -0.6507  1.8379  1.5578
   14CHL1   C22 1018   5.072   1.228   9.177 -0.1179  0.2318 -1.2399
   14CHL1  H22A 1019   5.176   1.199   9.151  0.7825  1.7734  0.5552
   14CHL1  H22B 1020   5.017   1.132   9.169  0.9650 -0.9710  4.1792
   14CHL1   C23 1021   5.017   1.332   9.071 -0.4743 -0.6082  0.7186
   14CHL1  H23A 1022   4.906   1.330   9.078 -0.7727  3.0427 -1.7335
   14CHL1  H23B 1023   5.048   1.432   9.107  2.8019 -0.9136 -1.0813
   14CHL1   C24 1024   5.055   1.290   8.926  0.3033 -0.4729 -0.6158
   14CHL1  H24A 1025   5.165   1.273   8.922  0.3125 -0.3378 -1.0452
   14CHL1  H24B 1026   4.995   1.199   8.906 -0.5028 -0.4448  1.5300
   14CHL1   C25 1027   5.026   1.391   8.805 -0.6046  0.3368 -0.4926
   14CHL1   H25 1028   5.096   1.476   8.815 -0.2785 -0.1565  1.5626
   14CHL1   C26 1029   5.048   1.336   8.665 -0.2571  0.3308  0.6216
   14CHL1  H26A 1030   5.157   1.319   8.649 -0.0321  2.5759 -0.3435
   14CHL1  H26B 1031   5.004   1.234   8.657  2.0469 -0.8234  2.0295
   14CHL1  H26C 1032   5.014   1.409   8.589 -0.5954 -2.1331 -1.6457
   14CHL1   C27 1033   4.882   1.449   8.812  0.4105 -0.2456  0.7566
   14CHL1  H27A 1034   4.869   1.500   8.910  2.4276  1.2961  0.2713
   14CHL1  H27B 1035   4.873   1.524   8.730 -1.6865 -1.5367 -0.2015
   14CHL1  H27C 1036   4.803   1.372   8.802  0.3669  0.0350 -1.2351
   15CHL1    C3 1037   5.752   0.157  10.118 -0.3035 -0.7546 -0.6699
   15CHL1    H3 1038   5.834   0.093  10.080  0.6424  1.0584 -1.7612
   15CHL1    O3 1039   5.761   0.165  10.256 -0.5272  0.8297 -0.3032
   15CHL1   H3' 1040   5.834   0.226  10.268 -0.0305  0.3313 -0.7810
   15CHL1    C4 1041   5.774   0.303  10.053  0.3439  0.0936 -0.0806
   15CHL1   H4A 1042   5.691   0.364  10.096 -0.1524 -1.5572  1.3617
   15CHL1   H4B 1043   5.870   0.343  10.092  0.0770  0.5651  0.1027
   15CHL1    C5 1044   5.761   0.289   9.901 -0.0534  0.0141  0.3001
   15CHL1    C6 1045   5.864   0.324   9.824 -0.1921 -0.2502  0.2877
   15CHL1    H6 1046   5.962   0.355   9.864 -0.4438 -1.4352  1.8393
   15CHL1    C7 1047   5.852   0.318   9.677 -0.1889 -0.3154 -0.1567
   15CHL1   H7A 1048   5.886   0.412   9.629  3.5806 -0.2650  2.4077
   15CHL1   H7B 1049   5.919   0.237   9.641 -0.5491 -0.0556 -1.4516
   15CHL1    C8 1050   5.710   0.283   9.623  0.2097 -0.5392 -0.2152
   15CHL1    H8 1051   5.657   0.381   9.623 -0.6171 -0.9752 -0.2457
   15CHL1   C14 1052   5.718   0.243   9.476 -0.0774 -0.4534 -0.1254
   15CHL1   H14 1053   5.768   0.144   9.476  2.1305  0.6380  0.6684
   15CHL1   C15 1054   5.813   0.314   9.374  0.2492 -0.3346 -0.4173
   15CHL1  H15A 1055   5.804   0.425   9.374 -0.5652 -0.3522  2.4877
   15CHL1  H15B 1056   5.921   0.294   9.391 -0.5209 -2.5593  2.2551
   15CHL1   C16 1057   5.751   0.261   9.250 -0.4153  0.1847 -0.4059
   15CHL1  H16A 1058   5.735   0.345   9.180  0.6356  0.2865 -0.5326
   15CHL1  H16B 1059   5.826   0.204   9.191 -0.7559 -0.0737 -0.5869
   15CHL1   C17 1060   5.627   0.175   9.283  0.6753  1.0391  0.0402
   15CHL1   H17 1061   5.659   0.071   9.308  1.2389  1.0903 -0.4553
   15CHL1   C13 1062   5.583   0.222   9.417 -0.0056  0.3149 -0.0362
   15CHL1   C18 1063   5.500   0.355   9.413  0.3535 -0.5604 -0.2967
   15CHL1  H18A 1064   5.557   0.436   9.363 -1.3454  0.3505 -0.7930
   15CHL1  H18B 1065   5.405   0.336   9.359 -1.4699  2.8275  1.5484
   15CHL1  H18C 1066   5.479   0.383   9.519  1.8966 -1.3003  0.2279
   15CHL1   C12 1067   5.496   0.116   9.489  0.5024 -0.4218 -0.9891
   15CHL1  H12A 1068   5.388   0.119   9.462  0.2591 -1.0551 -0.1180
   15CHL1  H12B 1069   5.533   0.017   9.458 -2.0315 -0.2168 -5.0492
   15CHL1   C11 1070   5.505   0.129   9.641 -0.1398 -0.5341 -0.0994
   15CHL1  H11A 1071   5.438   0.213   9.669 -1.9827 -1.6538 -1.0766
   15CHL1  H11B 1072   5.474   0.035   9.691 -0.2796  0.3031  1.4033
   15CHL1    C9 1073   5.640   0.188   9.702 -0.4665 -0.1295  0.1470
   15CHL1    H9 1074   5.702   0.096   9.703 -1.0353 -0.5611  3.5889
   15CHL1   C10 1075   5.630   0.231   9.854 -0.1339 -0.3515 -0.8529
   15CHL1   C19 1076   5.517   0.337   9.875 -0.6888  0.7371  0.5129
   15CHL1  H19A 1077   5.513   0.402   9.785 -1.0449 -0.9275 -0.6792
   15CHL1  H19B 1078   5.412   0.302   9.891 -0.1051 -1.5448 -0.4939
   15CHL1  H19C 1079   5.529   0.412   9.956 -0.5313  0.2468  0.9452
   15CHL1    C1 1080   5.595   0.097   9.929 -0.3776 -0.1929 -0.3454
   15CHL1   H1A 1081   5.490   0.066   9.909 -0.6567 -0.5727  1.5820
   15CHL1   H1B 1082   5.662   0.017   9.893  0.6029  0.8150 -0.7905
   15CHL1    C2 1083   5.611   0.108  10.081  0.6484  0.3939 -0.1512
   15CHL1   H2A 1084   5.575   0.018  10.135  0.2413  0.8303  0.3195
   15CHL1   H2B 1085   5.536   0.184  10.112  0.3469  0.7192 -1.6738
   15CHL1   C20 1086   5.518   0.165   9.174  0.3778 -0.3075  0.2938
   15CHL1   H20 1087   5.417   0.163   9.221 -0.6469 -2.6571 -1.9081
   15CHL1   C21 1088   5.541   0.030   9.102 -0.7454  0.2731 -0.1756
   15CHL1  H21A 1089   5.542  -0.067   9.156 -2.4978 -0.2079 -0.9626
   15CHL1  H21B 1090   5.624   0.041   9.030 -1.1371  1.6273 -0.4370
   15CHL1  H21C 1091   5.447   0.024   9.043 -1.0481  0.7202  0.2529
   15CHL1   C22 1092   5.522   0.278   9.072 -0.3986  0.2676  0.9617
   15CHL1  H22A 1093   5.514   0.378   9.118 -1.6872  0.7661 -0.3092
   15CHL1  H22B 1094   5.614   0.266   9.011 -0.3032 -1.1467  1.3545
   15CHL1   C23 1095   5.399   0.279   8.977 -0.0179  0.3901 -0.1154
   15CHL1  H23A 1096   5.399   0.189   8.912  0.2025 -0.0073  0.4217
   15CHL1  H23B 1097   5.313   0.275   9.048 -1.0056 -2.0484 -1.3702
   15CHL1   C24 1098   5.395   0.405   8.895 -0.4165 -0.3708  0.1529
   15CHL1  H24A 1099   5.300   0.419   8.840  0.5457  1.0270 -1.2243
   15CHL1  H24B 1100   5.409   0.495   8.959 -1.2065  0.1861 -0.4523
   15CHL1   C25 1101   5.498   0.406   8.783  0.8795  0.1597 -0.0546
   15CHL1   H25 1102   5.594   0.370   8.824 -0.6644 -1.7211  2.0454
   15CHL1   C26 1103   5.457   0.318   8.658  0.1859  0.5348 -0.2012
   15CHL1  H26A 1104   5.531   0.313   8.576  0.7272  1.3102  0.2312
   15CHL1  H26B 1105   5.458   0.211   8.688 -1.4167  0.1449 -1.4828
   15CHL1  H26C 1106   5.352   0.327   8.623  0.5829  1.6370 -1.1225
   15CHL1   C27 1107   5.511   0.545   8.740  0.1563 -0.3681 -0.7797
   15CHL1  H27A 1108   5.537   0.613   8.824 -1.4105  0.4266 -0.9093
   15CHL1  H27B 1109   5.579   0.567   8.655 -0.3711  2.3453 -0.5304
   15CHL1  H27C 1110   5.417   0.578   8.691  0.3383  1.2228 -0.0648
   16CHL1    C3 1111   6.551   0.501  10.227 -0.7428  1.1962 -0.0616
   16CHL1    H3 1112   6.584   0.604  10.202  3.0493  0.2065  0.5895
   16CHL1    O3 1113   6.593   0.468  10.360  0.2157 -0.0777  0.3002
   16CHL1   H3' 1114   6.534   0.401  10.393  0.2304 -0.9981 -1.4910
   16CHL1    C4 1115   6.400   0.475  10.210  0.2205  0.0723  0.3957
   16CHL1   H4A 1116   6.378   0.367  10.220 -0.9749  0.3208  0.5211
   16CHL1   H4B 1117   6.334   0.522  10.286 -0.4152 -0.7239  0.3427
   16CHL1    C5 1118   6.360   0.519  10.068  0.0695  0.4201 -0.1713
   16CHL1    C6 1119   6.274   0.620  10.045  0.3643  1.0227  0.2419
   16CHL1    H6 1120   6.234   0.678  10.130 -0.1240  2.0979 -0.6976
   16CHL1    C7 1121   6.215   0.641   9.910 -0.6097 -0.2060 -0.3378
   16CHL1   H7A 1122   6.104   0.637   9.913 -0.6348  1.5801  2.6854
   16CHL1   H7B 1123   6.246   0.742   9.878 -0.6587 -0.3434 -0.8295
   16CHL1    C8 1124   6.266   0.540   9.797  0.1989 -0.5771  0.0939
   16CHL1    H8 1125   6.202   0.450   9.810 -1.1660  0.5035  1.1307
   16CHL1   C14 1126   6.254   0.597   9.657 -0.3159 -0.1164  0.7523
   16CHL1   H14 1127   6.313   0.691   9.662 -3.1312  1.8291 -1.0543
   16CHL1   C15 1128   6.117   0.647   9.618 -0.1505 -0.1976 -0.0902
   16CHL1  H15A 1129   6.029   0.590   9.654  0.6016 -0.9910  0.5093
   16CHL1  H15B 1130   6.104   0.753   9.647 -3.4301  0.3642 -3.2380
   16CHL1   C16 1131   6.109   0.635   9.459  0.0885  0.3510 -0.4070
   16CHL1  H16A 1132   6.032   0.557   9.443 -0.6323  0.3945  2.5396
   16CHL1  H16B 1133   6.073   0.735   9.424  1.3158  1.1036  0.4299
   16CHL1   C17 1134   6.255   0.590   9.420 -0.3560  0.5350 -0.3337
   16CHL1   H17 1135   6.307   0.688   9.417 -0.8549  0.7664 -1.3675
   16CHL1   C13 1136   6.301   0.507   9.542 -0.0109  0.2205  0.3525
   16CHL1   C18 1137   6.229   0.379   9.545 -0.4053 -0.0555  0.6041
   16CHL1  H18A 1138   6.256   0.311   9.460  1.2085  3.6655 -1.9810
   16CHL1  H18B 1139   6.249   0.325   9.640 -0.3893  2.8886  2.3084
   16CHL1  H18C 1140   6.118   0.391   9.537 -0.2864  0.4868 -0.3110
   16CHL1   C12 1141   6.454   0.484   9.563  0.0634 -0.3565  0.5868
   16CHL1  H12A 1142   6.491   0.426   9.476  1.3455 -1.2790  1.7398
   16CHL1  H12B 1143   6.506   0.582   9.568 -1.4472  0.5829 -1.1287
   16CHL1   C11 1144   6.474   0.417   9.698  0.2974  0.3359  0.3378
   16CHL1  H11A 1145   6.434   0.313   9.698 -1.8945  1.1394 -1.6271
   16CHL1  H11B 1146   6.583   0.410   9.720  0.4223 -1.1903 -0.6640
   16CHL1    C9 1147   6.414   0.504   9.818 -0.1230  0.0917  0.3750
   16CHL1    H9 1148   6.469   0.601   9.814 -1.0530  0.7451  2.7554
   16CHL1   C10 1149   6.435   0.440   9.960  0.2964 -0.3172  0.4548
   16CHL1   C19 1150   6.382   0.292   9.958  0.2578 -0.2955  0.3970
   16CHL1  H19A 1151   6.461   0.231   9.911 -0.5905 -0.8501 -0.3166
   16CHL1  H19B 1152   6.355   0.245  10.055 -1.0911  0.5905  0.4647
   16CHL1  H19C 1153   6.296   0.295   9.888  1.3657  1.2031 -0.9194
   16CHL1    C1 1154   6.589   0.436   9.993 -0.0320  0.4839  0.1575
   16CHL1   H1A 1155   6.625   0.353   9.928  2.4968  1.6235  0.0696
   16CHL1   H1B 1156   6.641   0.529   9.961  1.6804 -0.3658  0.4099
   16CHL1    C2 1157   6.622   0.403  10.133  0.2828 -0.5114 -0.3323
   16CHL1   H2A 1158   6.732   0.414  10.145  0.4278 -0.5917 -1.5390
   16CHL1   H2B 1159   6.586   0.301  10.157 -1.6246  0.4193  1.0205
   16CHL1   C20 1160   6.274   0.533   9.281 -0.6900  0.4843 -0.6050
   16CHL1   H20 1161   6.259   0.423   9.273  3.4028 -0.1572 -0.4764
   16CHL1   C21 1162   6.424   0.566   9.232 -0.2850  0.0569  0.0051
   16CHL1  H21A 1163   6.508   0.532   9.297 -0.1605 -0.1730 -0.2777
   16CHL1  H21B 1164   6.435   0.674   9.207  0.0985  0.0084 -0.0386
   16CHL1  H21C 1165   6.445   0.516   9.135 -0.3029 -1.3544  0.7173
   16CHL1   C22 1166   6.172   0.578   9.177  0.4159 -0.4430  0.0179
   16CHL1  H22A 1167   6.070   0.554   9.214  0.1897 -1.0611 -0.9780
   16CHL1  H22B 1168   6.171   0.688   9.169  0.1543 -0.1620  3.1997
   16CHL1   C23 1169   6.180   0.518   9.038  0.2201  0.1222  0.7787
   16CHL1  H23A 1170   6.101   0.565   8.976 -0.7296 -3.0307 -0.4984
   16CHL1  H23B 1171   6.271   0.556   8.988 -1.4548  3.2367 -0.0558
   16CHL1   C24 1172   6.162   0.362   9.035  0.4274 -0.2411  0.2995
   16CHL1  H24A 1173   6.259   0.327   9.075  0.0800 -0.7453  0.7200
   16CHL1  H24B 1174   6.086   0.326   9.109 -1.2400 -0.0738 -1.2867
   16CHL1   C25 1175   6.136   0.304   8.899 -0.8674  0.4616  0.2770
   16CHL1   H25 1176   6.133   0.193   8.899 -1.1916  0.4639  0.8807
   16CHL1   C26 1177   5.996   0.339   8.841  0.2032  0.6233 -0.6484
   16CHL1  H26A 1178   5.981   0.286   8.745  0.6757 -0.5033 -0.1107
   16CHL1  H26B 1179   5.907   0.311   8.900  0.9993 -0.8512 -0.0943
   16CHL1  H26C 1180   5.995   0.449   8.825 -0.1759  0.9560  1.5076
   16CHL1   C27 1181   6.246   0.348   8.805 -0.1095 -0.6235  0.1170
   16CHL1  H27A 1182   6.251   0.458   8.792  1.7838 -0.7167 -0.1226
   16CHL1  H27B 1183   6.344   0.308   8.841 -0.0816 -2.0035 -1.4409
   16CHL1  H27C 1184   6.236   0.298   8.707 -2.1678  1.0988 -0.5870
   17CHL1    C3 1185   1.746   4.545  10.362 -0.1729 -0.6915  0.3270
   17CHL1    H3 1186   1.678   4.633  10.370  0.2269 -0.4582  1.3338
   17CHL1    O3 1187   1.767   4.497  10.494 -0.4443 -0.3651  0.0763
   17CHL1   H3' 1188   1.688   4.490  10.547  0.4766 -1.3666  1.3430
   17CHL1    C4 1189   1.695   4.438  10.265  0.7113  0.6017 -0.5213
   17CHL1   H4A 1190   1.756   4.345  10.260  0.6076  0.4902  0.2554
   17CHL1   H4B 1191   1.595   4.405  10.300  1.7921 -1.3574  0.8204
   17CHL1    C5 1192   1.681   4.493  10.124  0.1373  0.7453  0.7031
   17CHL1    C6 1193   1.567   4.494  10.057 -0.0274 -0.2155  0.2403
   17CHL1    H6 1194   1.478   4.453  10.106 -0.8391  0.6126 -0.5239
   17CHL1    C7 1195   1.566   4.544   9.917 -0.4369 -0.1709  0.0898
   17CHL1   H7A 1196   1.495   4.487   9.853 -1.0072  1.2977 -0.6341
   17CHL1   H7B 1197   1.516   4.644   9.918  1.2323  0.6896 -0.7994
   17CHL1    C8 1198   1.700   4.549   9.844 -0.2898 -0.3695 -0.3658
   17CHL1    H8 1199   1.742   4.448   9.827  0.8055  0.3328 -2.0953
   17CHL1   C14 1200   1.679   4.620   9.713  0.2237  0.8031 -1.2468
   17CHL1   H14 1201   1.648   4.723   9.742  0.4282  0.1038  1.6129
   17CHL1   C15 1202   1.575   4.568   9.623  0.5492  0.1812 -0.1208
   17CHL1  H15A 1203   1.602   4.462   9.605  2.4979  0.6025  0.2033
   17CHL1  H15B 1204   1.473   4.595   9.656  1.5023  1.3903  1.9497
   17CHL1   C16 1205   1.597   4.639   9.482  0.2929  0.5153 -0.4349
   17CHL1  H16A 1206   1.614   4.561   9.404  2.9341  1.1000 -0.5000
   17CHL1  H16B 1207   1.513   4.704   9.451 -0.6511 -0.3041  0.3680
   17CHL1   C17 1208   1.722   4.724   9.509 -0.5659  0.3182  0.4134
   17CHL1   H17 1209   1.683   4.821   9.547  0.5315  1.2750 -0.8604
   17CHL1   C13 1210   1.793   4.655   9.634 -0.4911 -0.0307  0.3264
   17CHL1   C18 1211   1.870   4.521   9.596 -0.1964 -0.2955 -0.2277
   17CHL1  H18A 1212   1.910   4.469   9.686  1.1100  0.4480 -0.3572
   17CHL1  H18B 1213   1.808   4.447   9.541 -1.0447  0.7117 -0.6266
   17CHL1  H18C 1214   1.960   4.553   9.539  0.1391 -1.3702 -0.3267
   17CHL1   C12 1215   1.888   4.739   9.723  0.2607 -0.4210  0.7691
   17CHL1  H12A 1216   1.982   4.767   9.670 -1.6866  1.9890 -1.5838
   17CHL1  H12B 1217   1.839   4.837   9.738 -0.4695 -1.1161  3.0580
   17CHL1   C11 1218   1.923   4.675   9.858 -0.4949  0.1015  0.0668
   17CHL1  H11A 1219   2.000   4.597   9.842 -0.2184  0.1512  1.1334
   17CHL1  H11B 1220   1.965   4.748   9.930  0.0960 -0.8622  0.7114
   17CHL1    C9 1221   1.791   4.624   9.930  0.1897 -0.0208  0.2324
   17CHL1    H9 1222   1.734   4.715   9.956  1.0247  0.7896 -0.7421
   17CHL1   C10 1223   1.816   4.545  10.062 -0.6206  0.6148 -0.4860
   17CHL1   C19 1224   1.900   4.416  10.043  0.7338  0.2677  0.3922
   17CHL1  H19A 1225   1.938   4.362  10.132  1.1388  1.9496  1.2611
   17CHL1  H19B 1226   1.845   4.338   9.986  1.0126  0.8006 -0.6141
   17CHL1  H19C 1227   1.991   4.446   9.986  1.4265 -0.5895  1.0305
   17CHL1    C1 1228   1.886   4.637  10.165  0.4914  0.4921 -0.5170
   17CHL1   H1A 1229   1.993   4.649  10.140  0.5599  0.2843 -0.3293
   17CHL1   H1B 1230   1.829   4.732  10.166  2.7708  1.8889  0.1005
   17CHL1    C2 1231   1.880   4.587  10.312 -0.0262  0.0339  0.1096
   17CHL1   H2A 1232   1.922   4.670  10.372 -0.5460 -0.0487  0.5923
   17CHL1   H2B 1233   1.950   4.500  10.319  2.0581  1.8287  2.5412
   17CHL1   C20 1234   1.809   4.763   9.392 -0.0963  0.2620 -0.3735
   17CHL1   H20 1235   1.905   4.810   9.423 -1.2143  2.9366 -0.8205
   17CHL1   C21 1236   1.722   4.874   9.327 -0.1502 -0.5550  0.3190
   17CHL1  H21A 1237   1.721   4.974   9.376  1.0935  0.3068 -1.3586
   17CHL1  H21B 1238   1.617   4.844   9.308 -0.0522  0.3740 -1.7578
   17CHL1  H21C 1239   1.770   4.890   9.228  1.1836 -0.0280  1.0352
   17CHL1   C22 1240   1.851   4.653   9.289  0.2933  0.1652 -0.7466
   17CHL1  H22A 1241   1.904   4.570   9.340  0.9939  1.2651  0.3597
   17CHL1  H22B 1242   1.761   4.614   9.238 -0.8160  0.3040  1.0943
   17CHL1   C23 1243   1.957   4.704   9.182 -0.3850 -0.5410 -0.5734
   17CHL1  H23A 1244   1.898   4.773   9.118 -0.8385 -1.8451 -1.5772
   17CHL1  H23B 1245   2.038   4.768   9.223 -0.7726 -0.6979  0.4701
   17CHL1   C24 1246   2.013   4.589   9.102  0.2690  0.0226 -0.2719
   17CHL1  H24A 1247   2.067   4.626   9.012 -0.2753  2.4284  0.3546
   17CHL1  H24B 1248   2.075   4.527   9.170 -0.7506 -2.2859 -1.3978
   17CHL1   C25 1249   1.913   4.487   9.047  0.0354  0.8096  0.8081
   17CHL1   H25 1250   1.855   4.448   9.133 -0.8276 -0.1232 -0.1820
   17CHL1   C26 1251   1.807   4.558   8.955  0.1592  0.3221  0.4059
   17CHL1  H26A 1252   1.759   4.651   8.990 -0.7167  0.8793 -2.1254
   17CHL1  H26B 1253   1.851   4.578   8.854  1.1200  2.1784  1.1679
   17CHL1  H26C 1254   1.721   4.493   8.930 -1.2369  2.4007 -0.3874
   17CHL1   C27 1255   1.992   4.365   8.988 -0.0771  0.5150  0.6047
   17CHL1  H27A 1256   2.080   4.340   9.051  0.9153 -0.2604 -1.0510
   17CHL1  H27B 1257   1.931   4.272   8.984 -1.5106  1.4417  0.7086
   17CHL1  H27C 1258   2.038   4.392   8.890  0.0685  0.7652  0.7419
   18CHL1    C3 1259   1.136   3.026  10.159  0.1801 -0.3886  0.1656
   18CHL1    H3 1260   1.243   3.008  10.135  0.4375  1.1280  0.0839
   18CHL1    O3 1261   1.115   3.037  10.303 -0.0333 -0.2540  0.2523
   18CHL1   H3' 1262   1.021   3.024  10.314 -0.7628  4.0151 -0.0443
   18CHL1    C4 1263   1.087   3.159  10.095 -0.3951  1.1031  0.3343
   18CHL1   H4A 1264   0.989   3.189  10.139 -1.5295 -0.1116 -1.3146
   18CHL1   H4B 1265   1.161   3.237  10.123 -0.3089  1.4635 -0.8654
   18CHL1    C5 1266   1.076   3.158   9.943  0.3982 -0.6716 -0.2983
   18CHL1    C6 1267   1.165   3.225   9.865  0.6587 -0.2057 -0.2992
   18CHL1    H6 1268   1.233   3.301   9.906  0.9273 -1.7760  2.2469
   18CHL1    C7 1269   1.161   3.228   9.713  0.5264 -0.4420 -0.0148
   18CHL1   H7A 1270   1.189   3.331   9.683 -0.6108 -0.5763 -1.5835
   18CHL1   H7B 1271   1.240   3.157   9.682 -0.5396 -1.7280  0.1363
   18CHL1    C8 1272   1.032   3.161   9.662 -0.6155 -0.3966  0.0416
   18CHL1    H8 1273   0.952   3.237   9.675  0.1638  0.7731 -1.7785
   18CHL1   C14 1274   1.044   3.121   9.514  0.0750 -0.6925 -0.2256
   18CHL1   H14 1275   1.113   3.034   9.517  2.8854  1.5025  2.3617
   18CHL1   C15 1276   1.104   3.231   9.417 -0.1017  0.2259  0.7081
   18CHL1  H15A 1277   1.046   3.325   9.431  1.5598  2.0380 -3.6662
   18CHL1  H15B 1278   1.211   3.257   9.428  0.2154 -0.5684 -0.4609
   18CHL1   C16 1279   1.082   3.171   9.277  0.9854  0.4210  0.1850
   18CHL1  H16A 1280   1.051   3.239   9.195 -1.2885  0.1748  0.7935
   18CHL1  H16B 1281   1.175   3.115   9.254 -0.4979 -1.6163 -1.1198
   18CHL1   C17 1282   0.978   3.050   9.293  0.2269  0.3142 -0.1581
   18CHL1   H17 1283   1.037   2.956   9.300 -0.2846  0.1342  2.4386
   18CHL1   C13 1284   0.920   3.072   9.436  0.3703  0.4028 -0.5538
   18CHL1   C18 1285   0.805   3.177   9.435 -0.1125 -0.0039  0.1591
   18CHL1  H18A 1286   0.717   3.112   9.417 -1.9161  1.4632  3.3004
   18CHL1  H18B 1287   0.784   3.238   9.526 -0.0703 -2.7563  2.0750
   18CHL1  H18C 1288   0.817   3.255   9.357 -1.0083 -2.4096 -2.4761
   18CHL1   C12 1289   0.886   2.946   9.521  0.5545 -0.1002  0.2144
   18CHL1  H12A 1290   0.791   2.904   9.481 -0.8338  2.8855  0.1510
   18CHL1  H12B 1291   0.969   2.873   9.510  2.5963  2.4019 -1.5723
   18CHL1   C11 1292   0.866   2.974   9.667 -0.3897 -0.1205 -0.2356
   18CHL1  H11A 1293   0.792   3.057   9.675 -0.6814 -0.3312 -0.6959
   18CHL1  H11B 1294   0.831   2.880   9.715  2.1993 -1.0624 -0.1420
   18CHL1    C9 1295   0.995   3.039   9.734 -0.1546  1.2789 -0.6795
   18CHL1    H9 1296   1.073   2.963   9.714  0.0950  1.0599  1.0462
   18CHL1   C10 1297   0.980   3.057   9.890 -0.1612  0.4225 -0.2152
   18CHL1   C19 1298   0.838   3.105   9.926 -0.1064 -0.3005 -0.4088
   18CHL1  H19A 1299   0.825   3.094  10.036 -1.1091  0.3680 -0.4648
   18CHL1  H19B 1300   0.823   3.212   9.902  2.6117  0.7783  2.2240
   18CHL1  H19C 1301   0.756   3.039   9.891 -1.1680  0.9942 -0.3448
   18CHL1    C1 1302   1.007   2.918   9.956  0.0817 -0.2391  0.2908
   18CHL1   H1A 1303   0.933   2.842   9.924 -0.8131  0.5091  0.5552
   18CHL1   H1B 1304   1.106   2.884   9.918  1.4480  0.9996  2.6251
   18CHL1    C2 1305   1.038   2.918  10.108  0.0869  0.6411 -0.3205
   18CHL1   H2A 1306   1.074   2.820  10.144 -0.8707  0.8699  1.3229
   18CHL1   H2B 1307   0.941   2.933  10.160  0.2748 -1.0526  0.5427
   18CHL1   C20 1308   0.878   3.040   9.180 -0.1547 -0.2555 -0.5674
   18CHL1   H20 1309   0.817   3.132   9.170 -3.0214 -1.7099  2.6163
   18CHL1   C21 1310   0.778   2.924   9.194 -0.1019  0.0977 -0.0730
   18CHL1  H21A 1311   0.710   2.956   9.276  1.3671 -0.2066  1.2838
   18CHL1  H21B 1312   0.830   2.829   9.218  2.4231  1.6569  0.7322
   18CHL1  H21C 1313   0.711   2.895   9.110 -3.3715 -2.8369  3.3204
   18CHL1   C22 1314   0.951   3.030   9.042  1.1059 -0.3418  0.5554
   18CHL1  H22A 1315   0.989   3.131   9.015 -0.6522  0.0854 -0.4062
   18CHL1  H22B 1316   1.040   2.964   9.047  1.2356 -0.0344  3.2617
   18CHL1   C23 1317   0.879   2.989   8.914  0.0985  0.3853 -0.3395
   18CHL1  H23A 1318   0.899   2.881   8.905  4.6905  1.2173 -1.4406
   18CHL1  H23B 1319   0.772   3.018   8.916 -0.0752 -0.2807  0.5280
   18CHL1   C24 1320   0.950   3.033   8.786  0.1563 -0.6334 -0.8800
   18CHL1  H24A 1321   0.987   3.137   8.777  2.7715 -1.4424  0.1852
   18CHL1  H24B 1322   1.042   2.971   8.781  0.2223 -0.6432  0.2529
   18CHL1   C25 1323   0.871   3.020   8.654 -0.0371  0.8207 -0.7031
   18CHL1   H25 1324   0.812   2.925   8.655  0.8848  0.2199  2.1271
   18CHL1   C26 1325   0.767   3.127   8.613 -0.1988  0.0578 -0.4294
   18CHL1  H26A 1326   0.811   3.229   8.609  0.5836 -0.1718  1.6775
   18CHL1  H26B 1327   0.722   3.100   8.515 -0.7951  2.6798 -0.8901
   18CHL1  H26C 1328   0.689   3.134   8.692  0.8762  0.6834  0.6064
   18CHL1   C27 1329   0.980   3.008   8.540  0.1511 -0.4610 -0.5426
   18CHL1  H27A 1330   0.949   2.959   8.445 -2.4982  1.9406 -0.9673
   18CHL1  H27B 1331   1.005   3.113   8.513 -1.0950 -0.1136 -0.4136
   18CHL1  H27C 1332   1.072   2.952   8.567  0.7712  1.7094  2.0130
   19CHL1    C3 1333   4.761   6.118  10.153 -1.0268  0.2656 -0.5153
   19CHL1    H3 1334   4.672   6.080  10.100  0.6596 -0.5458 -2.8421
   19CHL1    O3 1335   4.716   6.138  10.288  0.0929 -0.3359 -0.3300
   19CHL1   H3' 1336   4.788   6.097  10.337 -0.3489  0.7024  1.2088
   19CHL1    C4 1337   4.873   6.018  10.162 -0.4874  1.0315  0.5194
   19CHL1   H4A 1338   4.950   6.046  10.238  1.5650  0.3961 -1.2881
   19CHL1   H4B 1339   4.820   5.928  10.200 -1.2087  1.3245  0.2081
   19CHL1    C5 1340   4.934   5.996  10.023 -0.1472 -0.4846  0.8059
   19CHL1    C6 1341   4.940   5.876   9.972  0.2909  0.0703 -0.0407
   19CHL1    H6 1342   4.919   5.784  10.029 -3.6410  0.4652 -0.7121
   19CHL1    C7 1343   5.010   5.852   9.839 -0.0243 -0.2785 -0.0870
   19CHL1   H7A 1344   5.080   5.767   9.849 -0.7199 -0.8719 -0.1630
   19CHL1   H7B 1345   4.935   5.826   9.761  1.6811  0.8835 -2.1390
   19CHL1    C8 1346   5.093   5.963   9.783  0.5023  0.2904  0.6906
   19CHL1    H8 1347   5.186   5.975   9.843 -0.3330  1.7537  1.7209
   19CHL1   C14 1348   5.119   5.943   9.627  0.2488  0.0684  0.0758
   19CHL1   H14 1349   5.017   5.942   9.583 -0.0872  0.3898  0.8436
   19CHL1   C15 1350   5.171   5.809   9.570  0.8972 -0.2436  0.3111
   19CHL1  H15A 1351   5.260   5.784   9.633  2.0221  1.3038 -0.6413
   19CHL1  H15B 1352   5.082   5.742   9.575  1.8650 -1.4755  1.5012
   19CHL1   C16 1353   5.213   5.843   9.423 -0.5069  0.0604  0.4885
   19CHL1  H16A 1354   5.318   5.819   9.394 -1.3618 -1.6664 -1.2455
   19CHL1  H16B 1355   5.159   5.783   9.347 -1.1967  1.9552 -0.5467
   19CHL1   C17 1356   5.196   6.000   9.412  0.1031 -1.3354 -0.1438
   19CHL1   H17 1357   5.093   6.017   9.374  0.2930 -0.8004 -0.4300
   19CHL1   C13 1358   5.193   6.056   9.557 -0.3441  0.9610  0.4047
   19CHL1   C18 1359   5.340   6.064   9.614  0.2733 -0.3116 -0.7983
   19CHL1  H18A 1360   5.396   6.159   9.597  0.0677 -0.0831 -0.2244
   19CHL1  H18B 1361   5.338   6.065   9.725  1.8739  1.3061 -0.7488
   19CHL1  H18C 1362   5.402   5.974   9.596 -0.4335 -0.5277 -2.2222
   19CHL1   C12 1363   5.116   6.186   9.579 -0.3613  0.2821  0.0483
   19CHL1  H12A 1364   5.154   6.275   9.524  0.7585 -1.2101 -1.6494
   19CHL1  H12B 1365   5.023   6.180   9.518 -0.7432  1.9149  0.4425
   19CHL1   C11 1366   5.088   6.217   9.733  0.3295  0.1279  0.5871
   19CHL1  H11A 1367   5.181   6.241   9.788  2.8259 -0.8229 -3.0060
   19CHL1  H11B 1368   5.033   6.313   9.736  2.5689  1.4261  1.1741
   19CHL1    C9 1369   5.014   6.097   9.802 -0.6354  0.2201  0.5529
   19CHL1    H9 1370   4.920   6.071   9.749  1.6255 -0.6693 -3.1604
   19CHL1   C10 1371   4.972   6.125   9.944 -0.6278  0.2596 -0.1490
   19CHL1   C19 1372   5.092   6.183  10.031 -0.4568  0.3394 -0.5204
   19CHL1  H19A 1373   5.181   6.116  10.041 -0.2153  0.9432  1.6639
   19CHL1  H19B 1374   5.132   6.277   9.987 -2.7670  0.5494 -2.2529
   19CHL1  H19C 1375   5.057   6.203  10.135  2.3215  0.8509  0.3661
   19CHL1    C1 1376   4.854   6.227   9.949 -0.0611  0.1298  0.5095
   19CHL1   H1A 1377   4.885   6.327   9.912 -2.0509  1.0418  1.2215
   19CHL1   H1B 1378   4.777   6.196   9.875  0.4366 -0.9749  0.4523
   19CHL1    C2 1379   4.800   6.249  10.086 -0.4553  0.2824  1.0670
   19CHL1   H2A 1380   4.714   6.318  10.090 -2.4730 -2.2456  2.5130
   19CHL1   H2B 1381   4.878   6.304  10.144  2.2008 -2.8375  0.5788
   19CHL1   C20 1382   5.285   6.068   9.301 -0.6574 -0.4823  0.3476
   19CHL1   H20 1383   5.393   6.062   9.324 -0.0355  0.4809 -2.1560
   19CHL1   C21 1384   5.241   6.217   9.274 -0.1200  0.9311  0.0696
   19CHL1  H21A 1385   5.131   6.232   9.270 -0.2308  0.3985  0.9002
   19CHL1  H21B 1386   5.276   6.245   9.173 -0.8985 -0.4252 -0.5904
   19CHL1  H21C 1387   5.285   6.283   9.352  3.0900 -0.8360 -0.1481
   19CHL1   C22 1388   5.283   5.994   9.159 -0.2049  0.0905 -0.1589
   19CHL1  H22A 1389   5.339   6.055   9.085 -0.1012  2.1286  1.5488
   19CHL1  H22B 1390   5.338   5.899   9.173  0.7611  0.2690 -2.5200
   19CHL1   C23 1391   5.142   5.975   9.105  0.1773 -0.1363  0.0474
   19CHL1  H23A 1392   5.084   5.904   9.169  0.8385  0.0806  0.8936
   19CHL1  H23B 1393   5.087   6.072   9.098  1.2207  0.4516 -0.0147
   19CHL1   C24 1394   5.137   5.919   8.968  0.0525 -0.0546  0.5548
   19CHL1  H24A 1395   5.181   5.997   8.902  2.8330 -0.4416  1.8634
   19CHL1  H24B 1396   5.199   5.828   8.966  0.9557  0.5669  0.0687
   19CHL1   C25 1397   4.996   5.866   8.935  0.7242  0.1714  0.7335
   19CHL1   H25 1398   4.936   5.955   8.964  0.2646 -0.1001  0.6133
   19CHL1   C26 1399   4.980   5.844   8.781  0.1676 -0.5631  0.0373
   19CHL1  H26A 1400   5.024   5.938   8.741  0.6095 -0.2618  1.2352
   19CHL1  H26B 1401   5.045   5.757   8.755  1.1296  0.5521 -1.3862
   19CHL1  H26C 1402   4.877   5.822   8.747 -0.5994  0.5969  1.6000
   19CHL1   C27 1403   4.946   5.742   9.012  0.9877  0.5815  0.2864
   19CHL1  H27A 1404   4.837   5.736   8.992  0.8601  1.5592  0.6649
   19CHL1  H27B 1405   4.982   5.643   8.977 -1.5235 -0.7862  1.4257
   19CHL1  H27C 1406   4.963   5.744   9.122  2.3498  0.2643  0.0887
   20CHL1    C3 1407   0.744   0.858  10.420  0.9443 -0.0065 -0.5307
   20CHL1    H3 1408   0.777   0.963  10.400  0.7513  0.4868  1.6136
   20CHL1    O3 1409   0.765   0.827  10.556  0.5160  0.4749  0.1053
   20CHL1   H3' 1410   0.830   0.756  10.558  0.8851  0.8229  0.5634
   20CHL1    C4 1411   0.592   0.848  10.385  0.1913  0.2937 -0.0909
   20CHL1   H4A 1412   0.572   0.741  10.406 -0.3193  0.2309 -0.8647
   20CHL1   H4B 1413   0.540   0.910  10.460  0.3885  0.5340 -0.1526
   20CHL1    C5 1414   0.576   0.876  10.239 -0.5673 -0.7870  0.4039
   20CHL1    C6 1415   0.487   0.973  10.210 -0.8479 -0.2561 -0.4244
   20CHL1    H6 1416   0.422   1.022  10.284  0.8491  0.9437  0.3046
   20CHL1    C7 1417   0.460   1.007  10.066 -0.1818 -0.0038 -0.0205
   20CHL1   H7A 1418   0.356   1.035  10.037 -1.1805 -3.1606  0.3442
   20CHL1   H7B 1419   0.502   1.109  10.047  3.6268 -1.7819 -1.7197
   20CHL1    C8 1420   0.518   0.912   9.961  0.1785 -0.3879 -0.0728
   20CHL1    H8 1421   0.443   0.830   9.960 -0.8580  0.5370  0.8342
   20CHL1   C14 1422   0.534   0.984   9.825  0.0454  0.1557 -0.4746
   20CHL1   H14 1423   0.620   1.054   9.825  0.7353 -0.5985 -3.0658
   20CHL1   C15 1424   0.431   1.074   9.770 -0.0472 -0.9402  0.2470
   20CHL1  H15A 1425   0.328   1.035   9.783 -0.1499 -1.4971 -2.0201
   20CHL1  H15B 1426   0.436   1.169   9.827 -1.0165 -0.9116  0.2888
   20CHL1   C16 1427   0.468   1.092   9.621  0.1269 -0.3065 -0.0194
   20CHL1  H16A 1428   0.372   1.055   9.579  0.7008 -0.2155 -1.4297
   20CHL1  H16B 1429   0.492   1.192   9.579  1.7869 -0.8297 -0.3401
   20CHL1   C17 1430   0.574   0.985   9.588  0.6413 -0.1475  0.1343
   20CHL1   H17 1431   0.671   1.039   9.601 -0.0428  0.8738  1.0931
   20CHL1   C13 1432   0.579   0.890   9.708  0.1162  0.7818 -0.1493
   20CHL1   C18 1433   0.466   0.785   9.680 -0.2003 -0.2662  0.6273
   20CHL1  H18A 1434   0.458   0.728   9.775 -0.9354  0.2264  0.8629
   20CHL1  H18B 1435   0.367   0.836   9.672  0.4587  1.1044  1.0147
   20CHL1  H18C 1436   0.490   0.725   9.589  0.0065  0.4999  0.1719
   20CHL1   C12 1437   0.711   0.824   9.745  0.1658 -0.2117  0.2719
   20CHL1  H12A 1438   0.739   0.750   9.666  2.6906  0.2754  0.6666
   20CHL1  H12B 1439   0.797   0.894   9.746  0.5511 -0.6795  0.7812
   20CHL1   C11 1440   0.721   0.768   9.889 -0.6195 -0.4382 -0.6878
   20CHL1  H11A 1441   0.654   0.680   9.889  0.1940 -1.0637  0.1997
   20CHL1  H11B 1442   0.819   0.724   9.919 -0.7489 -0.3131 -0.0693
   20CHL1    C9 1443   0.660   0.860   9.996  0.2875 -0.5605  0.2937
   20CHL1    H9 1444   0.720   0.954   9.997 -0.8467  0.1665  0.5969
   20CHL1   C10 1445   0.663   0.799  10.138  0.0690 -0.2454  0.1253
   20CHL1   C19 1446   0.589   0.652  10.142 -0.1543  0.5593 -0.2126
   20CHL1  H19A 1447   0.637   0.578  10.075  0.0781  0.7945 -0.3103
   20CHL1  H19B 1448   0.600   0.623  10.248 -0.8329  1.6232  0.1642
   20CHL1  H19C 1449   0.485   0.675  10.113  0.0348  2.4485  0.5093
   20CHL1    C1 1450   0.808   0.784  10.188 -0.0557 -0.1030  0.4916
   20CHL1   H1A 1451   0.854   0.701  10.131  0.6510 -0.2860  1.3345
   20CHL1   H1B 1452   0.856   0.880  10.160  0.1472 -1.2284 -3.3174
   20CHL1    C2 1453   0.827   0.761  10.339  0.3822 -0.1095  0.5496
   20CHL1   H2A 1454   0.933   0.777  10.368  0.4397  3.1134 -1.1763
   20CHL1   H2B 1455   0.798   0.656  10.361  0.5738  0.0116  1.3982
   20CHL1   C20 1456   0.564   0.941   9.446 -0.8071  0.4332  0.8647
   20CHL1   H20 1457   0.466   0.888   9.439 -1.2081  1.3544 -0.8663
   20CHL1   C21 1458   0.682   0.844   9.415 -0.1923 -0.0729  0.2197
   20CHL1  H21A 1459   0.694   0.816   9.308 -2.0390 -2.3564  0.5532
   20CHL1  H21B 1460   0.665   0.748   9.467 -0.9368 -0.9198 -1.5250
   20CHL1  H21C 1461   0.780   0.882   9.450 -0.1110  0.5106 -0.6223
   20CHL1   C22 1462   0.572   1.057   9.345  0.2131  0.2207  0.0375
   20CHL1  H22A 1463   0.482   1.122   9.356 -0.6701 -0.9046 -0.4153
   20CHL1  H22B 1464   0.666   1.108   9.375  2.0700 -2.4304 -1.0303
   20CHL1   C23 1465   0.568   1.028   9.199  0.3351  0.1765  0.2333
   20CHL1  H23A 1466   0.635   0.950   9.156  2.4951  2.1146 -0.0368
   20CHL1  H23B 1467   0.462   1.007   9.174  0.6260  0.2074 -1.0836
   20CHL1   C24 1468   0.605   1.151   9.104  0.5827 -0.4321  0.1735
   20CHL1  H24A 1469   0.521   1.223   9.112 -0.4945 -1.7989  1.4230
   20CHL1  H24B 1470   0.686   1.204   9.159  1.6404 -1.8934  0.0448
   20CHL1   C25 1471   0.643   1.115   8.963  0.3239  0.4084  0.2060
   20CHL1   H25 1472   0.709   1.026   8.968  1.0058  0.6516 -3.3549
   20CHL1   C26 1473   0.521   1.071   8.885  0.4180  0.0009 -0.9017
   20CHL1  H26A 1474   0.462   1.164   8.868 -1.2654 -0.5398  1.6515
   20CHL1  H26B 1475   0.540   1.031   8.783  3.2118  1.3938 -0.9562
   20CHL1  H26C 1476   0.460   0.995   8.939 -0.6402  0.4181 -1.4789
   20CHL1   C27 1477   0.735   1.211   8.883  0.0165 -0.6027 -0.4373
   20CHL1  H27A 1478   0.772   1.176   8.784  1.0049 -2.7671  0.6664
   20CHL1  H27B 1479   0.699   1.315   8.866  0.6290  0.1664  2.7820
   20CHL1  H27C 1480   0.828   1.226   8.941 -0.5442 -0.9548  0.5584
   21CHL1    C3 1481   6.638   3.242  10.320 -0.3444  0.0871  0.1241
   21CHL1    H3 1482   6.731   3.194  10.281 -1.0539 -1.1464 -0.0766
   21CHL1    O3 1483   6.621   3.217  10.459  0.1555  0.2227 -0.2655
   21CHL1   H3' 1484   6.602   3.304  10.494 -0.8568 -0.0547 -0.1124
   21CHL1    C4 1485   6.666   3.392  10.309  0.0284 -0.1343  0.4657
   21CHL1   H4A 1486   6.580   3.450  10.348 -0.0920 -0.5263  0.7934
   21CHL1   H4B 1487   6.746   3.417  10.382 -1.4395  3.2210  0.9975
   21CHL1    C5 1488   6.679   3.438  10.165 -1.0398  0.1297 -0.2292
   21CHL1    C6 1489   6.796   3.496  10.133 -0.1032 -0.4859 -0.6049
   21CHL1    H6 1490   6.866   3.506  10.217  1.1725  0.4719 -1.7551
   21CHL1    C7 1491   6.843   3.541   9.994  0.5025  0.4483 -0.1327
   21CHL1   H7A 1492   6.863   3.650   9.993 -0.3698  0.6101 -1.2668
   21CHL1   H7B 1493   6.933   3.487   9.958 -0.5592 -0.2172 -1.8464
   21CHL1    C8 1494   6.728   3.520   9.891  0.4986 -0.2122  0.0820
   21CHL1    H8 1495   6.663   3.611   9.897 -2.7649 -2.5380  1.4053
   21CHL1   C14 1496   6.779   3.514   9.748 -0.8468 -0.1715  0.7653
   21CHL1   H14 1497   6.850   3.429   9.738  0.3634  0.7884  0.9847
   21CHL1   C15 1498   6.844   3.646   9.706 -0.1836 -0.2221  0.2345
   21CHL1  H15A 1499   6.799   3.743   9.737 -0.5014  0.0186 -0.9734
   21CHL1  H15B 1500   6.942   3.676   9.750 -0.4716  0.4908  0.3965
   21CHL1   C16 1501   6.849   3.641   9.557 -0.2967  0.0028  0.1387
   21CHL1  H16A 1502   6.803   3.737   9.525 -1.1957 -0.7645 -0.9288
   21CHL1  H16B 1503   6.950   3.641   9.512 -0.3174 -1.0472  0.0655
   21CHL1   C17 1504   6.767   3.518   9.516 -0.1302 -0.4136  0.2435
   21CHL1   H17 1505   6.836   3.431   9.512  0.9680  0.5068 -1.8262
   21CHL1   C13 1506   6.676   3.490   9.642 -0.1333 -0.3827  0.5964
   21CHL1   C18 1507   6.559   3.590   9.657 -0.7294 -0.1900 -0.4816
   21CHL1  H18A 1508   6.509   3.574   9.755 -3.2527 -1.4547 -1.9268
   21CHL1  H18B 1509   6.597   3.694   9.657  1.8923 -1.0624  2.2429
   21CHL1  H18C 1510   6.482   3.581   9.578 -0.9240 -0.7520 -0.2388
   21CHL1   C12 1511   6.631   3.343   9.664  0.5122 -0.0513  0.6598
   21CHL1  H12A 1512   6.555   3.309   9.590 -2.2740  0.0607  3.3928
   21CHL1  H12B 1513   6.714   3.269   9.663  1.1300  0.5804 -2.6789
   21CHL1   C11 1514   6.558   3.343   9.804 -0.2135  0.1952  0.1337
   21CHL1  H11A 1515   6.457   3.390   9.801 -0.2794 -0.0684 -2.9167
   21CHL1  H11B 1516   6.528   3.238   9.825 -2.7722  1.0825  1.1607
   21CHL1    C9 1517   6.650   3.390   9.926 -0.2569  0.0214  0.0412
   21CHL1    H9 1518   6.727   3.310   9.934 -0.0455  0.4416  2.7778
   21CHL1   C10 1519   6.578   3.383  10.067  0.1087  1.1997  0.5419
   21CHL1   C19 1520   6.459   3.476  10.064 -0.6300 -0.0610 -0.4730
   21CHL1  H19A 1521   6.388   3.444   9.984 -0.1826 -0.2616 -0.7912
   21CHL1  H19B 1522   6.418   3.494  10.165  2.0866 -0.2864  0.6982
   21CHL1  H19C 1523   6.480   3.577  10.022  0.3194 -0.1867 -0.3011
   21CHL1    C1 1524   6.550   3.230  10.095  0.6820 -0.6503 -0.1311
   21CHL1   H1A 1525   6.463   3.191  10.037 -0.0225  2.8849 -1.5743
   21CHL1   H1B 1526   6.639   3.168  10.071 -0.1696 -2.2657  0.7878
   21CHL1    C2 1527   6.515   3.202  10.241  0.1850 -0.0129  0.2325
   21CHL1   H2A 1528   6.486   3.095  10.247  2.1314 -0.5118  1.0933
   21CHL1   H2B 1529   6.428   3.262  10.276  0.2616 -0.1672  0.6941
   21CHL1   C20 1530   6.704   3.529   9.367 -0.3905  0.0422 -0.1620
   21CHL1   H20 1531   6.638   3.618   9.371  0.2714  0.6169 -1.7121
   21CHL1   C21 1532   6.624   3.399   9.345 -0.6050 -0.4978  0.2237
   21CHL1  H21A 1533   6.618   3.361   9.241  1.4222 -1.1252  0.3072
   21CHL1  H21B 1534   6.523   3.402   9.390 -1.6659  1.5464 -2.1830
   21CHL1  H21C 1535   6.681   3.316   9.392 -1.3487 -0.9247  0.3792
   21CHL1   C22 1536   6.813   3.563   9.262  0.8608  0.3985 -0.2944
   21CHL1  H22A 1537   6.846   3.666   9.289  0.2137  0.1249  1.6091
   21CHL1  H22B 1538   6.899   3.495   9.279 -0.2333 -0.9301 -0.0923
   21CHL1   C23 1539   6.766   3.556   9.112  0.2941  0.0881 -0.3032
   21CHL1  H23A 1540   6.734   3.456   9.076  0.1721 -0.3169  0.9419
   21CHL1  H23B 1541   6.681   3.623   9.090 -0.9139 -1.2386  0.2762
   21CHL1   C24 1542   6.879   3.595   9.020  0.1806  0.0819 -0.3987
   21CHL1  H24A 1543   6.882   3.706   9.013 -0.4718  0.0408 -1.4078
   21CHL1  H24B 1544   6.975   3.558   9.062 -0.1444  0.1266  0.3774
   21CHL1   C25 1545   6.862   3.554   8.876 -0.0550  0.7151  0.0239
   21CHL1   H25 1546   6.827   3.450   8.860 -2.3036  0.9889  2.7717
   21CHL1   C26 1547   6.760   3.640   8.803  0.1391 -0.6616 -0.4269
   21CHL1  H26A 1548   6.802   3.740   8.777 -1.1520 -0.4248 -1.6605
   21CHL1  H26B 1549   6.744   3.578   8.712 -0.6958 -2.1342  0.7214
   21CHL1  H26C 1550   6.660   3.649   8.849 -0.0734  1.6920 -1.2343
   21CHL1   C27 1551   6.999   3.547   8.806  0.0198 -1.3841  0.1125
   21CHL1  H27A 1552   7.062   3.477   8.866  0.3651 -0.9783  0.2253
   21CHL1  H27B 1553   6.987   3.502   8.705 -1.1659 -1.3905  0.2476
   21CHL1  H27C 1554   7.047   3.646   8.800 -1.0919 -0.7573  1.2217
   22CHL1    C3 1555   0.100   4.298  10.218  0.0948  0.1607  0.0373
   22CHL1    H3 1556   0.211   4.292  10.218  0.0741 -0.2349  0.1810
   22CHL1    O3 1557   0.073   4.324  10.359 -0.1017 -0.0609  0.1272
   22CHL1   H3' 1558   0.139   4.273  10.407  0.6862 -0.7023 -1.6169
   22CHL1    C4 1559   0.049   4.415  10.138  0.4675  0.4736 -0.4806
   22CHL1   H4A 1560  -0.059   4.407  10.162  0.3876 -0.3461 -1.1162
   22CHL1   H4B 1561   0.092   4.515  10.161  0.8832  0.5103 -1.3971
   22CHL1    C5 1562   0.065   4.386   9.988  0.4371  0.6309 -0.1415
   22CHL1    C6 1563   0.132   4.466   9.906 -0.7479  0.0329  0.1836
   22CHL1    H6 1564   0.173   4.555   9.956 -0.6198 -0.6176  1.2319
   22CHL1    C7 1565   0.140   4.449   9.756 -0.7526 -0.1360 -0.7876
   22CHL1   H7A 1566   0.102   4.533   9.696 -0.5069  1.2321  0.9210
   22CHL1   H7B 1567   0.248   4.444   9.728 -0.3273 -1.7743  0.9916
   22CHL1    C8 1568   0.053   4.328   9.701  0.2296  0.9389  0.2824
   22CHL1    H8 1569  -0.052   4.365   9.694  0.6371  2.4020  1.6136
   22CHL1   C14 1570   0.091   4.294   9.563 -0.0465 -0.0131 -0.4026
   22CHL1   H14 1571   0.197   4.259   9.572 -0.0505  0.4828  1.7588
   22CHL1   C15 1572   0.073   4.406   9.451  0.0057  0.6231 -0.0956
   22CHL1  H15A 1573  -0.029   4.448   9.463  0.4605  1.4262  1.1233
   22CHL1  H15B 1574   0.156   4.480   9.452 -1.5637  2.4634 -1.6906
   22CHL1   C16 1575   0.087   4.333   9.320 -0.6656 -0.6081 -0.2947
   22CHL1  H16A 1576  -0.001   4.363   9.258  0.8936  0.1114 -2.2147
   22CHL1  H16B 1577   0.189   4.354   9.281 -1.4593  0.3742 -1.9065
   22CHL1   C17 1578   0.075   4.178   9.351 -0.2398  0.0718 -0.9503
   22CHL1   H17 1579   0.177   4.137   9.368 -0.5128 -0.7433 -1.3057
   22CHL1   C13 1580   0.015   4.166   9.502 -0.0559 -0.2825 -0.1203
   22CHL1   C18 1581  -0.134   4.188   9.505  0.3588  0.1260  0.4888
   22CHL1  H18A 1582  -0.170   4.166   9.607 -1.8884 -1.1782 -0.5334
   22CHL1  H18B 1583  -0.170   4.288   9.472 -2.9824 -0.9581  0.6272
   22CHL1  H18C 1584  -0.181   4.120   9.430  0.9298  0.0858  0.1646
   22CHL1   C12 1585   0.060   4.047   9.588  0.0617 -0.3715 -0.2032
   22CHL1  H12A 1586   0.013   3.952   9.555 -1.7865  0.2017  0.7155
   22CHL1  H12B 1587   0.170   4.029   9.586 -0.0789 -1.6347  1.7157
   22CHL1   C11 1588   0.020   4.071   9.737 -0.2480 -0.2872  0.2372
   22CHL1  H11A 1589  -0.090   4.069   9.753 -0.2303 -2.9423  0.2199
   22CHL1  H11B 1590   0.060   3.982   9.790  1.4219 -0.4600 -1.2785
   22CHL1    C9 1591   0.066   4.211   9.793  0.0868 -0.2481 -0.3579
   22CHL1    H9 1592   0.175   4.194   9.808  0.0408  0.2230  0.6072
   22CHL1   C10 1593   0.009   4.245   9.937 -0.3918 -0.7911  0.4000
   22CHL1   C19 1594  -0.147   4.255   9.940  0.1219 -0.8677  0.6000
   22CHL1  H19A 1595  -0.192   4.288  10.036  1.8490  0.0908  1.0975
   22CHL1  H19B 1596  -0.196   4.332   9.875  0.2818 -0.9322  0.4029
   22CHL1  H19C 1597  -0.187   4.158   9.905 -1.0064 -0.3028  0.2691
   22CHL1    C1 1598   0.054   4.133  10.031  0.1475 -0.8130  0.4429
   22CHL1   H1A 1599   0.003   4.036  10.015 -0.7488 -0.1519 -0.7737
   22CHL1   H1B 1600   0.162   4.113  10.013  0.4450  0.8252  0.2319
   22CHL1    C2 1601   0.044   4.162  10.183  0.6947 -0.2112 -0.0811
   22CHL1   H2A 1602   0.108   4.080  10.223  0.8383  0.1232  0.3766
   22CHL1   H2B 1603  -0.058   4.147  10.225  0.1210  1.7505 -0.7409
   22CHL1   C20 1604   0.013   4.100   9.232  0.6488  0.2728 -0.3214
   22CHL1   H20 1605  -0.094   4.131   9.222  0.1041  0.1376  3.9422
   22CHL1   C21 1606   0.003   3.946   9.264  0.4943  0.3992  0.3879
   22CHL1  H21A 1607  -0.066   3.916   9.347 -0.4773  0.9403 -0.2180
   22CHL1  H21B 1608   0.105   3.906   9.279  0.8863  1.3660  0.2951
   22CHL1  H21C 1609  -0.031   3.900   9.169  0.6755 -1.5787  1.2335
   22CHL1   C22 1610   0.088   4.120   9.098 -0.3628  0.2274  0.0569
   22CHL1  H22A 1611   0.011   4.102   9.020 -0.5264 -0.5915  0.4035
   22CHL1  H22B 1612   0.127   4.223   9.085 -0.6205  0.2298 -0.7354
   22CHL1   C23 1613   0.211   4.019   9.075  0.1734 -0.7702  0.8334
   22CHL1  H23A 1614   0.289   4.025   9.154 -1.2596  0.1672  2.1934
   22CHL1  H23B 1615   0.159   3.922   9.066  0.4540 -0.7536 -1.2618
   22CHL1   C24 1616   0.266   4.045   8.939 -0.0169 -0.5484  0.3458
   22CHL1  H24A 1617   0.190   4.034   8.859  0.5536 -2.2410  0.0121
   22CHL1  H24B 1618   0.307   4.148   8.930 -0.1743 -0.6861 -2.3408
   22CHL1   C25 1619   0.382   3.946   8.896  0.2231  0.1940 -0.1254
   22CHL1   H25 1620   0.338   3.847   8.872  0.1229 -0.2593  1.8824
   22CHL1   C26 1621   0.466   3.987   8.772  0.3111 -0.2415  0.2423
   22CHL1  H26A 1622   0.527   4.077   8.798  2.2266 -1.2233 -0.7725
   22CHL1  H26B 1623   0.549   3.915   8.757  2.6228  2.2865  0.5324
   22CHL1  H26C 1624   0.395   3.993   8.687  0.3769  0.5049  0.2362
   22CHL1   C27 1625   0.478   3.935   9.024  1.0440 -0.3606  0.1799
   22CHL1  H27A 1626   0.481   4.037   9.066  1.2625  0.2535 -1.2779
   22CHL1  H27B 1627   0.454   3.862   9.104  1.7483 -2.0229 -1.0813
   22CHL1  H27C 1628   0.584   3.907   9.004  0.8652  0.2490 -1.7120
   23CHL1    C3 1629   3.510   5.562  10.090  0.1594 -0.0355  0.0892
   23CHL1    H3 1630   3.551   5.659  10.056 -0.6330  0.0601 -0.6092
   23CHL1    O3 1631   3.464   5.572  10.222 -0.1090 -0.2177  0.7001
   23CHL1   H3' 1632   3.376   5.534  10.230 -0.1771 -0.1893  0.1039
   23CHL1    C4 1633   3.411   5.508   9.989 -0.0996 -0.4433 -0.2683
   23CHL1   H4A 1634   3.379   5.413  10.038  0.4265 -1.3234 -1.6010
   23CHL1   H4B 1635   3.323   5.575   9.985 -1.1285 -1.7917 -0.4028
   23CHL1    C5 1636   3.474   5.483   9.852 -0.5545 -0.2529 -0.2002
   23CHL1    C6 1637   3.419   5.543   9.749  0.0974 -0.3303 -0.5231
   23CHL1    H6 1638   3.330   5.605   9.763  0.0107 -0.0853 -2.0241
   23CHL1    C7 1639   3.470   5.533   9.609 -0.6029 -0.0398  0.1068
   23CHL1   H7A 1640   3.391   5.502   9.536  1.6271  0.6580 -2.6981
   23CHL1   H7B 1641   3.515   5.631   9.585  1.6880  0.1088  4.5029
   23CHL1    C8 1642   3.577   5.422   9.596  0.0280  0.0436 -0.0396
   23CHL1    H8 1643   3.520   5.327   9.583 -0.4017  0.3938 -0.7799
   23CHL1   C14 1644   3.663   5.431   9.468  0.0633 -0.3029  0.2139
   23CHL1   H14 1645   3.724   5.524   9.478  0.5976 -0.7816  1.5135
   23CHL1   C15 1646   3.589   5.437   9.331  0.5058 -0.4960  0.8243
   23CHL1  H15A 1647   3.506   5.363   9.327 -1.3616  1.6112 -1.6713
   23CHL1  H15B 1648   3.541   5.533   9.301  1.9771 -0.7160 -2.5164
   23CHL1   C16 1649   3.690   5.401   9.221 -0.3662  0.2988 -0.2168
   23CHL1  H16A 1650   3.654   5.318   9.156 -1.4301  1.3891 -1.0463
   23CHL1  H16B 1651   3.713   5.493   9.164  0.3475 -0.5570 -1.3405
   23CHL1   C17 1652   3.809   5.366   9.306  0.2021 -0.1862  0.3611
   23CHL1   H17 1653   3.866   5.458   9.333  4.0384 -1.8278 -1.8078
   23CHL1   C13 1654   3.767   5.318   9.447 -0.0502 -0.4195  0.0160
   23CHL1   C18 1655   3.701   5.176   9.444 -0.4465 -0.0811  0.1444
   23CHL1  H18A 1656   3.636   5.156   9.531 -1.0952  0.7212 -0.1548
   23CHL1  H18B 1657   3.631   5.165   9.358  0.0786 -0.1394 -0.2826
   23CHL1  H18C 1658   3.771   5.090   9.449 -0.7187 -0.3404 -0.4201
   23CHL1   C12 1659   3.868   5.326   9.558  0.4450 -0.5483 -0.2189
   23CHL1  H12A 1660   3.932   5.235   9.556  0.3406 -0.6169 -0.3593
   23CHL1  H12B 1661   3.933   5.416   9.551 -0.9099  0.3405 -1.5100
   23CHL1   C11 1662   3.789   5.307   9.693  0.9376 -0.2790  0.4884
   23CHL1  H11A 1663   3.758   5.201   9.697 -0.7257  0.1903  0.3955
   23CHL1  H11B 1664   3.864   5.320   9.774  0.1448  0.3777  1.1291
   23CHL1    C9 1665   3.677   5.410   9.711  0.1512  0.1878 -0.5016
   23CHL1    H9 1666   3.733   5.505   9.716 -2.0346  1.4838  0.3657
   23CHL1   C10 1667   3.606   5.399   9.847 -0.1749  0.3350  0.0794
   23CHL1   C19 1668   3.555   5.259   9.877  0.4086  0.4085  0.1447
   23CHL1  H19A 1669   3.508   5.259   9.977 -0.4596 -0.7078 -0.2446
   23CHL1  H19B 1670   3.470   5.238   9.807 -0.6170 -0.1295  1.5321
   23CHL1  H19C 1671   3.615   5.166   9.867 -0.7691 -0.1841 -1.9013
   23CHL1    C1 1672   3.703   5.439   9.961  0.1171  0.5040 -0.7253
   23CHL1   H1A 1673   3.777   5.357   9.971  2.2199  2.5261  0.7889
   23CHL1   H1B 1674   3.761   5.531   9.940  0.1514  0.9049  1.0373
   23CHL1    C2 1675   3.632   5.463  10.096  0.3042 -0.2851 -0.6975
   23CHL1   H2A 1676   3.703   5.517  10.163 -0.4458  1.0091 -0.9331
   23CHL1   H2B 1677   3.596   5.376  10.155  2.2425 -0.1885  0.6829
   23CHL1   C20 1678   3.911   5.280   9.222  0.3552  0.8102 -0.4197
   23CHL1   H20 1679   3.860   5.182   9.223  1.5027  0.1298 -3.1247
   23CHL1   C21 1680   4.044   5.246   9.290 -1.4074 -0.8816  0.4986
   23CHL1  H21A 1681   4.017   5.176   9.372 -1.7390 -2.3618 -0.8712
   23CHL1  H21B 1682   4.107   5.328   9.331 -1.0549 -1.1930  0.5853
   23CHL1  H21C 1683   4.109   5.188   9.222 -0.8166 -0.0893  0.3745
   23CHL1   C22 1684   3.924   5.338   9.076  0.1382 -0.2001  0.2197
   23CHL1  H22A 1685   3.969   5.251   9.023  0.6333  0.3460 -0.2512
   23CHL1  H22B 1686   3.834   5.335   9.011 -0.2836 -0.8719  0.8224
   23CHL1   C23 1687   4.007   5.467   9.049 -0.6258  0.1372 -0.7817
   23CHL1  H23A 1688   3.973   5.550   9.113 -2.1407 -1.6679  0.8310
   23CHL1  H23B 1689   4.112   5.434   9.067 -0.4625  0.9041 -0.3187
   23CHL1   C24 1690   4.010   5.501   8.898  0.0251  0.4310  0.1097
   23CHL1  H24A 1691   4.075   5.591   8.889 -1.0796  1.4820  2.3450
   23CHL1  H24B 1692   4.059   5.418   8.844  1.0397  2.2413 -1.8546
   23CHL1   C25 1693   3.876   5.553   8.842  0.5020 -0.2472 -0.0766
   23CHL1   H25 1694   3.803   5.470   8.842 -1.1375  1.1820  0.5502
   23CHL1   C26 1695   3.813   5.669   8.925  0.0735 -0.1062  0.3744
   23CHL1  H26A 1696   3.719   5.710   8.881 -0.9466 -1.7093  1.0035
   23CHL1  H26B 1697   3.781   5.636   9.026 -2.2442 -0.2756 -0.3759
   23CHL1  H26C 1698   3.884   5.753   8.939 -0.1285 -0.1336  1.5915
   23CHL1   C27 1699   3.887   5.604   8.699 -0.0522  0.5439  0.0586
   23CHL1  H27A 1700   3.790   5.631   8.653 -0.1591  3.6800  2.0163
   23CHL1  H27B 1701   3.956   5.691   8.699  0.7550 -0.0844  0.3063
   23CHL1  H27C 1702   3.935   5.537   8.623  0.0729 -1.3068  1.7328
   24CHL1    C3 1703   4.444   6.756  10.319  0.4565 -0.2165 -0.3519
   24CHL1    H3 1704   4.503   6.849  10.312  0.8757 -0.4085  0.5000
   24CHL1    O3 1705   4.373   6.753  10.444 -0.5812 -0.1471  0.3820
   24CHL1   H3' 1706   4.333   6.665  10.445 -0.3017 -0.2930 -0.5467
   24CHL1    C4 1707   4.331   6.732  10.219 -0.2834  0.5611  0.0896
   24CHL1   H4A 1708   4.272   6.643  10.249 -0.3124  1.0037  1.3789
   24CHL1   H4B 1709   4.255   6.811  10.236 -0.9594 -0.3117  1.1865
   24CHL1    C5 1710   4.382   6.719  10.074 -0.5827  0.0906 -0.5900
   24CHL1    C6 1711   4.331   6.794   9.976  0.6290 -0.7616  1.2429
   24CHL1    H6 1712   4.242   6.858   9.989  0.1037 -0.8069 -1.8500
   24CHL1    C7 1713   4.382   6.790   9.831 -0.2253  0.1223 -0.5733
   24CHL1   H7A 1714   4.294   6.799   9.764  0.0130 -0.8196 -1.0191
   24CHL1   H7B 1715   4.445   6.880   9.814  0.4482 -0.3875 -0.8211
   24CHL1    C8 1716   4.461   6.654   9.801  0.1170  1.1183 -0.3430
   24CHL1    H8 1717   4.394   6.566   9.794 -0.4973  1.4149  1.6477
   24CHL1   C14 1718   4.537   6.682   9.673  0.1149  0.7132 -0.0958
   24CHL1   H14 1719   4.605   6.769   9.692  1.2110  0.0875 -1.0494
   24CHL1   C15 1720   4.460   6.717   9.544  0.0482  0.9152 -0.2630
   24CHL1  H15A 1721   4.379   6.641   9.534  2.0567 -1.1784 -1.0189
   24CHL1  H15B 1722   4.423   6.822   9.550  2.0098  1.6688 -1.0697
   24CHL1   C16 1723   4.569   6.692   9.437  0.1214  0.5396  0.2222
   24CHL1  H16A 1724   4.516   6.644   9.352  1.4920 -0.4900 -0.0810
   24CHL1  H16B 1725   4.611   6.790   9.409  1.8951  0.0479  1.0676
   24CHL1   C17 1726   4.676   6.597   9.501 -0.1710  1.0745 -0.3353
   24CHL1   H17 1727   4.771   6.651   9.519  0.6908 -1.1967  2.2517
   24CHL1   C13 1728   4.629   6.560   9.636  0.1532  0.0144 -0.0714
   24CHL1   C18 1729   4.534   6.433   9.635  0.1732  0.1700  0.5080
   24CHL1  H18A 1730   4.494   6.408   9.736 -0.2780 -0.4085  0.1940
   24CHL1  H18B 1731   4.440   6.455   9.580 -0.1928 -0.1559  0.9998
   24CHL1  H18C 1732   4.586   6.341   9.601  1.7098  1.2033  0.0450
   24CHL1   C12 1733   4.736   6.549   9.744 -0.3664  0.1819 -0.4786
   24CHL1  H12A 1734   4.798   6.457   9.736 -1.4357 -0.4443 -1.6785
   24CHL1  H12B 1735   4.806   6.636   9.747  1.4256 -1.2896  1.9830
   24CHL1   C11 1736   4.674   6.533   9.888  0.4083  0.4104 -0.2234
   24CHL1  H11A 1737   4.625   6.434   9.890 -2.0030  1.5714 -0.2158
   24CHL1  H11B 1738   4.753   6.533   9.965  0.3198 -1.1888 -0.1195
   24CHL1    C9 1739   4.563   6.635   9.923 -0.5347  0.1910  1.2270
   24CHL1    H9 1740   4.621   6.729   9.913 -0.9903  0.5646  2.0854
   24CHL1   C10 1741   4.495   6.617  10.064 -0.8349  0.3682 -0.2733
   24CHL1   C19 1742   4.438   6.469  10.073  0.1761 -0.5201  0.3787
   24CHL1  H19A 1743   4.405   6.439   9.971 -0.1494 -0.1212  0.3657
   24CHL1  H19B 1744   4.524   6.407  10.107  0.3377 -1.1999 -1.2072
   24CHL1  H19C 1745   4.354   6.472  10.145  0.6309  1.8291  0.8640
   24CHL1    C1 1746   4.603   6.643  10.171 -1.0210  0.0618  0.2288
   24CHL1   H1A 1747   4.680   6.563  10.163  1.0239  2.1232 -1.2110
   24CHL1   H1B 1748   4.661   6.737  10.159 -1.5151  0.6280  2.1781
   24CHL1    C2 1749   4.543   6.638  10.315 -0.1603  0.0798  1.0235
   24CHL1   H2A 1750   4.625   6.650  10.389  0.5450  1.7547  0.0080
   24CHL1   H2B 1751   4.497   6.539  10.332 -2.3655  0.4185 -2.4904
   24CHL1   C20 1752   4.721   6.491   9.396  0.6690  0.8779 -0.7907
   24CHL1   H20 1753   4.631   6.430   9.373  0.7414  0.5499 -0.1890
   24CHL1   C21 1754   4.830   6.399   9.454  0.8522 -0.5544  0.3293
   24CHL1  H21A 1755   4.831   6.377   9.563  1.5262 -2.6547 -0.0856
   24CHL1  H21B 1756   4.919   6.465   9.447 -1.7757  3.2305  1.0680
   24CHL1  H21C 1757   4.852   6.313   9.387  3.4008  0.9035 -0.8017
   24CHL1   C22 1758   4.764   6.541   9.258 -0.2822  0.6293  0.0553
   24CHL1  H22A 1759   4.691   6.615   9.220 -1.9690 -1.2416 -0.4294
   24CHL1  H22B 1760   4.867   6.582   9.271  0.0577 -0.3162  0.3764
   24CHL1   C23 1761   4.757   6.429   9.151 -0.0225  0.2103  1.0030
   24CHL1  H23A 1762   4.833   6.351   9.168  0.1425  0.3490  0.9013
   24CHL1  H23B 1763   4.664   6.368   9.156  0.4920 -0.4422  2.5306
   24CHL1   C24 1764   4.769   6.489   9.004  0.7082  1.0252 -0.0198
   24CHL1  H24A 1765   4.681   6.549   8.974 -0.1847 -0.6264 -0.7537
   24CHL1  H24B 1766   4.860   6.554   9.007  2.3055 -1.0381 -1.9080
   24CHL1   C25 1767   4.792   6.384   8.886 -0.6395 -0.5694  0.2503
   24CHL1   H25 1768   4.700   6.322   8.890  0.0251 -1.5586  0.4031
   24CHL1   C26 1769   4.794   6.458   8.754 -0.0033  0.3913  0.5234
   24CHL1  H26A 1770   4.802   6.383   8.672  0.1818  1.0599 -0.0735
   24CHL1  H26B 1771   4.704   6.523   8.749 -0.0657  0.3237  0.7878
   24CHL1  H26C 1772   4.882   6.524   8.742  0.4860  0.0264  2.0753
   24CHL1   C27 1773   4.912   6.293   8.896 -0.3967  1.2433  0.3769
   24CHL1  H27A 1774   4.928   6.233   8.803  1.3593  2.0849  0.1186
   24CHL1  H27B 1775   5.007   6.350   8.906  0.9066 -0.8163  0.0892
   24CHL1  H27C 1776   4.901   6.226   8.984 -1.8052  0.0217 -0.6949
   25CHL1    C3 1777   5.832   1.284  10.374  0.0706  0.3713  0.3198
   25CHL1    H3 1778   5.939   1.263  10.352 -0.0560  0.2079 -0.1445
   25CHL1    O3 1779   5.821   1.280  10.517 -0.2564  0.0175  0.1089
   25CHL1   H3' 1780   5.856   1.366  10.540  1.3995 -1.1063  1.9317
   25CHL1    C4 1781   5.791   1.421  10.318  0.3680 -0.9514 -0.0621
   25CHL1   H4A 1782   5.685   1.443  10.342  0.5837 -0.8928  0.8983
   25CHL1   H4B 1783   5.844   1.505  10.370 -2.2571  0.6327  0.1152
   25CHL1    C5 1784   5.816   1.422  10.170 -0.2935 -0.3660 -0.2966
   25CHL1    C6 1785   5.914   1.495  10.116 -0.2766  0.4300 -0.3671
   25CHL1    H6 1786   5.974   1.561  10.181  0.7559  0.5258 -1.3880
   25CHL1    C7 1787   5.950   1.491   9.969 -0.0317 -0.4310  1.2682
   25CHL1   H7A 1788   5.958   1.597   9.936 -1.7398  0.0547  2.3365
   25CHL1   H7B 1789   6.044   1.436   9.950  1.5219  2.3585  0.4832
   25CHL1    C8 1790   5.836   1.431   9.885  0.3083 -0.0941 -1.3391
   25CHL1    H8 1791   5.747   1.498   9.885 -0.8686 -1.6118  0.2063
   25CHL1   C14 1792   5.876   1.404   9.744  0.4769 -0.8485 -0.0496
   25CHL1   H14 1793   5.970   1.349   9.767 -0.3401 -2.0421  0.4329
   25CHL1   C15 1794   5.936   1.525   9.671  0.3841 -0.1115 -0.1640
   25CHL1  H15A 1795   5.870   1.609   9.703 -1.5707 -1.0745 -1.5285
   25CHL1  H15B 1796   6.040   1.550   9.698  0.4914 -0.7359  0.0149
   25CHL1   C16 1797   5.935   1.486   9.522 -0.3206 -0.6638 -0.5195
   25CHL1  H16A 1798   5.882   1.567   9.467 -2.5840 -0.8329  1.3090
   25CHL1  H16B 1799   6.036   1.471   9.478 -0.6166 -1.8030 -0.8284
   25CHL1   C17 1800   5.863   1.340   9.513  0.6524  0.4090  0.0169
   25CHL1   H17 1801   5.947   1.268   9.523 -0.0093 -0.3886 -0.1470
   25CHL1   C13 1802   5.789   1.333   9.652 -0.1133 -0.7231  0.7664
   25CHL1   C18 1803   5.658   1.414   9.636  0.8165 -0.0197  0.0312
   25CHL1  H18A 1804   5.616   1.441   9.735 -0.7068  0.5376 -0.7556
   25CHL1  H18B 1805   5.672   1.511   9.583  0.3133  0.6803  1.1592
   25CHL1  H18C 1806   5.582   1.356   9.579  0.0954  0.3160  0.6443
   25CHL1   C12 1807   5.762   1.197   9.707  0.5661 -0.1531 -0.4130
   25CHL1  H12A 1808   5.697   1.132   9.644  1.1284 -1.7164  0.6005
   25CHL1  H12B 1809   5.853   1.133   9.713 -0.4719 -1.4832  1.6453
   25CHL1   C11 1810   5.707   1.209   9.853  0.0104  0.2031  0.0114
   25CHL1  H11A 1811   5.605   1.252   9.846 -1.3050 -2.5219  1.7129
   25CHL1  H11B 1812   5.697   1.110   9.902 -1.5215  0.6310  0.6080
   25CHL1    C9 1813   5.792   1.301   9.944 -0.5643  0.3598  0.2694
   25CHL1    H9 1814   5.888   1.250   9.969 -0.3470  1.3698  1.6238
   25CHL1   C10 1815   5.736   1.318  10.085  0.4694  0.1361 -0.8802
   25CHL1   C19 1816   5.586   1.358  10.085  0.3245  0.3461  0.9022
   25CHL1  H19A 1817   5.521   1.288  10.029  0.6181  1.3546 -0.7445
   25CHL1  H19B 1818   5.540   1.365  10.186  1.3847 -1.2122  1.5086
   25CHL1  H19C 1819   5.583   1.446  10.018 -0.9706 -2.2431 -2.5464
   25CHL1    C1 1820   5.744   1.177  10.154  0.0349  0.3206  0.3866
   25CHL1   H1A 1821   5.658   1.115  10.122  1.3482 -1.4676  0.2618
   25CHL1   H1B 1822   5.838   1.129  10.119  0.0955  1.5216 -1.1185
   25CHL1    C2 1823   5.740   1.176  10.308  0.1871  0.1048 -0.2367
   25CHL1   H2A 1824   5.760   1.072  10.343 -2.6463 -1.6857 -3.6527
   25CHL1   H2B 1825   5.634   1.186  10.339 -0.0717  0.5241 -1.2402
   25CHL1   C20 1826   5.792   1.316   9.387  0.4602  0.1837  0.3072
   25CHL1   H20 1827   5.726   1.403   9.368  0.7649  0.6927  1.5279
   25CHL1   C21 1828   5.693   1.192   9.383  0.6350  0.4029 -1.0186
   25CHL1  H21A 1829   5.650   1.181   9.281 -0.0399  0.7830 -0.7852
   25CHL1  H21B 1830   5.610   1.195   9.457  1.6413 -1.6662  0.2283
   25CHL1  H21C 1831   5.745   1.095   9.395  0.0280 -0.1263 -2.5257
   25CHL1   C22 1832   5.891   1.313   9.262 -0.4016  0.1745 -0.3455
   25CHL1  H22A 1833   5.978   1.379   9.282  0.2431 -0.7045 -0.2108
   25CHL1  H22B 1834   5.920   1.207   9.248 -0.3010  0.1050  0.3999
   25CHL1   C23 1835   5.827   1.372   9.136  0.1812  0.1501  0.1115
   25CHL1  H23A 1836   5.743   1.304   9.111  1.2535 -1.2670  0.2746
   25CHL1  H23B 1837   5.794   1.475   9.160  0.4717  0.4065 -0.5582
   25CHL1   C24 1838   5.912   1.373   9.006  0.4548  0.8054 -0.7657
   25CHL1  H24A 1839   6.003   1.437   9.009  0.2283  1.0815  0.3814
   25CHL1  H24B 1840   5.959   1.273   8.994  2.4796  1.5895  0.4347
   25CHL1   C25 1841   5.828   1.403   8.881 -0.4908  0.0476  0.3127
   25CHL1   H25 1842   5.744   1.330   8.882 -1.3599  1.0406  0.0469
   25CHL1   C26 1843   5.780   1.546   8.892 -0.4561  0.4758  0.2733
   25CHL1  H26A 1844   5.694   1.549   8.963 -1.4355 -2.1247 -0.7262
   25CHL1  H26B 1845   5.848   1.626   8.928 -0.4070  0.8788 -0.7044
   25CHL1  H26C 1846   5.737   1.565   8.792 -2.1375 -1.7886  0.5188
   25CHL1   C27 1847   5.918   1.375   8.757 -0.2727  0.3060  0.0138
   25CHL1  H27A 1848   5.870   1.400   8.660 -0.3788 -0.2913 -0.0903
   25CHL1  H27B 1849   5.999   1.451   8.763  0.1651 -0.0760 -0.8877
   25CHL1  H27C 1850   5.967   1.275   8.756  0.8413  0.8432 -0.1053
   26CHL1    C3 1851   0.432   3.764  10.158 -0.0429  0.3431 -0.1955
   26CHL1    H3 1852   0.428   3.654  10.171 -0.9589  0.5589  1.4836
   26CHL1    O3 1853   0.393   3.826  10.281 -0.3563  0.3421 -0.1229
   26CHL1   H3' 1854   0.305   3.789  10.292  0.1393 -0.5269  1.0071
   26CHL1    C4 1855   0.573   3.802  10.106 -0.2660 -0.1511  0.1639
   26CHL1   H4A 1856   0.576   3.913  10.119  2.9648 -0.3635  1.7685
   26CHL1   H4B 1857   0.653   3.777  10.178  1.2176 -0.7464 -1.6414
   26CHL1    C5 1858   0.598   3.753   9.965  0.6962  0.0932 -0.3062
   26CHL1    C6 1859   0.712   3.684   9.933  0.1385 -0.0250 -0.0339
   26CHL1    H6 1860   0.784   3.648  10.008 -0.5548 -0.9515  0.2002
   26CHL1    C7 1861   0.749   3.631   9.797  0.4246 -0.1241 -0.7829
   26CHL1   H7A 1862   0.858   3.635   9.777  0.2070 -0.7286 -2.1844
   26CHL1   H7B 1863   0.723   3.523   9.793 -1.2365  0.2904 -1.9662
   26CHL1    C8 1864   0.656   3.707   9.694 -1.0640  0.2948 -0.4274
   26CHL1    H8 1865   0.700   3.808   9.674  0.0416 -0.4939 -2.0969
   26CHL1   C14 1866   0.665   3.636   9.565 -0.1886 -0.0074  0.5450
   26CHL1   H14 1867   0.631   3.532   9.584  2.3191 -1.2272 -1.3031
   26CHL1   C15 1868   0.806   3.616   9.509  1.3220 -0.6002 -0.8621
   26CHL1  H15A 1869   0.872   3.705   9.499  0.4008  0.2775  0.6971
   26CHL1  H15B 1870   0.867   3.539   9.560  0.6309 -1.0927 -0.7577
   26CHL1   C16 1871   0.779   3.564   9.367  0.3111  0.3370  0.3618
   26CHL1  H16A 1872   0.824   3.643   9.304 -0.9895  0.8918  0.1275
   26CHL1  H16B 1873   0.809   3.464   9.329  1.9886  0.6684  0.7521
   26CHL1   C17 1874   0.624   3.578   9.344  0.6925 -0.0612  0.0841
   26CHL1   H17 1875   0.580   3.481   9.374  0.6262 -0.3906 -1.0441
   26CHL1   C13 1876   0.581   3.686   9.443 -0.2319  0.3605 -0.1394
   26CHL1   C18 1877   0.633   3.826   9.398 -0.7253  0.1999 -0.1548
   26CHL1  H18A 1878   0.571   3.863   9.314 -1.1595 -1.0099 -0.3652
   26CHL1  H18B 1879   0.612   3.900   9.479  1.3862 -1.4969  2.0284
   26CHL1  H18C 1880   0.743   3.830   9.385 -0.9570 -0.9085 -2.7501
   26CHL1   C12 1881   0.432   3.691   9.482 -0.1423 -0.1493  0.2230
   26CHL1  H12A 1882   0.372   3.733   9.398  1.4097  1.1242 -0.2714
   26CHL1  H12B 1883   0.383   3.593   9.499 -1.5109  0.6721  1.0968
   26CHL1   C11 1884   0.415   3.770   9.612  0.1235  0.3291  0.4492
   26CHL1  H11A 1885   0.447   3.872   9.584  0.2634  0.4079  0.8929
   26CHL1  H11B 1886   0.308   3.769   9.645 -0.3530  0.9270 -1.0299
   26CHL1    C9 1887   0.509   3.717   9.730  0.6113  0.2763 -0.3319
   26CHL1    H9 1888   0.479   3.613   9.755  1.8191 -0.3158 -1.2817
   26CHL1   C10 1889   0.485   3.792   9.864  0.2327 -1.3310  0.8719
   26CHL1   C19 1890   0.486   3.945   9.835 -0.5733  0.6464  0.2724
   26CHL1  H19A 1891   0.504   4.000   9.930  0.2418  0.8446  0.0020
   26CHL1  H19B 1892   0.575   3.979   9.778 -1.6731  1.9109 -0.7587
   26CHL1  H19C 1893   0.394   3.987   9.788  0.5047  5.2250  1.9357
   26CHL1    C1 1894   0.347   3.752   9.922 -0.1088  0.0613 -0.4523
   26CHL1   H1A 1895   0.272   3.792   9.851  0.0095 -1.9101 -1.7271
   26CHL1   H1B 1896   0.335   3.642   9.932 -0.5562  0.1737  0.3132
   26CHL1    C2 1897   0.319   3.808  10.066 -0.1191 -0.0187  0.1662
   26CHL1   H2A 1898   0.223   3.778  10.112  1.0190 -1.5250  1.6112
   26CHL1   H2B 1899   0.323   3.918  10.048 -1.2110 -0.0933 -0.5727
   26CHL1   C20 1900   0.584   3.595   9.194 -0.3950  0.3877  0.4435
   26CHL1   H20 1901   0.606   3.700   9.164 -0.4255 -0.4750 -2.7637
   26CHL1   C21 1902   0.431   3.589   9.177  0.1717  0.1089  0.4677
   26CHL1  H21A 1903   0.423   3.574   9.067 -2.3650  0.0930  0.6239
   26CHL1  H21B 1904   0.383   3.685   9.208  0.9324  0.6757 -0.1072
   26CHL1  H21C 1905   0.388   3.496   9.220 -0.3416 -0.2490 -0.7882
   26CHL1   C22 1906   0.663   3.512   9.091 -0.6545 -0.0813  0.0014
   26CHL1  H22A 1907   0.773   3.516   9.107 -0.1786 -0.6947 -2.8325
   26CHL1  H22B 1908   0.629   3.407   9.095  0.4478 -0.4284  0.5277
   26CHL1   C23 1909   0.644   3.556   8.945  0.0724 -0.5198  0.3790
   26CHL1  H23A 1910   0.545   3.520   8.907  0.1848  0.0876 -0.5180
   26CHL1  H23B 1911   0.654   3.666   8.936 -3.0146 -0.1668  0.8207
   26CHL1   C24 1912   0.740   3.489   8.852 -0.3615 -0.2859  0.0464
   26CHL1  H24A 1913   0.842   3.523   8.881  0.1433 -2.2898  0.6955
   26CHL1  H24B 1914   0.743   3.378   8.859  2.5977 -0.1925  1.2339
   26CHL1   C25 1915   0.735   3.533   8.705 -0.3261  0.0334 -0.4478
   26CHL1   H25 1916   0.811   3.471   8.653 -1.0753  0.3583 -1.9601
   26CHL1   C26 1917   0.607   3.484   8.638  0.3673  0.3378  0.0012
   26CHL1  H26A 1918   0.618   3.517   8.533 -0.3747 -2.5877 -1.0231
   26CHL1  H26B 1919   0.596   3.375   8.655 -0.4744  0.2762 -0.9303
   26CHL1  H26C 1920   0.514   3.525   8.683 -0.2765 -2.3375  1.1733
   26CHL1   C27 1921   0.755   3.683   8.677 -0.6927 -0.1544  0.5606
   26CHL1  H27A 1922   0.845   3.734   8.718  0.8553 -2.3233 -0.0266
   26CHL1  H27B 1923   0.759   3.707   8.569 -0.0349  2.7054  1.1996
   26CHL1  H27C 1924   0.669   3.742   8.715 -1.5896 -0.8476 -0.3574
   27CHL1    C3 1925   6.287   0.985  10.422  1.4869  0.4880 -0.1857
   27CHL1    H3 1926   6.306   0.883  10.384  3.7582  0.3382  1.2627
   27CHL1    O3 1927   6.266   0.981  10.564 -0.3420  0.1129  0.4244
   27CHL1   H3' 1928   6.299   0.898  10.600 -1.1022 -0.0321  0.8078
   27CHL1    C4 1929   6.383   1.091  10.375 -0.6468 -0.2322 -0.1362
   27CHL1   H4A 1930   6.350   1.194  10.401 -2.2131 -0.3072 -1.6949
   27CHL1   H4B 1931   6.477   1.072  10.431 -1.9744 -3.1785  1.2080
   27CHL1    C5 1932   6.401   1.080  10.222  0.5445  0.5886 -0.4514
   27CHL1    C6 1933   6.521   1.047  10.172 -0.2190 -1.2156  0.8845
   27CHL1    H6 1934   6.607   1.031  10.239  0.4464  0.9234  0.6057
   27CHL1    C7 1935   6.533   1.039  10.016 -0.1219  0.6787  0.6206
   27CHL1   H7A 1936   6.627   1.081   9.974 -0.2345  0.0519 -0.2788
   27CHL1   H7B 1937   6.543   0.934   9.980 -2.6257  0.2403  1.0950
   27CHL1    C8 1938   6.413   1.098   9.935  0.0178 -0.2066  0.0545
   27CHL1    H8 1939   6.418   1.209   9.940 -0.9734 -0.0305 -2.3688
   27CHL1   C14 1940   6.419   1.056   9.789 -0.3361  0.1372 -0.9020
   27CHL1   H14 1941   6.412   0.946   9.801 -1.0581  0.3157  0.4708
   27CHL1   C15 1942   6.544   1.083   9.706  0.2348 -0.1576  0.5366
   27CHL1  H15A 1943   6.563   1.193   9.708 -3.8302  0.6382  0.8894
   27CHL1  H15B 1944   6.640   1.034   9.731  1.4616  0.8277 -1.9567
   27CHL1   C16 1945   6.496   1.052   9.564 -0.0218  0.1455 -0.1748
   27CHL1  H16A 1946   6.523   1.140   9.502  1.3386 -1.0251 -1.2740
   27CHL1  H16B 1947   6.549   0.964   9.523  0.6602  0.8342 -0.7713
   27CHL1   C17 1948   6.345   1.026   9.571  0.1651  0.2400 -0.3761
   27CHL1   H17 1949   6.328   0.918   9.589 -1.4196 -0.1435 -3.6500
   27CHL1   C13 1950   6.302   1.094   9.702 -0.0009 -0.4996 -0.3780
   27CHL1   C18 1951   6.283   1.244   9.695 -0.1619 -0.3737  0.4151
   27CHL1  H18A 1952   6.293   1.300   9.791  0.7458 -1.7714  1.1458
   27CHL1  H18B 1953   6.360   1.289   9.628 -1.2083 -0.5349 -0.9189
   27CHL1  H18C 1954   6.177   1.265   9.669 -0.1100  2.3037  2.0891
   27CHL1   C12 1955   6.168   1.041   9.766  0.2988  0.0482  0.4813
   27CHL1  H12A 1956   6.087   1.079   9.701 -1.2146 -0.6087  1.9450
   27CHL1  H12B 1957   6.158   0.931   9.769 -2.2731  0.2273 -0.2869
   27CHL1   C11 1958   6.153   1.099   9.908 -0.3911 -0.2057  0.3673
   27CHL1  H11A 1959   6.148   1.209   9.913 -0.0315 -0.2763  2.8321
   27CHL1  H11B 1960   6.065   1.051   9.955  1.1823 -2.2716  1.3361
   27CHL1    C9 1961   6.276   1.059   9.994 -0.4546 -0.4742  0.8101
   27CHL1    H9 1962   6.266   0.949   9.983 -0.4827 -0.3290 -0.7725
   27CHL1   C10 1963   6.269   1.101  10.137 -0.1705 -0.0860  0.2932
   27CHL1   C19 1964   6.226   1.251  10.159 -0.3584  0.3253 -0.3971
   27CHL1  H19A 1965   6.232   1.280  10.266 -1.2966 -0.5004 -0.1122
   27CHL1  H19B 1966   6.299   1.315  10.104 -1.2279  0.4249 -1.4541
   27CHL1  H19C 1967   6.126   1.270  10.115 -0.0424  0.9298 -0.8560
   27CHL1    C1 1968   6.161   1.011  10.204  0.1836  0.0015  0.3260
   27CHL1   H1A 1969   6.064   1.044  10.162  0.9507  4.4781  1.7956
   27CHL1   H1B 1970   6.171   0.903  10.182 -0.6684 -0.0583  0.1947
   27CHL1    C2 1971   6.153   1.019  10.357 -0.0303  0.2528  0.1416
   27CHL1   H2A 1972   6.079   0.944  10.393  0.3066  0.3824  1.1009
   27CHL1   H2B 1973   6.119   1.118  10.394 -0.0697  0.2142  0.2077
   27CHL1   C20 1974   6.272   1.061   9.436  0.3062 -0.2047  0.2762
   27CHL1   H20 1975   6.288   1.169   9.415  1.9807 -0.8426 -1.9992
   27CHL1   C21 1976   6.123   1.027   9.439 -0.5874  0.5280 -0.5605
   27CHL1  H21A 1977   6.105   0.924   9.476  1.0086  0.4366 -0.0032
   27CHL1  H21B 1978   6.062   1.028   9.346 -1.0166  0.9536 -0.2790
   27CHL1  H21C 1979   6.074   1.093   9.513 -0.2689  1.0642 -0.8199
   27CHL1   C22 1980   6.338   0.991   9.319  0.3112  0.0883  0.4911
   27CHL1  H22A 1981   6.448   1.004   9.322  0.2026  1.5337 -0.9951
   27CHL1  H22B 1982   6.315   0.882   9.317 -3.0270  0.7248 -1.0745
   27CHL1   C23 1983   6.292   1.050   9.181  0.1104  0.6259  0.6638
   27CHL1  H23A 1984   6.184   1.025   9.177  0.3824 -0.6253  0.9302
   27CHL1  H23B 1985   6.302   1.160   9.192 -0.1837  0.8165 -0.8570
   27CHL1   C24 1986   6.378   0.995   9.065  0.2703  0.3434 -0.5355
   27CHL1  H24A 1987   6.482   1.033   9.067  0.8075 -1.0787 -1.1472
   27CHL1  H24B 1988   6.380   0.884   9.073 -0.1802  0.2855 -1.1514
   27CHL1   C25 1989   6.313   1.028   8.923 -0.2629 -1.0892 -0.0052
   27CHL1   H25 1990   6.213   0.981   8.919  0.0767 -2.1681  2.6906
   27CHL1   C26 1991   6.298   1.181   8.903  0.6145 -0.6773 -0.8362
   27CHL1  H26A 1992   6.238   1.201   8.812 -1.3514 -0.2051  0.5370
   27CHL1  H26B 1993   6.244   1.238   8.981 -1.0442 -1.2368 -1.5620
   27CHL1  H26C 1994   6.395   1.231   8.884  0.4495 -1.4977 -4.2898
   27CHL1   C27 1995   6.390   0.961   8.813  0.6410  0.2579  0.2773
   27CHL1  H27A 1996   6.493   1.001   8.814  0.3469  1.0403 -0.1499
   27CHL1  H27B 1997   6.385   0.852   8.833  1.2206  0.1272 -0.2718
   27CHL1  H27C 1998   6.351   0.983   8.711  0.5209  0.8247  0.4444
   28CHL1    C3 1999   5.546   6.329  10.052  0.0457 -0.1091 -0.1533
   28CHL1    H3 2000   5.532   6.219  10.045 -0.2718 -0.1705  1.2058
   28CHL1    O3 2001   5.519   6.377  10.183  1.3641 -0.1307 -0.0481
   28CHL1   H3' 2002   5.442   6.330  10.217  0.1334  2.1476  0.3906
   28CHL1    C4 2003   5.688   6.371  10.010 -0.4000 -1.0030  0.0819
   28CHL1   H4A 2004   5.719   6.472  10.044  0.0302 -1.7832  2.1170
   28CHL1   H4B 2005   5.739   6.291  10.068  0.5525  0.1759  0.8954
   28CHL1    C5 2006   5.722   6.358   9.862  0.8858 -0.4046 -0.8402
   28CHL1    C6 2007   5.837   6.305   9.818  0.7578 -0.0304 -0.3368
   28CHL1    H6 2008   5.906   6.255   9.888  0.7854 -0.2717 -0.5366
   28CHL1    C7 2009   5.872   6.300   9.674  0.4629  0.9240 -0.0136
   28CHL1   H7A 2010   5.976   6.339   9.665  0.2443  2.5563  3.5768
   28CHL1   H7B 2011   5.883   6.191   9.654  0.7520  1.0088 -0.3422
   28CHL1    C8 2012   5.775   6.377   9.578 -0.1432  0.7562  0.7330
   28CHL1    H8 2013   5.802   6.484   9.584  0.7152  0.5937 -0.1500
   28CHL1   C14 2014   5.803   6.318   9.442  0.5746 -0.1073  0.5583
   28CHL1   H14 2015   5.753   6.219   9.449  1.2726 -0.5154 -0.1537
   28CHL1   C15 2016   5.941   6.291   9.384  0.2777  0.0127  0.4678
   28CHL1  H15A 2017   6.004   6.382   9.393  1.1627 -0.1873 -2.9714
   28CHL1  H15B 2018   5.991   6.206   9.435  0.7018 -0.4376 -0.6871
   28CHL1   C16 2019   5.911   6.255   9.237 -0.1570  0.4607 -0.1959
   28CHL1  H16A 2020   5.988   6.308   9.177 -1.0176  0.3881 -1.3724
   28CHL1  H16B 2021   5.914   6.145   9.223 -0.2353  0.2918  1.0503
   28CHL1   C17 2022   5.765   6.302   9.209 -0.6801 -0.0970  0.0437
   28CHL1   H17 2023   5.705   6.210   9.226 -2.0510  0.4845 -1.5081
   28CHL1   C13 2024   5.722   6.387   9.337 -0.1706  0.0627  0.5612
   28CHL1   C18 2025   5.763   6.532   9.328  0.4790 -0.0413  0.5274
   28CHL1  H18A 2026   5.714   6.589   9.246 -0.8254  2.1139  2.7282
   28CHL1  H18B 2027   5.725   6.588   9.416 -0.3904  0.2876 -0.0530
   28CHL1  H18C 2028   5.873   6.543   9.320  0.6369 -0.5212  1.8680
   28CHL1   C12 2029   5.575   6.377   9.368 -0.0216  0.1300 -0.5923
   28CHL1  H12A 2030   5.510   6.436   9.300  0.6916 -0.5039 -1.8377
   28CHL1  H12B 2031   5.544   6.271   9.355  0.3117 -0.0500  0.0358
   28CHL1   C11 2032   5.534   6.417   9.514  1.0982  0.3000 -0.0699
   28CHL1  H11A 2033   5.507   6.524   9.523  2.3029  0.3133  4.7904
   28CHL1  H11B 2034   5.440   6.361   9.532  1.8625 -1.1033 -0.3921
   28CHL1    C9 2035   5.633   6.361   9.621  0.3117  0.5296 -0.5907
   28CHL1    H9 2036   5.609   6.252   9.616  1.3037  0.3504 -1.7361
   28CHL1   C10 2037   5.612   6.413   9.770 -0.4851  0.6575  0.2944
   28CHL1   C19 2038   5.610   6.569   9.774  0.2239 -0.0724 -0.4385
   28CHL1  H19A 2039   5.702   6.615   9.731  0.8041 -0.8062  0.0212
   28CHL1  H19B 2040   5.522   6.596   9.713 -0.1897 -2.4331 -0.9147
   28CHL1  H19C 2041   5.595   6.608   9.877 -0.6424  1.0221 -0.9667
   28CHL1    C1 2042   5.469   6.359   9.817  0.2285 -0.3130 -0.6492
   28CHL1   H1A 2043   5.392   6.416   9.761  0.2466  1.3329  0.9540
   28CHL1   H1B 2044   5.473   6.249   9.797 -0.8396 -0.9351  2.3480
   28CHL1    C2 2045   5.439   6.391   9.966  0.1293  0.0324  0.3310
   28CHL1   H2A 2046   5.343   6.344   9.999  0.4862 -1.1474 -0.2575
   28CHL1   H2B 2047   5.430   6.501   9.978 -0.2174  0.1040 -0.5092
   28CHL1   C20 2048   5.722   6.350   9.072  0.1414  0.0870 -0.4362
   28CHL1   H20 2049   5.628   6.409   9.079  0.2124 -0.0040  1.3555
   28CHL1   C21 2050   5.700   6.230   8.979  0.0397 -0.4852 -0.2906
   28CHL1  H21A 2051   5.598   6.198   9.010  0.2939 -1.2757 -0.2649
   28CHL1  H21B 2052   5.768   6.148   9.011 -0.2836 -1.2653 -1.5420
   28CHL1  H21C 2053   5.688   6.237   8.869 -1.0279  1.4074 -0.0745
   28CHL1   C22 2054   5.823   6.442   9.009 -0.8638 -0.0761  0.6968
   28CHL1  H22A 2055   5.862   6.516   9.083  0.2878 -1.6875  1.7340
   28CHL1  H22B 2056   5.907   6.372   8.987 -0.5870  1.0741 -2.1425
   28CHL1   C23 2057   5.787   6.519   8.887 -0.1187  0.1634  0.0087
   28CHL1  H23A 2058   5.727   6.453   8.821  0.2076  0.8239 -0.9643
   28CHL1  H23B 2059   5.721   6.605   8.908  0.0750  0.1706  0.5843
   28CHL1   C24 2060   5.910   6.575   8.810  0.4337  0.4825 -0.1859
   28CHL1  H24A 2061   5.944   6.668   8.860 -0.2324  0.3445  0.5224
   28CHL1  H24B 2062   5.985   6.494   8.816 -0.5524 -0.5526 -1.4336
   28CHL1   C25 2063   5.876   6.605   8.662 -0.5230 -0.6124 -0.5579
   28CHL1   H25 2064   5.834   6.511   8.620 -0.1473 -0.6633 -0.8206
   28CHL1   C26 2065   5.765   6.712   8.652  0.4414 -0.4362 -0.1959
   28CHL1  H26A 2066   5.738   6.738   8.548  1.3906 -2.2317 -0.9097
   28CHL1  H26B 2067   5.675   6.684   8.711 -0.0712 -1.6765 -1.5492
   28CHL1  H26C 2068   5.808   6.804   8.697 -0.8322  0.4124 -0.7061
   28CHL1   C27 2069   6.004   6.642   8.583 -0.2171  0.0309 -0.6094
   28CHL1  H27A 2070   5.981   6.649   8.475 -0.4836  2.7221 -0.4176
   28CHL1  H27B 2071   6.019   6.740   8.634 -1.0576  0.9190 -2.0289
   28CHL1  H27C 2072   6.089   6.573   8.603  0.8040  1.1943 -0.9051
   29CHL1    C3 2073   0.827   4.436   6.699  0.3447  0.0458 -0.2558
   29CHL1    H3 2074   0.794   4.330   6.703  3.4253 -0.8913  1.9555
   29CHL1    O3 2075   0.847   4.478   6.564  0.4996  0.3485 -0.7038
   29CHL1   H3' 2076   0.863   4.573   6.570  0.8727  0.4185 -2.3727
   29CHL1    C4 2077   0.704   4.514   6.748  0.8865  0.1196  0.6971
   29CHL1   H4A 2078   0.709   4.620   6.718  0.6996 -0.6609 -2.2036
   29CHL1   H4B 2079   0.617   4.465   6.699 -0.0282  0.5835  1.8216
   29CHL1    C5 2080   0.686   4.512   6.893  0.2175  0.1058  0.4378
   29CHL1    C6 2081   0.574   4.463   6.943  0.7569  0.9274  0.2122
   29CHL1    H6 2082   0.492   4.432   6.877 -0.4351 -0.4469  2.2816
   29CHL1    C7 2083   0.542   4.458   7.094  0.6772 -0.0313  0.3957
   29CHL1   H7A 2084   0.432   4.467   7.112  0.2566  3.0178 -3.1371
   29CHL1   H7B 2085   0.582   4.360   7.128  2.4465  0.1804 -1.0140
   29CHL1    C8 2086   0.627   4.569   7.165 -0.6775  0.4461 -0.2008
   29CHL1    H8 2087   0.597   4.672   7.134  0.7023  0.8431 -0.2643
   29CHL1   C14 2088   0.607   4.552   7.318 -0.5234 -0.3467  0.1234
   29CHL1   H14 2089   0.640   4.450   7.348 -4.7119 -1.6482  0.6741
   29CHL1   C15 2090   0.467   4.573   7.373 -0.0971  0.3374 -0.5101
   29CHL1  H15A 2091   0.406   4.659   7.337 -0.5112 -0.1887 -1.0800
   29CHL1  H15B 2092   0.412   4.481   7.346  0.3196  0.7399 -2.8254
   29CHL1   C16 2093   0.486   4.593   7.527 -0.5993  0.0049 -0.2999
   29CHL1  H16A 2094   0.434   4.689   7.552 -0.5128  0.1188 -0.5453
   29CHL1  H16B 2095   0.445   4.510   7.588 -1.8802  0.8414  0.0123
   29CHL1   C17 2096   0.639   4.618   7.543 -0.0711 -0.3557 -0.4038
   29CHL1   H17 2097   0.671   4.514   7.564  0.1638 -0.0671  0.7258
   29CHL1   C13 2098   0.693   4.652   7.405 -0.4332  0.3355  0.2306
   29CHL1   C18 2099   0.654   4.799   7.370  0.1989  0.7075  0.5244
   29CHL1  H18A 2100   0.720   4.870   7.425  0.0165  0.7705  0.6608
   29CHL1  H18B 2101   0.670   4.831   7.265  1.0300 -0.4692  0.2781
   29CHL1  H18C 2102   0.549   4.813   7.401 -1.2771 -2.2071 -2.7929
   29CHL1   C12 2103   0.842   4.618   7.374 -0.7890  0.3538 -0.6462
   29CHL1  H12A 2104   0.904   4.695   7.424  0.0184  0.1280 -1.2909
   29CHL1  H12B 2105   0.850   4.516   7.417 -0.8051  0.9232  0.7410
   29CHL1   C11 2106   0.870   4.629   7.223  0.4069  0.6035  0.4544
   29CHL1  H11A 2107   0.856   4.737   7.200 -0.6786  0.5998  1.0828
   29CHL1  H11B 2108   0.973   4.599   7.195 -0.7369 -0.6692 -2.6387
   29CHL1    C9 2109   0.775   4.545   7.126 -0.0839  0.3808 -0.4758
   29CHL1    H9 2110   0.794   4.437   7.142  1.5542  0.3815 -2.2362
   29CHL1   C10 2111   0.805   4.568   6.972 -0.1025  0.0743 -0.0397
   29CHL1   C19 2112   0.814   4.720   6.940 -0.3768 -0.0716  0.0202
   29CHL1  H19A 2113   0.908   4.766   6.979  0.1772 -0.6615 -0.6066
   29CHL1  H19B 2114   0.814   4.752   6.834  0.4721 -0.0256  0.0324
   29CHL1  H19C 2115   0.724   4.771   6.981  0.7174  1.2781  0.7706
   29CHL1    C1 2116   0.938   4.500   6.925 -0.1496  0.4871  0.1697
   29CHL1   H1A 2117   1.020   4.566   6.958  1.4446 -1.5787  0.4137
   29CHL1   H1B 2118   0.960   4.400   6.967 -1.0828 -0.5612 -1.7826
   29CHL1    C2 2119   0.956   4.477   6.771 -0.0285  0.0361 -0.2768
   29CHL1   H2A 2120   1.034   4.401   6.748 -0.1745  0.0150 -0.6999
   29CHL1   H2B 2121   0.996   4.575   6.738  0.6533 -0.7045 -1.6654
   29CHL1   C20 2122   0.677   4.704   7.671 -0.4838  0.1006  0.0503
   29CHL1   H20 2123   0.610   4.792   7.668  0.0905  0.4896 -3.0211
   29CHL1   C21 2124   0.815   4.751   7.673  0.4737 -0.6063  0.2227
   29CHL1  H21A 2125   0.888   4.674   7.643  1.3201  0.7325 -1.1863
   29CHL1  H21B 2126   0.832   4.792   7.775  2.1428 -0.5723 -0.0553
   29CHL1  H21C 2127   0.824   4.827   7.593 -0.8048  1.3801  1.9087
   29CHL1   C22 2128   0.645   4.621   7.802 -0.4857 -0.2767 -0.4933
   29CHL1  H22A 2129   0.569   4.543   7.779 -2.3041  0.8745  1.4551
   29CHL1  H22B 2130   0.735   4.564   7.835 -0.2091 -0.1523 -1.0103
   29CHL1   C23 2131   0.595   4.702   7.924 -1.2801 -0.4930 -0.6511
   29CHL1  H23A 2132   0.674   4.779   7.940 -2.0239  0.0919  0.2866
   29CHL1  H23B 2133   0.502   4.750   7.887  0.0869  2.3847 -0.5321
   29CHL1   C24 2134   0.571   4.628   8.048 -0.4010  0.0227 -0.3283
   29CHL1  H24A 2135   0.525   4.531   8.019 -2.8875 -0.6270  5.1874
   29CHL1  H24B 2136   0.665   4.612   8.105  0.1394  1.2524 -0.8686
   29CHL1   C25 2137   0.470   4.680   8.153  0.1323  0.0102 -0.6554
   29CHL1   H25 2138   0.400   4.748   8.099  1.0421 -0.8995 -3.0351
   29CHL1   C26 2139   0.387   4.571   8.230 -0.3481  0.5326 -0.4412
   29CHL1  H26A 2140   0.421   4.557   8.335 -1.9663  0.5359  0.0915
   29CHL1  H26B 2141   0.287   4.617   8.245 -1.3806 -2.1590  1.2158
   29CHL1  H26C 2142   0.379   4.475   8.175  1.9652 -0.5431  1.0366
   29CHL1   C27 2143   0.541   4.767   8.255 -0.3753  0.5531  0.0951
   29CHL1  H27A 2144   0.591   4.848   8.199 -0.2945  0.1029 -0.4822
   29CHL1  H27B 2145   0.470   4.808   8.330  1.6762  0.8016  1.9225
   29CHL1  H27C 2146   0.622   4.715   8.311  1.0936  1.0420 -1.5342
   30CHL1    C3 2147   5.579   3.063   7.316 -0.1129  0.0747  0.2960
   30CHL1    H3 2148   5.652   2.980   7.314  0.7159  0.7983  0.6098
   30CHL1    O3 2149   5.540   3.095   7.178 -0.3612  0.4292 -0.6389
   30CHL1   H3' 2150   5.620   3.122   7.132  1.1916 -1.5916  0.7658
   30CHL1    C4 2151   5.467   3.012   7.408 -0.7793  0.1359  0.2536
   30CHL1   H4A 2152   5.392   3.093   7.417  1.9787  3.1014 -2.1354
   30CHL1   H4B 2153   5.416   2.925   7.361 -0.5968 -0.4441  1.1151
   30CHL1    C5 2154   5.523   2.976   7.542 -0.2396 -0.2989  0.6740
   30CHL1    C6 2155   5.526   2.854   7.602 -0.2905 -0.0851  0.3481
   30CHL1    H6 2156   5.479   2.767   7.553 -0.3421 -0.0267  0.2946
   30CHL1    C7 2157   5.582   2.816   7.733  0.1753  0.3159  0.6402
   30CHL1   H7A 2158   5.517   2.742   7.785 -1.5907 -0.2765 -2.2917
   30CHL1   H7B 2159   5.684   2.775   7.713  0.8961  1.8955  1.0246
   30CHL1    C8 2160   5.602   2.933   7.829  0.2413  0.0080 -0.3017
   30CHL1    H8 2161   5.502   2.963   7.866  1.4317  1.7333  1.6616
   30CHL1   C14 2162   5.687   2.903   7.959  0.1825  0.7606 -0.2535
   30CHL1   H14 2163   5.784   2.879   7.910  0.7357 -2.0728  2.1405
   30CHL1   C15 2164   5.648   2.786   8.041 -0.3460 -0.1181  0.1093
   30CHL1  H15A 2165   5.540   2.770   8.060 -0.4711  0.9766  0.3451
   30CHL1  H15B 2166   5.696   2.696   7.998  0.6586 -0.6215  2.1840
   30CHL1   C16 2167   5.723   2.814   8.174  0.2176  0.4277 -0.3486
   30CHL1  H16A 2168   5.676   2.779   8.268  0.2786 -0.2859 -0.5834
   30CHL1  H16B 2169   5.817   2.758   8.160 -0.3447 -0.4247 -0.7373
   30CHL1   C17 2170   5.773   2.965   8.176  0.6557 -0.0291  0.0656
   30CHL1   H17 2171   5.883   2.972   8.161  0.6424 -1.0892 -0.5582
   30CHL1   C13 2172   5.701   3.020   8.055  0.6149  0.4260 -0.0219
   30CHL1   C18 2173   5.560   3.060   8.097  0.3807  0.6908  0.1074
   30CHL1  H18A 2174   5.565   3.154   8.156 -0.5034 -1.0656  3.0717
   30CHL1  H18B 2175   5.489   3.075   8.013 -0.7919 -0.4897  0.8578
   30CHL1  H18C 2176   5.515   2.993   8.173  0.1652  1.2193  0.4459
   30CHL1   C12 2177   5.781   3.122   7.971  0.1085 -0.2681 -0.1123
   30CHL1  H12A 2178   5.808   3.219   8.018  0.6289 -0.0812 -0.7893
   30CHL1  H12B 2179   5.874   3.073   7.936 -0.3689  0.8472 -3.1422
   30CHL1   C11 2180   5.705   3.172   7.843 -0.4434  0.2078 -0.1448
   30CHL1  H11A 2181   5.622   3.224   7.895 -0.7962 -1.8443  1.4215
   30CHL1  H11B 2182   5.752   3.254   7.785 -1.5346  2.6560  2.3069
   30CHL1    C9 2183   5.667   3.050   7.748 -0.3652  0.3003 -0.2690
   30CHL1    H9 2184   5.764   3.006   7.717 -1.5296 -1.7434 -1.1598
   30CHL1   C10 2185   5.585   3.096   7.617 -0.7158 -0.1811 -0.0047
   30CHL1   C19 2186   5.475   3.197   7.648 -0.7228 -0.4728 -0.4965
   30CHL1  H19A 2187   5.445   3.247   7.554  0.7563  3.2253  0.9210
   30CHL1  H19B 2188   5.386   3.140   7.682 -1.6908  0.8659 -0.7693
   30CHL1  H19C 2189   5.501   3.281   7.715 -1.3250  0.2475 -1.1553
   30CHL1    C1 2190   5.692   3.167   7.527  0.5425 -0.3555 -0.2851
   30CHL1   H1A 2191   5.717   3.269   7.565 -0.1474  0.0992 -1.0384
   30CHL1   H1B 2192   5.787   3.112   7.536 -0.7865 -2.4989  0.9471
   30CHL1    C2 2193   5.650   3.183   7.382 -0.3611  0.2815 -0.3775
   30CHL1   H2A 2194   5.743   3.211   7.328 -0.9516 -0.2875 -1.7022
   30CHL1   H2B 2195   5.569   3.260   7.382  1.0193  1.7677 -1.2831
   30CHL1   C20 2196   5.745   3.016   8.318  0.1482  0.5524  0.7935
   30CHL1   H20 2197   5.637   3.012   8.342 -0.3916 -1.1476 -1.7811
   30CHL1   C21 2198   5.782   3.164   8.323  0.9821 -0.2532 -0.0427
   30CHL1  H21A 2199   5.710   3.239   8.287  0.3328 -0.8970 -0.0986
   30CHL1  H21B 2200   5.877   3.196   8.275  1.6329  0.8051  1.9133
   30CHL1  H21C 2201   5.799   3.195   8.429  1.1065 -1.3039  0.2527
   30CHL1   C22 2202   5.823   2.934   8.428  0.0276 -0.6248 -0.6679
   30CHL1  H22A 2203   5.816   2.826   8.404  3.3205 -0.8066 -1.0806
   30CHL1  H22B 2204   5.933   2.951   8.426  0.1100 -1.2499 -2.4479
   30CHL1   C23 2205   5.776   2.964   8.575 -0.1587  0.6775 -0.3492
   30CHL1  H23A 2206   5.806   3.066   8.607  0.9043  0.5793 -1.0205
   30CHL1  H23B 2207   5.666   2.950   8.569  0.0443 -0.3239 -1.8080
   30CHL1   C24 2208   5.834   2.849   8.675  0.2532 -0.5748  0.2978
   30CHL1  H24A 2209   5.801   2.750   8.637 -0.7800 -0.4662  0.8968
   30CHL1  H24B 2210   5.945   2.845   8.662  0.3793 -1.5803  1.6588
   30CHL1   C25 2211   5.780   2.868   8.816 -0.3904 -0.7007  0.7680
   30CHL1   H25 2212   5.812   2.964   8.862  1.5788 -0.5565 -0.8189
   30CHL1   C26 2213   5.621   2.870   8.825  0.1811 -0.0221  0.3103
   30CHL1  H26A 2214   5.588   2.866   8.931  1.6502 -2.1194  0.7303
   30CHL1  H26B 2215   5.575   2.962   8.784  3.2027  1.3364 -0.2050
   30CHL1  H26C 2216   5.584   2.787   8.761 -1.0314  0.5501  0.2652
   30CHL1   C27 2217   5.833   2.759   8.898  0.1756 -0.1653 -0.1399
   30CHL1  H27A 2218   5.773   2.667   8.883 -0.2456  0.2856 -1.2558
   30CHL1  H27B 2219   5.940   2.736   8.878 -0.2037 -1.7767 -0.4226
   30CHL1  H27C 2220   5.834   2.792   9.004 -3.3486  1.0495 -0.4131
   31CHL1    C3 2221   5.318   4.908   6.608 -0.2638 -0.1956  0.5126
   31CHL1    H3 2222   5.404   4.847   6.573 -0.1428  0.2420  0.0537
   31CHL1    O3 2223   5.275   4.988   6.500  0.4336 -0.2843 -0.2311
   31CHL1   H3' 2224   5.330   5.068   6.494 -2.1547  1.5345 -0.4410
   31CHL1    C4 2225   5.201   4.830   6.665 -0.3889  0.6403 -0.0932
   31CHL1   H4A 2226   5.106   4.887   6.677 -0.9063 -0.2477  0.0142
   31CHL1   H4B 2227   5.172   4.756   6.588  0.5837  1.8430 -1.6544
   31CHL1    C5 2228   5.229   4.754   6.796  0.6512 -0.3815  0.0038
   31CHL1    C6 2229   5.213   4.625   6.818  0.6371  0.8003  0.7716
   31CHL1    H6 2230   5.169   4.565   6.737  2.5307 -1.4340  1.3521
   31CHL1    C7 2231   5.231   4.544   6.952  0.0872 -1.0012  0.5423
   31CHL1   H7A 2232   5.147   4.472   6.962  0.7979 -1.6576  1.9197
   31CHL1   H7B 2233   5.321   4.478   6.950  0.8272  0.0088  0.2417
   31CHL1    C8 2234   5.247   4.641   7.072 -0.3240  0.7476  0.0397
   31CHL1    H8 2235   5.150   4.681   7.108 -0.5692 -0.9043  1.3005
   31CHL1   C14 2236   5.318   4.574   7.188 -0.0634 -0.0595 -0.5362
   31CHL1   H14 2237   5.418   4.542   7.152  0.3828  1.0645 -0.3464
   31CHL1   C15 2238   5.262   4.432   7.237  0.2576  0.8682  1.0658
   31CHL1  H15A 2239   5.151   4.423   7.240  0.2600  0.5672  0.2011
   31CHL1  H15B 2240   5.294   4.356   7.163  0.3553  0.2576  1.7258
   31CHL1   C16 2241   5.323   4.414   7.375 -0.1354 -1.1873 -0.2179
   31CHL1  H16A 2242   5.244   4.418   7.452  0.6409  1.2435  0.4797
   31CHL1  H16B 2243   5.376   4.317   7.390  0.7906 -0.2509  2.9696
   31CHL1   C17 2244   5.418   4.540   7.398  0.1526 -0.6224 -0.1439
   31CHL1   H17 2245   5.515   4.509   7.353 -0.4106 -3.9716  0.8178
   31CHL1   C13 2246   5.355   4.653   7.312  0.3698 -0.3427 -0.6492
   31CHL1   C18 2247   5.222   4.704   7.375  0.0742 -0.0641 -0.2857
   31CHL1  H18A 2248   5.155   4.616   7.382 -1.1574  0.8979  0.1573
   31CHL1  H18B 2249   5.231   4.742   7.479 -2.3213 -0.6520  0.1680
   31CHL1  H18C 2250   5.177   4.774   7.302  2.5032  2.2121  0.3176
   31CHL1   C12 2251   5.449   4.770   7.263 -0.2094  0.5045 -0.3424
   31CHL1  H12A 2252   5.480   4.840   7.344  0.1796 -1.0515  0.8875
   31CHL1  H12B 2253   5.546   4.730   7.228  0.6997  2.5846 -0.2961
   31CHL1   C11 2254   5.386   4.841   7.143 -0.0549 -1.0018  0.4408
   31CHL1  H11A 2255   5.307   4.910   7.178 -1.0558 -1.7365 -0.3556
   31CHL1  H11B 2256   5.470   4.908   7.116  0.4547 -2.1422 -0.8708
   31CHL1    C9 2257   5.338   4.749   7.025 -0.6042  0.2122  0.0241
   31CHL1    H9 2258   5.424   4.697   6.978 -1.8629 -0.8370 -1.1585
   31CHL1   C10 2259   5.286   4.838   6.907 -0.0395  0.8791 -0.3871
   31CHL1   C19 2260   5.180   4.944   6.954 -1.0800  0.2525 -0.1933
   31CHL1  H19A 2261   5.101   4.887   7.008 -0.2216  0.1378  0.9749
   31CHL1  H19B 2262   5.221   5.027   7.015 -2.4242  1.4496 -0.8829
   31CHL1  H19C 2263   5.131   5.006   6.876 -0.6679 -0.0814 -0.7152
   31CHL1    C1 2264   5.401   4.916   6.849 -0.0281 -0.2300  0.2815
   31CHL1   H1A 2265   5.435   4.973   6.938  1.0364 -1.5202  0.7046
   31CHL1   H1B 2266   5.491   4.855   6.825 -0.3672 -1.1775  1.3801
   31CHL1    C2 2267   5.375   4.997   6.722  0.1029 -0.2933  0.0404
   31CHL1   H2A 2268   5.473   5.035   6.686  0.0672 -0.7476 -0.5456
   31CHL1   H2B 2269   5.300   5.071   6.758 -1.7717 -1.9455 -0.3370
   31CHL1   C20 2270   5.435   4.572   7.547  0.5039 -0.3243 -0.0776
   31CHL1   H20 2271   5.343   4.609   7.596 -0.0247  0.7719 -1.8433
   31CHL1   C21 2272   5.550   4.680   7.571 -0.1731  0.3550  0.0152
   31CHL1  H21A 2273   5.511   4.783   7.562 -1.3108 -0.0024  0.7277
   31CHL1  H21B 2274   5.634   4.672   7.499  1.2317  1.7518  1.4407
   31CHL1  H21C 2275   5.592   4.680   7.674 -0.5562  0.0835  0.1700
   31CHL1   C22 2276   5.470   4.443   7.628 -0.0024 -0.1016  0.2308
   31CHL1  H22A 2277   5.384   4.373   7.618 -1.4254  1.7779 -1.1833
   31CHL1  H22B 2278   5.565   4.397   7.593  1.2326  2.6920 -0.1661
   31CHL1   C23 2279   5.496   4.467   7.778 -0.4267  0.0053 -0.2931
   31CHL1  H23A 2280   5.484   4.369   7.828  0.4261 -0.9251 -1.8945
   31CHL1  H23B 2281   5.604   4.490   7.782  0.0619 -2.4930  2.0113
   31CHL1   C24 2282   5.404   4.575   7.851 -0.8019 -0.1430  0.0869
   31CHL1  H24A 2283   5.423   4.676   7.807 -1.3752 -0.2671 -0.4532
   31CHL1  H24B 2284   5.299   4.556   7.823 -0.5537  0.0265 -0.9921
   31CHL1   C25 2285   5.404   4.573   7.996  0.0181 -0.4116  0.2018
   31CHL1   H25 2286   5.407   4.465   8.020  2.6921 -0.2693  0.6259
   31CHL1   C26 2287   5.521   4.643   8.063 -0.0203  0.1655 -0.3028
   31CHL1  H26A 2288   5.528   4.752   8.047 -2.7921  0.7225  1.7655
   31CHL1  H26B 2289   5.508   4.619   8.171  1.9025 -0.0802 -0.1115
   31CHL1  H26C 2290   5.614   4.595   8.026 -1.1644 -0.8379 -1.9374
   31CHL1   C27 2291   5.276   4.614   8.074  0.1781  0.8291  0.2238
   31CHL1  H27A 2292   5.268   4.725   8.076  1.3580  0.9228  0.0955
   31CHL1  H27B 2293   5.284   4.590   8.182  1.5678  1.1979  0.2189
   31CHL1  H27C 2294   5.182   4.566   8.041  0.5625  0.9189 -1.0211
   32CHL1    C3 2295   6.334   2.976   6.934 -0.4292  0.0820 -0.9885
   32CHL1    H3 2296   6.435   3.016   6.955 -0.9011  1.5958 -1.5162
   32CHL1    O3 2297   6.317   2.949   6.798  0.5291  0.0452  0.2236
   32CHL1   H3' 2298   6.230   2.983   6.773 -0.7147 -1.4262  2.3188
   32CHL1    C4 2299   6.312   2.858   7.027  0.6619  0.0767  0.3452
   32CHL1   H4A 2300   6.203   2.836   7.020  0.4829  0.7172  1.0028
   32CHL1   H4B 2301   6.368   2.766   7.000  0.0318 -0.3562  0.5088
   32CHL1    C5 2302   6.344   2.895   7.173 -0.2150  0.1671 -0.4473
   32CHL1    C6 2303   6.445   2.834   7.234  0.0836  0.0236  0.5899
   32CHL1    H6 2304   6.508   2.754   7.193  1.3402  0.3982  1.7398
   32CHL1    C7 2305   6.469   2.876   7.370 -0.6444 -0.3195 -0.7751
   32CHL1   H7A 2306   6.493   2.788   7.434  0.3413  0.4973 -0.0163
   32CHL1   H7B 2307   6.560   2.938   7.378 -0.9356 -0.2670  3.0195
   32CHL1    C8 2308   6.347   2.946   7.444 -0.9248  0.0808  0.2702
   32CHL1    H8 2309   6.277   2.861   7.452  1.4037 -1.8379  0.9487
   32CHL1   C14 2310   6.390   2.993   7.585 -0.2787  0.1883 -0.7139
   32CHL1   H14 2311   6.475   3.061   7.566  0.0965  0.3729  1.4828
   32CHL1   C15 2312   6.432   2.883   7.687  0.0602 -0.0554  1.0160
   32CHL1  H15A 2313   6.384   2.783   7.683  2.8177 -1.3362 -2.4904
   32CHL1  H15B 2314   6.541   2.867   7.671  0.1400  1.0143  0.4677
   32CHL1   C16 2315   6.415   2.959   7.822 -0.2286  0.4712 -0.3557
   32CHL1  H16A 2316   6.346   2.894   7.880 -0.3234  0.3334 -0.6242
   32CHL1  H16B 2317   6.511   2.969   7.877  0.7758 -1.7552 -1.6227
   32CHL1   C17 2318   6.349   3.089   7.796 -0.7294  0.8660 -0.5063
   32CHL1   H17 2319   6.435   3.157   7.780  2.7601 -3.2447 -0.1852
   32CHL1   C13 2320   6.283   3.075   7.663 -0.3175  0.5991 -0.5958
   32CHL1   C18 2321   6.148   2.987   7.673  0.2174 -0.1475 -0.4983
   32CHL1  H18A 2322   6.127   2.934   7.577  0.4835  1.5069 -1.4820
   32CHL1  H18B 2323   6.147   2.912   7.755  0.1899 -0.6897 -0.9873
   32CHL1  H18C 2324   6.070   3.065   7.686  1.8846  1.1127  2.2237
   32CHL1   C12 2325   6.261   3.195   7.571 -0.3676  0.0218 -0.1643
   32CHL1  H12A 2326   6.172   3.256   7.599  0.2618  1.6726 -1.6486
   32CHL1  H12B 2327   6.355   3.254   7.576 -0.4080  0.2151 -1.5908
   32CHL1   C11 2328   6.208   3.155   7.438 -0.0722  0.0140  0.8098
   32CHL1  H11A 2329   6.109   3.105   7.442  1.1248 -2.4439  0.5788
   32CHL1  H11B 2330   6.193   3.247   7.376 -0.7116 -2.0958 -2.2923
   32CHL1    C9 2331   6.299   3.062   7.359  0.2584 -0.3220 -0.7945
   32CHL1    H9 2332   6.395   3.117   7.346  0.6899 -1.1166 -1.0335
   32CHL1   C10 2333   6.252   3.015   7.222  0.3498 -0.1900 -0.6431
   32CHL1   C19 2334   6.109   2.958   7.236  0.3814  0.0289  0.5060
   32CHL1  H19A 2335   6.063   2.932   7.138 -0.0208 -0.7425  0.8957
   32CHL1  H19B 2336   6.101   2.875   7.309  2.5050  0.8927  1.7706
   32CHL1  H19C 2337   6.040   3.041   7.262  0.5778  1.0354 -2.0440
   32CHL1    C1 2338   6.265   3.130   7.113  0.2431  0.8152 -0.1851
   32CHL1   H1A 2339   6.200   3.216   7.141 -0.3195  0.2859  0.1351
   32CHL1   H1B 2340   6.365   3.179   7.122 -1.0683  3.4522  0.5861
   32CHL1    C2 2341   6.238   3.086   6.968  0.3934 -0.8567  0.1623
   32CHL1   H2A 2342   6.254   3.172   6.900  1.6545 -1.5822 -0.4815
   32CHL1   H2B 2343   6.129   3.068   6.962  0.3145 -0.0058 -1.0042
   32CHL1   C20 2344   6.268   3.146   7.917  0.6571  0.6263  0.1256
   32CHL1   H20 2345   6.174   3.089   7.925  0.4317  1.1697  1.4139
   32CHL1   C21 2346   6.226   3.292   7.871  0.2777 -0.0662 -0.3120
   32CHL1  H21A 2347   6.310   3.352   7.832  0.4080  0.5248  0.8590
   32CHL1  H21B 2348   6.182   3.341   7.961  0.2351  0.2997 -0.5325
   32CHL1  H21C 2349   6.133   3.282   7.810 -1.7212  0.8016  2.4860
   32CHL1   C22 2350   6.352   3.143   8.051 -0.0992  0.9822 -0.2434
   32CHL1  H22A 2351   6.379   3.037   8.071 -1.4944  0.8586  1.0482
   32CHL1  H22B 2352   6.445   3.202   8.042 -0.8459  2.1891 -0.1184
   32CHL1   C23 2353   6.284   3.199   8.175  0.6177 -0.3790 -0.2822
   32CHL1  H23A 2354   6.237   3.298   8.155  0.3234 -1.1087 -3.5581
   32CHL1  H23B 2355   6.193   3.138   8.191  1.5854 -1.9758 -0.6984
   32CHL1   C24 2356   6.376   3.182   8.294 -0.1219  0.7141  0.1215
   32CHL1  H24A 2357   6.405   3.075   8.301  0.5599  0.9643  1.1986
   32CHL1  H24B 2358   6.477   3.226   8.284  0.5191 -0.5733  0.7548
   32CHL1   C25 2359   6.318   3.208   8.434 -0.4704 -1.2241 -0.4462
   32CHL1   H25 2360   6.297   3.317   8.432 -2.2929 -1.4647  2.4216
   32CHL1   C26 2361   6.184   3.125   8.461 -0.2318 -0.1533 -0.9647
   32CHL1  H26A 2362   6.104   3.176   8.403 -1.7010 -1.0158  0.2734
   32CHL1  H26B 2363   6.189   3.020   8.426 -0.7626 -0.5386  0.0714
   32CHL1  H26C 2364   6.152   3.126   8.568  0.6133 -0.0851 -0.7073
   32CHL1   C27 2365   6.427   3.180   8.541 -0.9996 -0.0498 -1.3088
   32CHL1  H27A 2366   6.459   3.073   8.541  0.1415  0.2699 -2.7789
   32CHL1  H27B 2367   6.508   3.249   8.509 -0.4300  0.8020  1.7852
   32CHL1  H27C 2368   6.393   3.216   8.640 -1.9250 -2.1852 -0.8218
   33CHL1    C3 2369   0.777   2.699   6.815  0.2062  0.1892 -0.2161
   33CHL1    H3 2370   0.692   2.630   6.833 -1.3666  1.6733 -1.7068
   33CHL1    O3 2371   0.837   2.688   6.679  0.2231  0.0982 -0.4457
   33CHL1   H3' 2372   0.876   2.775   6.670 -0.8780  1.3495  4.8638
   33CHL1    C4 2373   0.735   2.852   6.825 -0.3711 -0.2304 -0.5627
   33CHL1   H4A 2374   0.816   2.917   6.788 -1.7751  1.2618 -1.0490
   33CHL1   H4B 2375   0.653   2.870   6.753 -1.5531  1.6113  1.1847
   33CHL1    C5 2376   0.694   2.889   6.967 -0.2368 -0.9744 -0.2894
   33CHL1    C6 2377   0.568   2.925   6.991 -0.4464  0.0577 -0.0650
   33CHL1    H6 2378   0.490   2.933   6.914 -0.9340  0.7289  0.4885
   33CHL1    C7 2379   0.520   2.969   7.129  0.0045 -0.3455  0.7766
   33CHL1   H7A 2380   0.484   3.072   7.107  1.3491 -0.1945 -0.8457
   33CHL1   H7B 2381   0.436   2.903   7.157  0.1939 -0.8739  0.1106
   33CHL1    C8 2382   0.641   2.986   7.231  0.7567 -0.2798  0.1943
   33CHL1    H8 2383   0.696   3.080   7.212 -0.1868  0.4339  0.9575
   33CHL1   C14 2384   0.577   2.987   7.373  0.6748  0.6787  0.3337
   33CHL1   H14 2385   0.525   2.891   7.394 -0.8051  1.3055 -0.4518
   33CHL1   C15 2386   0.468   3.095   7.404 -0.0267 -0.2453  0.2750
   33CHL1  H15A 2387   0.501   3.191   7.358  1.1669  0.0875  1.7731
   33CHL1  H15B 2388   0.374   3.076   7.347 -0.7479 -0.4888  1.5295
   33CHL1   C16 2389   0.460   3.101   7.557  0.1827  0.0075 -0.6585
   33CHL1  H16A 2390   0.479   3.205   7.591 -1.6123  0.0984  0.1173
   33CHL1  H16B 2391   0.365   3.062   7.600 -0.2348  2.0374  0.3322
   33CHL1   C17 2392   0.578   3.012   7.604  1.3052  0.1624  0.9829
   33CHL1   H17 2393   0.538   2.909   7.599 -0.3313  0.8028  0.3606
   33CHL1   C13 2394   0.676   3.006   7.482  0.5662 -0.3142 -0.0278
   33CHL1   C18 2395   0.760   3.139   7.465 -0.8096  0.4303 -0.0649
   33CHL1  H18A 2396   0.828   3.156   7.551  0.5501 -1.0829 -0.8310
   33CHL1  H18B 2397   0.832   3.128   7.381 -0.6712 -1.0325  0.2390
   33CHL1  H18C 2398   0.696   3.229   7.449 -0.1824  0.6960 -1.1929
   33CHL1   C12 2399   0.772   2.883   7.481  0.7511 -0.0348 -0.4595
   33CHL1  H12A 2400   0.854   2.900   7.554 -0.7748  0.9885  1.0494
   33CHL1  H12B 2401   0.714   2.791   7.503  0.3300  0.3947  0.2568
   33CHL1   C11 2402   0.830   2.857   7.349  0.0596 -0.4210  0.3906
   33CHL1  H11A 2403   0.905   2.938   7.332  0.2205 -0.4236  1.0563
   33CHL1  H11B 2404   0.889   2.764   7.337  0.7102  0.0892 -0.4458
   33CHL1    C9 2405   0.733   2.868   7.227  0.3528 -0.0046 -0.3250
   33CHL1    H9 2406   0.673   2.774   7.233  1.0522 -0.4025  0.6592
   33CHL1   C10 2407   0.796   2.865   7.077  0.4767  0.0611 -0.5974
   33CHL1   C19 2408   0.911   2.969   7.059 -0.4091 -0.2257 -0.2512
   33CHL1  H19A 2409   0.946   2.978   6.954 -1.3296  0.4850 -0.5004
   33CHL1  H19B 2410   0.880   3.069   7.095 -0.0537 -0.3815  0.4930
   33CHL1  H19C 2411   0.996   2.936   7.123  0.1845 -4.8687 -3.2090
   33CHL1    C1 2412   0.853   2.715   7.061  0.2073  0.0403 -0.4158
   33CHL1   H1A 2413   0.943   2.687   7.120  0.6068  0.6637 -0.7122
   33CHL1   H1B 2414   0.786   2.635   7.097  0.2037  0.2675  0.0891
   33CHL1    C2 2415   0.890   2.670   6.915  0.1888 -0.6774  0.8652
   33CHL1   H2A 2416   0.931   2.566   6.914  1.3119 -0.2852 -3.1088
   33CHL1   H2B 2417   0.980   2.730   6.889 -0.0397  0.3235  2.3632
   33CHL1   C20 2418   0.618   3.038   7.749 -0.3475  0.0385  0.2586
   33CHL1   H20 2419   0.665   3.139   7.751  0.0617 -0.1736  3.0000
   33CHL1   C21 2420   0.726   2.941   7.791 -0.2083  0.4870 -0.5147
   33CHL1  H21A 2421   0.738   2.952   7.901  0.2351  0.3708 -0.5521
   33CHL1  H21B 2422   0.819   2.966   7.736 -0.3944  1.9621 -0.1746
   33CHL1  H21C 2423   0.698   2.839   7.757  3.0963 -0.5759 -0.1715
   33CHL1   C22 2424   0.498   3.042   7.852 -0.2510  0.5097  0.1607
   33CHL1  H22A 2425   0.414   3.099   7.806  1.1094  0.1277 -2.9607
   33CHL1  H22B 2426   0.472   2.939   7.884  0.6956  0.1266 -0.2883
   33CHL1   C23 2427   0.526   3.118   7.986  0.1015 -0.3700 -0.5871
   33CHL1  H23A 2428   0.622   3.086   8.033  1.2908 -0.3924 -2.9941
   33CHL1  H23B 2429   0.549   3.223   7.960  1.9154 -0.5054  0.3985
   33CHL1   C24 2430   0.423   3.097   8.099 -0.6990 -0.1508 -1.0713
   33CHL1  H24A 2431   0.338   3.151   8.055 -2.2055 -3.2905 -2.1592
   33CHL1  H24B 2432   0.397   2.989   8.108  1.4664 -0.7435 -1.5232
   33CHL1   C25 2433   0.470   3.153   8.230 -0.6291 -0.1954 -0.3432
   33CHL1   H25 2434   0.571   3.108   8.239 -0.3799  0.2775 -0.7553
   33CHL1   C26 2435   0.482   3.303   8.233  0.0093 -0.1305  0.2702
   33CHL1  H26A 2436   0.379   3.338   8.209 -0.2915 -1.8694 -1.1191
   33CHL1  H26B 2437   0.517   3.351   8.327 -0.6108  1.7140 -0.4020
   33CHL1  H26C 2438   0.553   3.341   8.157 -0.4247  2.4443  1.0963
   33CHL1   C27 2439   0.387   3.097   8.347  0.1593  0.3302 -0.2792
   33CHL1  H27A 2440   0.370   2.988   8.349  2.2602  0.0064  1.6844
   33CHL1  H27B 2441   0.436   3.136   8.439  1.7027 -0.6541 -0.6773
   33CHL1  H27C 2442   0.282   3.133   8.358 -0.3279 -1.0752 -0.2920
   34CHL1    C3 2443   1.667   2.438   7.189 -0.1484  0.4760 -0.3461
   34CHL1    H3 2444   1.616   2.537   7.184  1.1262  1.2423  1.3097
   34CHL1    O3 2445   1.675   2.394   7.053  0.3056  0.2060 -0.1861
   34CHL1   H3' 2446   1.655   2.302   7.037  2.0385 -0.4092  1.0209
   34CHL1    C4 2447   1.809   2.458   7.246 -0.6264  0.8346  0.1574
   34CHL1   H4A 2448   1.880   2.373   7.240 -2.2779 -0.5704  0.2251
   34CHL1   H4B 2449   1.854   2.536   7.181 -0.2191  0.9751  0.6085
   34CHL1    C5 2450   1.799   2.506   7.387  0.4140  0.3522 -0.4087
   34CHL1    C6 2451   1.855   2.617   7.421 -0.4562  0.3251  0.0243
   34CHL1    H6 2452   1.913   2.677   7.349  1.2078 -2.6355 -1.1690
   34CHL1    C7 2453   1.840   2.688   7.557  0.1121 -0.1544  0.6088
   34CHL1   H7A 2454   1.931   2.742   7.592  2.4581 -2.9943 -0.8225
   34CHL1   H7B 2455   1.754   2.757   7.542 -0.7124 -1.6884 -2.0185
   34CHL1    C8 2456   1.809   2.580   7.661  0.7741 -0.0574  0.6470
   34CHL1    H8 2457   1.906   2.535   7.690 -0.0214 -2.0863  0.2604
   34CHL1   C14 2458   1.750   2.655   7.775  0.5492 -0.3364 -0.0059
   34CHL1   H14 2459   1.646   2.680   7.744  1.2244  0.8550 -1.3868
   34CHL1   C15 2460   1.817   2.788   7.815  0.8791 -0.2576  0.1375
   34CHL1  H15A 2461   1.924   2.811   7.799  0.4454  2.1422  0.4157
   34CHL1  H15B 2462   1.759   2.871   7.769  1.7793  0.1785 -0.2068
   34CHL1   C16 2463   1.796   2.794   7.971 -0.8771  0.6888 -0.0461
   34CHL1  H16A 2464   1.890   2.767   8.024 -1.5508 -0.0658  0.7812
   34CHL1  H16B 2465   1.763   2.897   7.994 -2.7625  0.5675 -2.0074
   34CHL1   C17 2466   1.698   2.681   8.009 -0.0632 -0.5462  0.5646
   34CHL1   H17 2467   1.597   2.724   7.988  0.6663  1.6026  1.2433
   34CHL1   C13 2468   1.725   2.572   7.905 -0.1853  0.6478 -0.0116
   34CHL1   C18 2469   1.857   2.502   7.953 -0.4645 -0.1026 -0.3457
   34CHL1  H18A 2470   1.900   2.438   7.874  0.4507 -0.5393  0.4982
   34CHL1  H18B 2471   1.937   2.578   7.969 -0.5791  0.1322 -0.8983
   34CHL1  H18C 2472   1.845   2.436   8.042  1.1502 -1.1133 -0.8517
   34CHL1   C12 2473   1.619   2.467   7.867  0.5478  0.1551  0.5475
   34CHL1  H12A 2474   1.607   2.390   7.945  1.2851  0.7319  1.2388
   34CHL1  H12B 2475   1.519   2.516   7.858  0.8769  0.3140 -2.9250
   34CHL1   C11 2476   1.659   2.384   7.742  0.7239  0.1649  0.0445
   34CHL1  H11A 2477   1.740   2.313   7.771  1.1934  0.1876 -1.1812
   34CHL1  H11B 2478   1.572   2.322   7.713  0.6970  1.6093 -3.1783
   34CHL1    C9 2479   1.706   2.476   7.626 -0.0292  0.0193 -0.2672
   34CHL1    H9 2480   1.615   2.538   7.614 -0.9339 -1.4151 -1.1112
   34CHL1   C10 2481   1.725   2.416   7.484 -0.5148  0.2053 -0.5477
   34CHL1   C19 2482   1.811   2.290   7.509  0.2924 -0.6014 -0.1266
   34CHL1  H19A 2483   1.914   2.316   7.540  1.5762 -2.1881 -2.8110
   34CHL1  H19B 2484   1.781   2.215   7.585  0.4178 -0.3070  0.2117
   34CHL1  H19C 2485   1.819   2.233   7.414 -0.3578  1.5070 -1.4758
   34CHL1    C1 2486   1.580   2.389   7.417 -0.6014 -0.8593  0.0726
   34CHL1   H1A 2487   1.530   2.318   7.486  0.4897 -1.5004  0.2090
   34CHL1   H1B 2488   1.529   2.488   7.423  0.4877 -0.2036 -1.2128
   34CHL1    C2 2489   1.584   2.342   7.277  0.3311 -0.8771  0.4606
   34CHL1   H2A 2490   1.479   2.330   7.243  0.9271 -0.3760 -1.6599
   34CHL1   H2B 2491   1.640   2.247   7.262  2.2371  0.3140 -0.1474
   34CHL1   C20 2492   1.696   2.643   8.156  0.4944  0.7036  0.1474
   34CHL1   H20 2493   1.791   2.599   8.191  0.3710  1.3318  1.2653
   34CHL1   C21 2494   1.581   2.540   8.182 -0.3185 -0.0504  0.0921
   34CHL1  H21A 2495   1.609   2.438   8.151  1.0778 -0.0858  1.4108
   34CHL1  H21B 2496   1.483   2.582   8.150  0.3527  0.0658 -1.8853
   34CHL1  H21C 2497   1.571   2.525   8.292  0.0142 -0.3324  0.0850
   34CHL1   C22 2498   1.673   2.764   8.253  0.4756  0.3109 -0.1162
   34CHL1  H22A 2499   1.652   2.726   8.355 -3.4026  0.7096 -0.6888
   34CHL1  H22B 2500   1.767   2.823   8.248 -0.5772  1.9677 -1.0960
   34CHL1   C23 2501   1.558   2.858   8.218  0.1598  0.4447  0.3173
   34CHL1  H23A 2502   1.555   2.895   8.113  2.1983  0.8790  0.3885
   34CHL1  H23B 2503   1.466   2.801   8.242  0.2067 -0.1641 -0.9492
   34CHL1   C24 2504   1.564   2.989   8.293  0.2398 -0.1562  1.1284
   34CHL1  H24A 2505   1.581   2.967   8.400 -0.9246  0.3870  1.4274
   34CHL1  H24B 2506   1.649   3.051   8.258  2.1162 -1.5705  3.0917
   34CHL1   C25 2507   1.440   3.075   8.274 -0.0012  0.1836  0.1393
   34CHL1   H25 2508   1.420   3.106   8.169 -1.0831 -0.3462  0.1825
   34CHL1   C26 2509   1.323   3.000   8.335 -0.8719 -0.7411 -0.5751
   34CHL1  H26A 2510   1.235   3.063   8.357 -2.8345 -2.5350 -2.9553
   34CHL1  H26B 2511   1.282   2.918   8.272  1.0690 -1.1605 -1.3474
   34CHL1  H26C 2512   1.344   2.940   8.426 -3.0071 -2.4316 -1.1692
   34CHL1   C27 2513   1.454   3.203   8.357  0.7136 -0.3850 -0.1971
   34CHL1  H27A 2514   1.373   3.277   8.338  1.1449  0.0463 -0.3530
   34CHL1  H27B 2515   1.443   3.171   8.463 -3.1645  1.8920  0.1979
   34CHL1  H27C 2516   1.544   3.264   8.337  0.2187  0.4292 -0.0064
   35CHL1    C3 2517   4.517   3.062   7.206  0.0641 -0.5096  0.0541
   35CHL1    H3 2518   4.416   3.108   7.208 -0.5586 -1.8006 -0.7398
   35CHL1    O3 2519   4.566   3.082   7.075  0.5880 -0.0358  0.1088
   35CHL1   H3' 2520   4.614   3.000   7.061  1.7804  0.7041 -0.1676
   35CHL1    C4 2521   4.608   3.144   7.306  0.7047  0.4471  0.4082
   35CHL1   H4A 2522   4.710   3.104   7.287  1.0354  1.3252  0.3504
   35CHL1   H4B 2523   4.611   3.251   7.278 -1.4162  0.4586  0.1094
   35CHL1    C5 2524   4.569   3.110   7.448  0.4852 -0.6329  0.1763
   35CHL1    C6 2525   4.556   3.218   7.525 -1.4887 -0.1511  0.5510
   35CHL1    H6 2526   4.586   3.316   7.485  2.3246 -1.1690  0.6904
   35CHL1    C7 2527   4.533   3.215   7.668 -0.3311 -0.4093 -0.4524
   35CHL1   H7A 2528   4.592   3.296   7.716  0.0426  0.0491 -1.6579
   35CHL1   H7B 2529   4.425   3.230   7.690 -0.1707  1.6069 -0.8979
   35CHL1    C8 2530   4.570   3.072   7.720 -0.0384  0.0546 -0.5320
   35CHL1    H8 2531   4.679   3.071   7.698 -0.3927  1.6428 -2.5302
   35CHL1   C14 2532   4.532   3.056   7.861  0.0812 -0.2602  0.4084
   35CHL1   H14 2533   4.425   3.082   7.878 -0.2436 -2.5903  2.1034
   35CHL1   C15 2534   4.599   3.158   7.961 -1.1396  0.4944 -0.5254
   35CHL1  H15A 2535   4.702   3.176   7.926 -0.3595 -0.8287  0.9962
   35CHL1  H15B 2536   4.543   3.251   7.982  1.0550  2.0403 -1.4007
   35CHL1   C16 2537   4.615   3.071   8.093  0.9464  0.3522 -0.2316
   35CHL1  H16A 2538   4.721   3.054   8.121  0.5620  1.9619  2.3577
   35CHL1  H16B 2539   4.557   3.127   8.169  0.0994  0.5745 -1.0237
   35CHL1   C17 2540   4.535   2.942   8.064 -0.1124  0.2495  0.2042
   35CHL1   H17 2541   4.426   2.952   8.083 -0.2481 -1.2196  0.2718
   35CHL1   C13 2542   4.555   2.919   7.915  0.5481  0.2011  0.7383
   35CHL1   C18 2543   4.697   2.876   7.886 -0.2915  0.3638  0.2795
   35CHL1  H18A 2544   4.726   2.869   7.779  1.0558  4.0601  0.3456
   35CHL1  H18B 2545   4.768   2.942   7.941  1.4329 -1.1125 -0.1126
   35CHL1  H18C 2546   4.721   2.774   7.922 -3.8876 -0.2502  1.0425
   35CHL1   C12 2547   4.459   2.817   7.846  0.4541  0.4476 -0.2449
   35CHL1  H12A 2548   4.470   2.714   7.886  0.7859  0.5379 -0.1018
   35CHL1  H12B 2549   4.351   2.841   7.859  0.6753  0.0990  2.4208
   35CHL1   C11 2550   4.482   2.825   7.690  0.2977 -0.3387  0.0439
   35CHL1  H11A 2551   4.573   2.762   7.676  1.8016  1.5001  1.1743
   35CHL1  H11B 2552   4.406   2.764   7.637  0.4904  1.3914 -2.3142
   35CHL1    C9 2553   4.493   2.970   7.636 -0.1616  0.2223  0.7169
   35CHL1    H9 2554   4.390   3.010   7.629 -0.1739  0.5026  2.3863
   35CHL1   C10 2555   4.549   2.965   7.489 -0.4547 -0.0385  0.2800
   35CHL1   C19 2556   4.686   2.889   7.488  0.0446  0.8955 -0.2037
   35CHL1  H19A 2557   4.745   2.922   7.400  2.5497 -1.9807  0.3114
   35CHL1  H19B 2558   4.750   2.896   7.578  0.4406 -0.7359 -0.3461
   35CHL1  H19C 2559   4.662   2.782   7.470  0.7634  0.3198  2.1613
   35CHL1    C1 2560   4.451   2.900   7.391  0.2749 -0.2316 -0.3398
   35CHL1   H1A 2561   4.433   2.796   7.426 -0.2239  0.5330  1.7630
   35CHL1   H1B 2562   4.349   2.941   7.407  1.0809  1.3652  1.0020
   35CHL1    C2 2563   4.499   2.911   7.245  0.0171 -0.5962 -0.1177
   35CHL1   H2A 2564   4.428   2.854   7.181 -1.0642 -1.4321  1.7759
   35CHL1   H2B 2565   4.596   2.859   7.228  0.5520  0.8706 -1.6482
   35CHL1   C20 2566   4.579   2.824   8.160  0.2610 -0.1824  0.1032
   35CHL1   H20 2567   4.652   2.765   8.100  0.5796 -0.0497  0.3606
   35CHL1   C21 2568   4.452   2.753   8.187  0.2968  0.2472 -0.1086
   35CHL1  H21A 2569   4.465   2.669   8.259  0.3537  0.1329 -0.2496
   35CHL1  H21B 2570   4.420   2.701   8.094 -0.0223 -1.6411  1.0261
   35CHL1  H21C 2571   4.377   2.824   8.230 -1.0300  0.0700 -2.0637
   35CHL1   C22 2572   4.658   2.872   8.283  0.1026 -0.2398 -0.3558
   35CHL1  H22A 2573   4.761   2.895   8.247 -1.3239  4.4741 -1.8088
   35CHL1  H22B 2574   4.602   2.956   8.328 -0.6110 -1.3359  0.8140
   35CHL1   C23 2575   4.689   2.765   8.392  0.0550  0.2293 -1.0263
   35CHL1  H23A 2576   4.595   2.724   8.435 -0.2988  3.4219  1.4182
   35CHL1  H23B 2577   4.752   2.689   8.341 -0.5607 -1.6798  0.9792
   35CHL1   C24 2578   4.759   2.833   8.512  0.3049 -0.1050 -0.5729
   35CHL1  H24A 2579   4.833   2.906   8.475 -1.5027  1.5664 -0.9569
   35CHL1  H24B 2580   4.681   2.882   8.574  0.3650 -1.5691  0.7058
   35CHL1   C25 2581   4.836   2.732   8.605 -0.4849 -0.0650  0.2320
   35CHL1   H25 2582   4.765   2.650   8.625 -1.6452  0.1974 -2.5516
   35CHL1   C26 2583   4.963   2.679   8.536 -0.1377 -0.3274  0.2806
   35CHL1  H26A 2584   4.942   2.586   8.480  1.1178 -0.0532 -0.6730
   35CHL1  H26B 2585   5.010   2.758   8.473 -0.5423  0.4762  0.9639
   35CHL1  H26C 2586   5.047   2.657   8.605  2.0492  0.2046 -2.1297
   35CHL1   C27 2587   4.882   2.801   8.736 -0.5818  0.3044 -0.5501
   35CHL1  H27A 2588   4.950   2.736   8.796 -1.1562  0.5214  0.3429
   35CHL1  H27B 2589   4.784   2.814   8.785 -0.6522  0.1458 -0.6488
   35CHL1  H27C 2590   4.940   2.892   8.709  3.1124 -1.4141  1.1572
   36CHL1    C3 2591   5.204   2.190   7.050 -0.3892  0.6299 -0.5693
   36CHL1    H3 2592   5.267   2.102   7.076  1.7024  0.7650 -4.7497
   36CHL1    O3 2593   5.238   2.230   6.916  0.6021 -0.1129  0.3426
   36CHL1   H3' 2594   5.194   2.164   6.862 -1.4955  2.8842 -1.7468
   36CHL1    C4 2595   5.053   2.149   7.067  0.2836  0.8543  0.0456
   36CHL1   H4A 2596   4.980   2.232   7.056 -2.0916 -0.9306  1.9062
   36CHL1   H4B 2597   5.019   2.076   6.990  1.8719  0.4710 -0.3142
   36CHL1    C5 2598   5.034   2.108   7.212 -0.4729  0.4791 -0.3991
   36CHL1    C6 2599   4.976   1.986   7.243 -0.1203  0.6787  0.0190
   36CHL1    H6 2600   4.942   1.913   7.168 -2.2320 -1.5655  3.0783
   36CHL1    C7 2601   4.943   1.940   7.385 -0.7337  0.1320 -0.1501
   36CHL1   H7A 2602   4.837   1.906   7.384 -0.6583 -0.1019 -0.7330
   36CHL1   H7B 2603   5.009   1.856   7.416  1.1142  1.6459  0.0806
   36CHL1    C8 2604   4.953   2.062   7.487 -0.0479  0.2252 -0.2827
   36CHL1    H8 2605   4.861   2.122   7.469 -1.9153 -2.6323 -0.7304
   36CHL1   C14 2606   4.950   2.013   7.632 -0.3056 -0.2613 -0.5757
   36CHL1   H14 2607   5.038   1.944   7.636  1.0818  1.4778 -0.4675
   36CHL1   C15 2608   4.826   1.932   7.676 -0.1494  0.8684  0.9546
   36CHL1  H15A 2609   4.731   1.989   7.667 -0.6071  0.0707  0.6692
   36CHL1  H15B 2610   4.821   1.839   7.615 -2.1251  2.1357 -0.8662
   36CHL1   C16 2611   4.856   1.900   7.824 -0.1846 -0.4195 -0.0869
   36CHL1  H16A 2612   4.762   1.910   7.882  0.5043  0.1435  0.9407
   36CHL1  H16B 2613   4.894   1.797   7.841 -2.7218 -1.2426  0.7450
   36CHL1   C17 2614   4.968   2.008   7.866  0.2185 -0.6964 -0.1699
   36CHL1   H17 2615   5.062   1.949   7.867 -0.0274 -1.1766 -2.2265
   36CHL1   C13 2616   4.971   2.112   7.746  0.2394 -0.0172  0.1114
   36CHL1   C18 2617   4.862   2.214   7.748  0.1811 -0.5102  0.1338
   36CHL1  H18A 2618   4.888   2.299   7.815 -1.4465 -0.1184  0.2937
   36CHL1  H18B 2619   4.836   2.260   7.650  0.1724  2.2967  1.4152
   36CHL1  H18C 2620   4.772   2.179   7.803  1.6284 -0.7553  2.4090
   36CHL1   C12 2621   5.111   2.176   7.719 -0.3279 -0.3665 -0.0659
   36CHL1  H12A 2622   5.137   2.261   7.785 -1.3895  1.6071 -2.1468
   36CHL1  H12B 2623   5.184   2.092   7.724  1.3320  0.7689 -3.5449
   36CHL1   C11 2624   5.118   2.236   7.585 -0.0607  0.4133  0.1709
   36CHL1  H11A 2625   5.053   2.326   7.588  0.5170  0.9238 -1.7420
   36CHL1  H11B 2626   5.220   2.278   7.571  0.7862 -1.3293  0.8873
   36CHL1    C9 2627   5.086   2.139   7.466 -0.1530 -0.7425 -0.2194
   36CHL1    H9 2628   5.169   2.065   7.464 -0.1971 -0.7567 -2.4004
   36CHL1   C10 2629   5.085   2.211   7.323 -0.6274  0.8191 -0.2149
   36CHL1   C19 2630   4.976   2.320   7.332  0.2788 -0.3908  0.1893
   36CHL1  H19A 2631   4.969   2.364   7.230  0.4288 -1.8147 -0.4425
   36CHL1  H19B 2632   4.874   2.289   7.363 -0.0815 -1.2939 -1.8327
   36CHL1  H19C 2633   5.003   2.402   7.403  0.9275  0.7260 -1.3076
   36CHL1    C1 2634   5.228   2.264   7.292 -0.3095  0.0525 -0.2637
   36CHL1   H1A 2635   5.252   2.349   7.359  0.4737 -0.6114  0.3096
   36CHL1   H1B 2636   5.300   2.183   7.314  0.7699  1.1085  0.1586
   36CHL1    C2 2637   5.243   2.304   7.149 -0.2098 -0.3991  0.1225
   36CHL1   H2A 2638   5.346   2.340   7.128  0.0690 -1.1622  0.1880
   36CHL1   H2B 2639   5.176   2.391   7.128 -1.4753 -1.0006  1.5920
   36CHL1   C20 2640   4.946   2.071   8.005  0.0006  0.1239  0.8472
   36CHL1   H20 2641   4.855   2.134   8.008  1.1010  1.8826 -1.0748
   36CHL1   C21 2642   5.066   2.153   8.052 -0.0890 -0.1934  0.1152
   36CHL1  H21A 2643   5.038   2.182   8.156 -2.7278 -2.3056  0.0575
   36CHL1  H21B 2644   5.084   2.244   7.991  2.2283 -1.8194 -1.7324
   36CHL1  H21C 2645   5.160   2.094   8.054 -1.4142 -2.3655  0.9115
   36CHL1   C22 2646   4.902   1.963   8.117 -0.1131  0.0922  0.5298
   36CHL1  H22A 2647   4.854   1.870   8.078 -0.0391 -0.2807  1.3240
   36CHL1  H22B 2648   4.999   1.932   8.160  1.4649  1.8852 -1.6680
   36CHL1   C23 2649   4.813   2.013   8.230 -0.8166 -0.1922 -0.4855
   36CHL1  H23A 2650   4.849   2.115   8.257  0.4618 -0.8606  0.3869
   36CHL1  H23B 2651   4.709   2.016   8.192 -0.6718  0.9757 -0.8107
   36CHL1   C24 2652   4.821   1.912   8.350 -0.2264 -0.6779 -0.7223
   36CHL1  H24A 2653   4.799   1.808   8.316  0.1552 -0.8775 -0.3677
   36CHL1  H24B 2654   4.926   1.909   8.387 -0.5645  1.3403  0.4287
   36CHL1   C25 2655   4.734   1.951   8.471  0.5769  0.1448  0.4330
   36CHL1   H25 2656   4.626   1.950   8.445  0.6779 -2.8025 -0.0983
   36CHL1   C26 2657   4.747   1.844   8.586 -0.2302 -0.2282 -0.4275
   36CHL1  H26A 2658   4.677   1.758   8.571 -0.5175 -0.2231  0.8057
   36CHL1  H26B 2659   4.855   1.817   8.583  0.1689  1.4418 -1.9375
   36CHL1  H26C 2660   4.721   1.890   8.683 -0.7266 -0.3228 -0.5139
   36CHL1   C27 2661   4.772   2.085   8.525  0.5002  0.1426  0.1601
   36CHL1  H27A 2662   4.775   2.163   8.445 -0.0111  0.1039  0.0942
   36CHL1  H27B 2663   4.697   2.115   8.602  1.4456 -1.4214  1.7086
   36CHL1  H27C 2664   4.870   2.084   8.577 -0.6972 -0.8642  2.5018
   37CHL1    C3 2665   1.908   4.526   7.033 -0.2897 -0.7450  0.5298
   37CHL1    H3 2666   1.857   4.625   7.037  0.5460 -0.1372 -2.2933
   37CHL1    O3 2667   1.958   4.498   6.905  0.1267  0.2077 -0.4543
   37CHL1   H3' 2668   1.883   4.515   6.848  0.0122  1.8734  0.1709
   37CHL1    C4 2669   2.032   4.522   7.124 -0.0409  0.5294 -0.9819
   37CHL1   H4A 2670   2.085   4.427   7.104 -1.3229 -0.7108  1.3197
   37CHL1   H4B 2671   2.093   4.606   7.084  1.6152 -0.8176 -1.3333
   37CHL1    C5 2672   1.992   4.535   7.265  0.4266  0.8497 -0.0256
   37CHL1    C6 2673   2.036   4.640   7.338  0.3686 -0.1995  0.2125
   37CHL1    H6 2674   2.103   4.713   7.291 -0.3383 -0.1643 -0.7459
   37CHL1    C7 2675   2.008   4.660   7.484 -0.2323  0.3051 -0.0894
   37CHL1   H7A 2676   2.101   4.678   7.541 -0.3440 -2.2176  0.9475
   37CHL1   H7B 2677   1.939   4.747   7.496 -0.4136  0.7788 -3.7407
   37CHL1    C8 2678   1.947   4.527   7.548  0.3248 -0.1596  0.0780
   37CHL1    H8 2679   2.032   4.458   7.566  2.6447  1.8892 -2.6378
   37CHL1   C14 2680   1.881   4.562   7.673  0.0724 -0.0557 -0.1273
   37CHL1   H14 2681   1.802   4.635   7.645 -0.7952  0.6691  3.8544
   37CHL1   C15 2682   1.946   4.634   7.801 -0.3593 -0.7650 -0.1121
   37CHL1  H15A 2683   2.046   4.592   7.823 -0.4414 -1.8181 -1.6805
   37CHL1  H15B 2684   1.968   4.742   7.790  1.8395 -1.1670  0.1062
   37CHL1   C16 2685   1.857   4.600   7.922 -0.6895 -0.8669  0.2645
   37CHL1  H16A 2686   1.911   4.546   8.003 -0.6027 -1.2254 -0.0324
   37CHL1  H16B 2687   1.818   4.700   7.953  2.4476  0.1479  1.1868
   37CHL1   C17 2688   1.745   4.510   7.873  0.2835  0.0581  0.2636
   37CHL1   H17 2689   1.658   4.568   7.835 -0.1074 -0.3741  0.4968
   37CHL1   C13 2690   1.806   4.447   7.745 -0.2479 -0.6250  0.6152
   37CHL1   C18 2691   1.907   4.348   7.799  0.4844 -0.0341  0.3838
   37CHL1  H18A 2692   1.857   4.262   7.848  1.5420 -0.6001  0.5100
   37CHL1  H18B 2693   1.978   4.302   7.726  1.1142 -1.6629  1.9769
   37CHL1  H18C 2694   1.978   4.384   7.876  0.9072 -0.7623  0.3526
   37CHL1   C12 2695   1.706   4.380   7.653  0.4318  0.3297  0.0231
   37CHL1  H12A 2696   1.658   4.286   7.687 -1.4016  0.5861 -1.7430
   37CHL1  H12B 2697   1.624   4.454   7.638 -0.8512 -0.9750  0.5165
   37CHL1   C11 2698   1.780   4.339   7.525 -0.7101  0.1251  0.7691
   37CHL1  H11A 2699   1.854   4.259   7.550 -0.0317  0.0787 -1.2741
   37CHL1  H11B 2700   1.706   4.288   7.460 -0.1648 -0.5086  0.6363
   37CHL1    C9 2701   1.843   4.459   7.451  0.6281  0.2969  0.2808
   37CHL1    H9 2702   1.766   4.538   7.438 -1.6555 -1.8243  0.5746
   37CHL1   C10 2703   1.894   4.428   7.310  0.0600  0.0997  0.1311
   37CHL1   C19 2704   1.975   4.298   7.315  0.0092 -0.0428  0.8006
   37CHL1  H19A 2705   2.054   4.301   7.393  1.5052 -0.4701 -0.6841
   37CHL1  H19B 2706   1.914   4.207   7.333 -0.7193  0.7573  2.6440
   37CHL1  H19C 2707   2.020   4.288   7.214 -0.6127  1.9094  0.3047
   37CHL1    C1 2708   1.772   4.415   7.221  0.6539  0.4587  0.1294
   37CHL1   H1A 2709   1.711   4.325   7.245 -1.4677  1.7271 -0.4038
   37CHL1   H1B 2710   1.715   4.510   7.227  0.2896  0.2009  0.7235
   37CHL1    C2 2711   1.808   4.418   7.065  0.1257 -0.0314  0.1434
   37CHL1   H2A 2712   1.715   4.407   7.006 -1.1460  2.2008  1.6600
   37CHL1   H2B 2713   1.872   4.328   7.048  2.6075  2.2494 -3.2393
   37CHL1   C20 2714   1.688   4.418   7.985  0.3015 -0.3988  0.4329
   37CHL1   H20 2715   1.764   4.342   8.012 -0.1963 -1.8692 -2.0989
   37CHL1   C21 2716   1.556   4.341   7.939 -0.7362  0.1996  0.0089
   37CHL1  H21A 2717   1.500   4.407   7.870 -1.0431 -1.6992 -1.6198
   37CHL1  H21B 2718   1.492   4.312   8.025 -0.3522 -0.9934 -0.0984
   37CHL1  H21C 2719   1.592   4.248   7.889  0.2606  0.2067  0.7141
   37CHL1   C22 2720   1.651   4.495   8.116  0.2461 -0.2801  0.2117
   37CHL1  H22A 2721   1.712   4.584   8.139 -2.0314  0.6156  3.1631
   37CHL1  H22B 2722   1.547   4.535   8.115  0.2951 -0.1544 -1.0632
   37CHL1   C23 2723   1.657   4.415   8.249  0.5840  0.4397 -0.7682
   37CHL1  H23A 2724   1.596   4.322   8.248 -2.2177  2.2303 -1.2664
   37CHL1  H23B 2725   1.763   4.383   8.249  0.9183  1.5607 -1.2958
   37CHL1   C24 2726   1.613   4.506   8.363 -0.0203  0.3500  0.4775
   37CHL1  H24A 2727   1.666   4.604   8.356  1.3607 -0.3739  0.5487
   37CHL1  H24B 2728   1.504   4.520   8.353  0.0946 -0.2878 -1.7494
   37CHL1   C25 2729   1.623   4.464   8.509 -0.0943 -1.1359  0.1119
   37CHL1   H25 2730   1.711   4.521   8.547 -2.0017  2.0907 -0.1284
   37CHL1   C26 2731   1.500   4.520   8.588 -0.0289 -0.4001  0.3693
   37CHL1  H26A 2732   1.509   4.630   8.580  0.4983 -0.6539 -3.7410
   37CHL1  H26B 2733   1.408   4.485   8.536 -1.7889  0.4299  2.8398
   37CHL1  H26C 2734   1.522   4.486   8.692  2.7833  0.6101  0.1543
   37CHL1   C27 2735   1.647   4.316   8.525  0.0930  0.6844 -0.4321
   37CHL1  H27A 2736   1.566   4.261   8.473 -0.1655  0.5109  0.1493
   37CHL1  H27B 2737   1.744   4.270   8.496 -0.5030 -0.6101 -0.3895
   37CHL1  H27C 2738   1.629   4.277   8.627 -0.6318  1.6045 -0.2007
   38CHL1    C3 2739   5.186   5.485   6.715 -0.0808  0.4158 -0.8984
   38CHL1    H3 2740   5.089   5.525   6.751 -0.4715  0.9422 -2.4726
   38CHL1    O3 2741   5.191   5.505   6.572  0.0155 -0.6348 -0.2472
   38CHL1   H3' 2742   5.124   5.446   6.537 -1.3267  1.8080 -2.0153
   38CHL1    C4 2743   5.307   5.558   6.769  0.4506  0.6922 -0.2174
   38CHL1   H4A 2744   5.397   5.527   6.711  1.4503  1.6831  0.7602
   38CHL1   H4B 2745   5.288   5.666   6.752 -2.5009  0.4787  1.3708
   38CHL1    C5 2746   5.335   5.535   6.917 -0.2279  0.2575  1.0432
   38CHL1    C6 2747   5.334   5.632   7.002 -0.2696  0.4231 -0.3873
   38CHL1    H6 2748   5.305   5.732   6.967 -0.6415 -0.2352 -2.0067
   38CHL1    C7 2749   5.369   5.613   7.149  0.6933 -0.8099 -1.0461
   38CHL1   H7A 2750   5.435   5.695   7.185  1.0960 -0.2916 -2.8727
   38CHL1   H7B 2751   5.275   5.614   7.207  0.4246  0.5812 -1.4816
   38CHL1    C8 2752   5.443   5.480   7.180  0.1369 -0.3264 -0.0856
   38CHL1    H8 2753   5.548   5.480   7.141 -0.2183 -2.1020 -1.0650
   38CHL1   C14 2754   5.427   5.443   7.330 -0.3304  0.3346  0.3766
   38CHL1   H14 2755   5.323   5.406   7.339 -0.5481  1.0814  0.9362
   38CHL1   C15 2756   5.440   5.562   7.426  0.3037 -0.0305 -1.0184
   38CHL1  H15A 2757   5.526   5.626   7.397 -1.0218  2.1155 -0.3806
   38CHL1  H15B 2758   5.342   5.615   7.434 -1.5580 -3.2922 -1.3638
   38CHL1   C16 2759   5.461   5.487   7.560 -0.1217 -0.3471 -0.6132
   38CHL1  H16A 2760   5.557   5.499   7.616  1.0863 -0.9013 -2.5233
   38CHL1  H16B 2761   5.372   5.500   7.625 -0.1910  2.1989 -1.1768
   38CHL1   C17 2762   5.461   5.332   7.528  0.2810  0.0898  0.1819
   38CHL1   H17 2763   5.353   5.307   7.536 -0.1162  2.1406  1.7895
   38CHL1   C13 2764   5.499   5.318   7.383 -0.3551  1.0612  0.6857
   38CHL1   C18 2765   5.651   5.328   7.357 -0.4129 -0.1573  0.3235
   38CHL1  H18A 2766   5.710   5.235   7.371  1.2148  0.6084 -1.1357
   38CHL1  H18B 2767   5.661   5.344   7.247 -2.2747 -1.4867 -0.0630
   38CHL1  H18C 2768   5.688   5.420   7.407  0.0152  2.3908 -4.3446
   38CHL1   C12 2769   5.444   5.202   7.294 -0.3210  0.0753  0.2139
   38CHL1  H12A 2770   5.518   5.122   7.317 -1.4625 -1.0788 -0.0540
   38CHL1  H12B 2771   5.348   5.171   7.340  0.4501 -1.1152  1.0268
   38CHL1   C11 2772   5.435   5.223   7.143  0.4734 -0.4259 -0.1951
   38CHL1  H11A 2773   5.540   5.215   7.109  0.0374 -1.6004 -1.2987
   38CHL1  H11B 2774   5.384   5.142   7.086 -0.2778  0.5289 -0.8844
   38CHL1    C9 2775   5.377   5.361   7.104  0.2170 -0.0476 -0.7392
   38CHL1    H9 2776   5.276   5.374   7.148  0.1069 -1.7867 -0.4469
   38CHL1   C10 2777   5.362   5.391   6.956 -0.4646  0.1466  0.5388
   38CHL1   C19 2778   5.485   5.334   6.877  0.0498  1.1284 -0.1945
   38CHL1  H19A 2779   5.488   5.361   6.770  1.1262 -1.4436 -0.8507
   38CHL1  H19B 2780   5.580   5.379   6.913 -0.5514  0.6014  2.1247
   38CHL1  H19C 2781   5.489   5.224   6.891 -1.5602  0.9198 -1.2913
   38CHL1    C1 2782   5.221   5.330   6.916  0.0807  0.3159  0.0471
   38CHL1   H1A 2783   5.228   5.222   6.937 -1.9349  0.2400  0.3785
   38CHL1   H1B 2784   5.134   5.377   6.968 -0.2130  0.9726 -1.0239
   38CHL1    C2 2785   5.185   5.334   6.764 -0.1704 -0.6169 -0.1546
   38CHL1   H2A 2786   5.083   5.300   6.736 -0.9404  1.6809 -0.2870
   38CHL1   H2B 2787   5.252   5.263   6.711  1.7658 -0.4963  2.0330
   38CHL1   C20 2788   5.544   5.253   7.621 -0.3229  0.2985  0.2194
   38CHL1   H20 2789   5.652   5.270   7.602 -0.7613  1.1842 -1.5624
   38CHL1   C21 2790   5.530   5.107   7.599  0.0807  0.0210 -0.4170
   38CHL1  H21A 2791   5.567   5.047   7.686 -0.0688  1.6153  0.7626
   38CHL1  H21B 2792   5.587   5.064   7.514 -1.3249 -1.4117 -0.6651
   38CHL1  H21C 2793   5.430   5.069   7.570 -0.3067 -0.7609  1.7821
   38CHL1   C22 2794   5.516   5.281   7.769 -0.7891  0.0800 -0.5888
   38CHL1  H22A 2795   5.481   5.384   7.792 -1.7292 -0.8578  2.4152
   38CHL1  H22B 2796   5.430   5.215   7.793 -1.5338  0.8423 -1.1203
   38CHL1   C23 2797   5.630   5.269   7.868 -0.1564 -0.4764  0.0545
   38CHL1  H23A 2798   5.672   5.167   7.860 -0.0558 -0.4103 -0.2409
   38CHL1  H23B 2799   5.710   5.337   7.830  0.1464 -2.0945 -2.3242
   38CHL1   C24 2800   5.581   5.306   8.009 -0.3099 -0.0763 -0.1437
   38CHL1  H24A 2801   5.556   5.414   8.020 -0.1142  0.0714 -1.1349
   38CHL1  H24B 2802   5.489   5.245   8.022 -1.2061  1.6430  1.9224
   38CHL1   C25 2803   5.673   5.267   8.129  0.0775 -0.0141 -0.5767
   38CHL1   H25 2804   5.703   5.162   8.111  1.0078  0.3318 -1.0459
   38CHL1   C26 2805   5.801   5.346   8.122  0.2395  0.0178 -0.3378
   38CHL1  H26A 2806   5.869   5.315   8.203 -0.7258 -2.2960 -0.3834
   38CHL1  H26B 2807   5.843   5.350   8.019 -1.0230 -2.3814 -0.9863
   38CHL1  H26C 2808   5.770   5.452   8.137 -0.8066 -0.2566 -0.4939
   38CHL1   C27 2809   5.604   5.275   8.265 -0.0291  0.1068 -0.5922
   38CHL1  H27A 2810   5.680   5.253   8.343  0.0293  0.9183 -0.4131
   38CHL1  H27B 2811   5.585   5.380   8.298 -2.3523 -0.5896  0.4011
   38CHL1  H27C 2812   5.512   5.213   8.268  1.1614 -1.6471 -0.0009
   39CHL1    C3 2813   4.701   4.881   6.763 -0.1608  0.4151  0.5206
   39CHL1    H3 2814   4.756   4.966   6.809 -0.4172  0.9643 -0.1720
   39CHL1    O3 2815   4.706   4.875   6.617  0.3957  0.1006 -0.2561
   39CHL1   H3' 2816   4.628   4.824   6.594  0.8663 -1.3183  1.2195
   39CHL1    C4 2817   4.766   4.759   6.823  0.1821  0.4259 -0.2161
   39CHL1   H4A 2818   4.732   4.671   6.763 -1.6610  1.1449 -0.2537
   39CHL1   H4B 2819   4.875   4.770   6.801  0.4207  1.6718  1.5462
   39CHL1    C5 2820   4.739   4.726   6.973 -0.2438 -0.6151  0.1682
   39CHL1    C6 2821   4.848   4.694   7.039 -0.1262 -0.4852 -0.0243
   39CHL1    H6 2822   4.945   4.691   6.988 -0.3411  2.4392 -0.6703
   39CHL1    C7 2823   4.857   4.676   7.189  0.3085 -0.0183  0.2424
   39CHL1   H7A 2824   4.916   4.585   7.211 -1.3956 -1.7426 -1.9715
   39CHL1   H7B 2825   4.903   4.758   7.247 -0.8116 -0.6164  2.0112
   39CHL1    C8 2826   4.706   4.660   7.249  0.3160  0.6666 -0.1062
   39CHL1    H8 2827   4.677   4.557   7.221  1.3203  0.3854 -0.1542
   39CHL1   C14 2828   4.696   4.664   7.399 -0.2748 -0.6275 -0.3462
   39CHL1   H14 2829   4.729   4.764   7.435 -0.6495 -1.0097  1.0828
   39CHL1   C15 2830   4.795   4.574   7.476 -0.1457  0.4539 -0.0192
   39CHL1  H15A 2831   4.789   4.465   7.452 -2.2410  0.3030  1.0333
   39CHL1  H15B 2832   4.901   4.598   7.455  0.3538  0.1133  1.9971
   39CHL1   C16 2833   4.743   4.591   7.621  0.8856  0.4842  0.1999
   39CHL1  H16A 2834   4.739   4.499   7.683  0.0534  0.7257  0.5108
   39CHL1  H16B 2835   4.804   4.673   7.664  1.1088  0.1015  0.6076
   39CHL1   C17 2836   4.596   4.650   7.612 -0.3116  0.0068 -0.2509
   39CHL1   H17 2837   4.613   4.752   7.651  1.6365  0.1995 -1.5687
   39CHL1   C13 2838   4.555   4.653   7.459 -0.1788 -0.4212 -0.0524
   39CHL1   C18 2839   4.497   4.514   7.427 -0.2058 -0.0996  0.2169
   39CHL1  H18A 2840   4.566   4.430   7.452  0.7379  0.0681 -1.7179
   39CHL1  H18B 2841   4.399   4.490   7.474  0.8161  0.9699  3.0391
   39CHL1  H18C 2842   4.489   4.502   7.317 -1.6057  1.3563  0.1432
   39CHL1   C12 2843   4.472   4.771   7.406  0.3417 -0.4662  0.3518
   39CHL1  H12A 2844   4.367   4.756   7.440  0.5318 -0.5678  0.9023
   39CHL1  H12B 2845   4.503   4.867   7.452 -0.5861  0.2864 -0.5424
   39CHL1   C11 2846   4.473   4.779   7.256 -0.1547 -0.0093  0.5790
   39CHL1  H11A 2847   4.408   4.694   7.226 -1.9757  1.4887  0.2090
   39CHL1  H11B 2848   4.423   4.870   7.217 -0.6832 -0.6984 -0.3668
   39CHL1    C9 2849   4.615   4.772   7.192  0.6185 -0.0849  0.8039
   39CHL1    H9 2850   4.662   4.870   7.213 -0.2632  0.5113  0.0641
   39CHL1   C10 2851   4.599   4.759   7.035 -0.5318  0.5677 -0.5681
   39CHL1   C19 2852   4.518   4.635   6.984 -0.7970  0.5370  0.2410
   39CHL1  H19A 2853   4.409   4.644   7.007 -0.9707 -2.1306  0.6866
   39CHL1  H19B 2854   4.511   4.619   6.875  2.0702 -0.4394  0.1725
   39CHL1  H19C 2855   4.565   4.542   7.022  0.0085 -0.0318 -2.1082
   39CHL1    C1 2856   4.549   4.886   6.960  0.1733 -0.3072 -0.0391
   39CHL1   H1A 2857   4.445   4.903   6.997 -0.5017 -1.8102 -1.1877
   39CHL1   H1B 2858   4.606   4.970   7.004 -0.6121 -0.0385  0.4904
   39CHL1    C2 2859   4.557   4.883   6.807 -0.9184  0.0584 -0.6317
   39CHL1   H2A 2860   4.519   4.976   6.760 -0.3447 -0.1709 -1.5536
   39CHL1   H2B 2861   4.498   4.799   6.763  0.4106 -2.0916  1.5537
   39CHL1   C20 2862   4.495   4.580   7.710  0.0074  0.3590  0.3095
   39CHL1   H20 2863   4.463   4.477   7.685 -1.9990  0.4541  2.3267
   39CHL1   C21 2864   4.358   4.659   7.694  1.0699 -0.5571  0.1985
   39CHL1  H21A 2865   4.284   4.617   7.765  0.2427 -0.6771 -0.7241
   39CHL1  H21B 2866   4.313   4.656   7.593 -0.0127  1.1612  0.5981
   39CHL1  H21C 2867   4.361   4.763   7.733  0.2494 -0.5777  0.3250
   39CHL1   C22 2868   4.549   4.585   7.852 -0.0880 -0.4980 -0.2091
   39CHL1  H22A 2869   4.649   4.539   7.861  0.1449 -0.3591 -1.9568
   39CHL1  H22B 2870   4.550   4.694   7.876 -0.2686 -0.6228  0.3860
   39CHL1   C23 2871   4.451   4.526   7.962 -0.6800  0.1551  0.4175
   39CHL1  H23A 2872   4.390   4.611   7.999 -1.6621 -1.4243  2.5040
   39CHL1  H23B 2873   4.386   4.452   7.910 -0.3511 -0.2254  0.5468
   39CHL1   C24 2874   4.529   4.463   8.076 -0.6215  0.1033 -1.0615
   39CHL1  H24A 2875   4.465   4.395   8.136  3.0243 -0.2836  2.5840
   39CHL1  H24B 2876   4.612   4.408   8.026  0.9686  0.6377  0.9361
   39CHL1   C25 2877   4.594   4.561   8.165 -0.0581  0.6015  0.2294
   39CHL1   H25 2878   4.665   4.619   8.102  0.2865 -0.7228 -0.6501
   39CHL1   C26 2879   4.499   4.666   8.234 -0.4512 -0.0062  0.4848
   39CHL1  H26A 2880   4.467   4.743   8.162 -0.8915  1.2162  1.9589
   39CHL1  H26B 2881   4.411   4.630   8.291 -1.3218  0.7302 -0.3857
   39CHL1  H26C 2882   4.559   4.697   8.322  0.7658 -0.0455 -0.3154
   39CHL1   C27 2883   4.684   4.478   8.265  0.7239 -0.1037 -0.4230
   39CHL1  H27A 2884   4.731   4.538   8.347  2.0988  0.0377 -1.3073
   39CHL1  H27B 2885   4.617   4.405   8.315 -0.0203  1.5640  1.0698
   39CHL1  H27C 2886   4.758   4.407   8.221  0.9820 -0.0198 -0.1297
   40CHL1    C3 2887   0.137   3.481   6.756 -0.1512 -0.6751  0.6450
   40CHL1    H3 2888   0.045   3.446   6.806 -0.3433  0.1220  0.8523
   40CHL1    O3 2889   0.133   3.477   6.615  0.2642 -0.0639  0.2189
   40CHL1   H3' 2890   0.224   3.504   6.599  0.8612 -0.3185  2.9623
   40CHL1    C4 2891   0.156   3.624   6.798 -0.4439  0.4417 -0.0267
   40CHL1   H4A 2892   0.237   3.672   6.739  1.1083 -0.4068  1.3451
   40CHL1   H4B 2893   0.060   3.674   6.773 -1.5163 -1.7183 -0.2873
   40CHL1    C5 2894   0.180   3.642   6.947 -0.8059 -0.7366 -0.5133
   40CHL1    C6 2895   0.105   3.728   7.018  0.4791 -0.1943  0.6056
   40CHL1    H6 2896   0.034   3.789   6.960  0.9068 -1.1799 -1.0059
   40CHL1    C7 2897   0.121   3.748   7.165 -0.5049 -0.3793  0.2425
   40CHL1   H7A 2898   0.118   3.853   7.200 -1.7719 -0.3695  0.1171
   40CHL1   H7B 2899   0.033   3.704   7.217 -0.9993 -0.3195 -0.5402
   40CHL1    C8 2900   0.246   3.685   7.225  0.5174 -0.6696 -0.2859
   40CHL1    H8 2901   0.329   3.752   7.195 -2.6422  2.1705 -3.1118
   40CHL1   C14 2902   0.239   3.674   7.375 -0.1213  0.5970  0.4920
   40CHL1   H14 2903   0.157   3.606   7.405 -0.9103  1.0561 -0.5753
   40CHL1   C15 2904   0.208   3.807   7.450 -0.0744 -0.9628 -0.2939
   40CHL1  H15A 2905   0.276   3.891   7.424  0.6609 -0.5483  2.7306
   40CHL1  H15B 2906   0.105   3.849   7.451  0.1265 -0.4533 -0.9988
   40CHL1   C16 2907   0.247   3.762   7.596  0.0973  0.5367 -0.0469
   40CHL1  H16A 2908   0.311   3.843   7.636 -1.8300  0.9906  2.2364
   40CHL1  H16B 2909   0.159   3.750   7.662 -0.7737 -0.3856 -1.3460
   40CHL1   C17 2910   0.325   3.628   7.584  0.1449 -0.9456  0.1656
   40CHL1   H17 2911   0.247   3.549   7.597  1.0145 -1.5108  2.1370
   40CHL1   C13 2912   0.363   3.613   7.437  0.4473 -0.1519 -0.1642
   40CHL1   C18 2913   0.486   3.700   7.411 -0.4110 -0.4170  0.5335
   40CHL1  H18A 2914   0.523   3.702   7.306 -1.1527 -0.1138  0.2805
   40CHL1  H18B 2915   0.463   3.807   7.429  0.4901 -0.1003 -0.1214
   40CHL1  H18C 2916   0.574   3.668   7.472  0.0554  0.5544  0.3776
   40CHL1   C12 2917   0.369   3.462   7.384  0.7024  0.1591  0.1203
   40CHL1  H12A 2918   0.451   3.400   7.425  2.1518 -0.0108 -2.8901
   40CHL1  H12B 2919   0.277   3.409   7.415  1.8013 -1.8219  0.0566
   40CHL1   C11 2920   0.389   3.468   7.233  0.3500  0.7561  0.8247
   40CHL1  H11A 2921   0.475   3.532   7.204  1.1194 -0.8333 -0.4799
   40CHL1  H11B 2922   0.408   3.366   7.191 -0.0957  1.3230 -0.7916
   40CHL1    C9 2923   0.270   3.549   7.167  0.2286  0.9427  0.1380
   40CHL1    H9 2924   0.175   3.495   7.188  1.6498 -1.4053  0.7290
   40CHL1   C10 2925   0.285   3.547   7.012 -0.0750  0.4271  0.5972
   40CHL1   C19 2926   0.422   3.608   6.970  0.4893  0.1120 -0.6725
   40CHL1  H19A 2927   0.507   3.544   7.004  1.3426  1.6600  0.1720
   40CHL1  H19B 2928   0.431   3.621   6.860 -0.5509 -2.1997 -1.0468
   40CHL1  H19C 2929   0.431   3.707   7.020  1.6365 -1.0271  1.4446
   40CHL1    C1 2930   0.263   3.405   6.961 -0.1294 -1.3522  0.0901
   40CHL1   H1A 2931   0.342   3.332   6.991 -0.2127 -1.1356  0.8534
   40CHL1   H1B 2932   0.171   3.369   7.013  1.5234 -4.5860  0.8872
   40CHL1    C2 2933   0.259   3.399   6.804  0.3085  0.6069 -0.1409
   40CHL1   H2A 2934   0.253   3.293   6.771  0.9834  0.7960 -0.8779
   40CHL1   H2B 2935   0.358   3.434   6.768  0.9682 -0.7131  0.3584
   40CHL1   C20 2936   0.436   3.609   7.691 -0.5178 -0.3069 -0.0416
   40CHL1   H20 2937   0.512   3.689   7.678  0.4273 -0.7526  2.5288
   40CHL1   C21 2938   0.493   3.465   7.681 -0.3395 -0.2624 -0.0522
   40CHL1  H21A 2939   0.573   3.456   7.604  0.3402 -0.3767  0.6537
   40CHL1  H21B 2940   0.409   3.396   7.658  0.6949 -1.1161 -1.3239
   40CHL1  H21C 2941   0.532   3.422   7.776  0.5696  2.8517  1.0347
   40CHL1   C22 2942   0.389   3.616   7.839  0.6784 -0.6181 -0.0060
   40CHL1  H22A 2943   0.318   3.701   7.848 -0.3162 -1.4592  0.2151
   40CHL1  H22B 2944   0.330   3.523   7.854 -0.4374 -0.7005 -4.2650
   40CHL1   C23 2945   0.495   3.615   7.948  0.2759  0.2560 -0.4321
   40CHL1  H23A 2946   0.439   3.611   8.043  0.3787 -3.9723 -0.4700
   40CHL1  H23B 2947   0.562   3.526   7.940  1.2262  0.9163  0.0833
   40CHL1   C24 2948   0.593   3.732   7.956 -0.0376 -0.9919  0.6096
   40CHL1  H24A 2949   0.639   3.757   7.858  0.3210 -0.5163  0.8943
   40CHL1  H24B 2950   0.546   3.829   7.985 -0.0010  0.0367 -2.5604
   40CHL1   C25 2951   0.704   3.708   8.057 -0.1976  0.1945  0.6051
   40CHL1   H25 2952   0.734   3.607   8.023 -1.1466  0.3874 -0.8138
   40CHL1   C26 2953   0.817   3.823   8.048  0.2860  0.2854  0.3194
   40CHL1  H26A 2954   0.912   3.792   8.096  1.0036 -0.2633 -1.4038
   40CHL1  H26B 2955   0.832   3.836   7.939 -1.3527 -1.6232 -0.1723
   40CHL1  H26C 2956   0.762   3.909   8.093 -1.1422 -0.8930  0.8662
   40CHL1   C27 2957   0.649   3.695   8.196 -0.1439  0.1498 -0.2313
   40CHL1  H27A 2958   0.584   3.605   8.197  0.7499 -0.4975  1.8233
   40CHL1  H27B 2959   0.736   3.678   8.263 -1.0608 -1.0710  0.6782
   40CHL1  H27C 2960   0.598   3.788   8.228  0.3835 -0.3247  2.0569
   41CHL1    C3 2961   1.036   3.844   6.906 -0.5386 -0.8279  0.8308
   41CHL1    H3 2962   0.940   3.812   6.953 -2.6680 -1.1602 -3.4734
   41CHL1    O3 2963   1.051   3.811   6.769  0.0851 -0.4181 -0.1559
   41CHL1   H3' 2964   1.144   3.799   6.751 -0.3395  0.2999 -3.1007
   41CHL1    C4 2965   1.042   4.000   6.922  1.1538  1.1766  0.7545
   41CHL1   H4A 2966   1.135   4.030   6.870  0.9907 -1.2439 -1.0311
   41CHL1   H4B 2967   0.957   4.054   6.876  0.9204  2.0036  2.1263
   41CHL1    C5 2968   1.043   4.048   7.064 -0.0531 -0.0015  0.5539
   41CHL1    C6 2969   0.962   4.143   7.112  0.2821  0.5193 -0.1651
   41CHL1    H6 2970   0.886   4.184   7.044 -0.6175  2.7197  2.1041
   41CHL1    C7 2971   0.962   4.203   7.252  0.6100 -0.1267  0.3468
   41CHL1   H7A 2972   0.966   4.314   7.251 -2.7611  0.0392 -0.3391
   41CHL1   H7B 2973   0.862   4.179   7.295 -0.3415  0.7490 -1.3180
   41CHL1    C8 2974   1.074   4.136   7.345 -0.1482 -0.5899  0.5643
   41CHL1    H8 2975   1.165   4.197   7.330  0.8476 -2.3105 -0.5497
   41CHL1   C14 2976   1.040   4.147   7.491 -0.1834  0.1026 -0.2142
   41CHL1   H14 2977   0.954   4.077   7.507  0.7395 -1.0416 -0.2085
   41CHL1   C15 2978   0.979   4.277   7.552  1.3966 -0.3319 -0.1084
   41CHL1  H15A 2979   1.044   4.360   7.517 -1.0249  1.4885 -0.4926
   41CHL1  H15B 2980   0.871   4.289   7.529  0.8338 -0.8575  2.1267
   41CHL1   C16 2981   0.990   4.257   7.702 -0.5733  0.0419 -0.1246
   41CHL1  H16A 2982   1.044   4.341   7.751  0.0872 -1.1242  1.1840
   41CHL1  H16B 2983   0.894   4.239   7.754 -0.4779  0.3986  0.1767
   41CHL1   C17 2984   1.074   4.123   7.734  0.3774  0.3072 -0.1867
   41CHL1   H17 2985   1.002   4.038   7.734  1.0861 -0.2958  0.7513
   41CHL1   C13 2986   1.147   4.093   7.595 -0.1726 -0.3240 -0.3477
   41CHL1   C18 2987   1.265   4.196   7.584  0.2067 -0.5560 -0.1981
   41CHL1  H18A 2988   1.225   4.298   7.604  0.5766 -0.4358 -0.0468
   41CHL1  H18B 2989   1.338   4.169   7.664  0.8649  0.8852 -0.2849
   41CHL1  H18C 2990   1.309   4.199   7.482  1.2971 -0.4295  0.2627
   41CHL1   C12 2991   1.180   3.954   7.554  0.0421 -0.2485  0.0454
   41CHL1  H12A 2992   1.261   3.915   7.620  0.4504  2.5312  1.2737
   41CHL1  H12B 2993   1.088   3.895   7.571 -0.6861  0.8698  0.0017
   41CHL1   C11 2994   1.219   3.944   7.405  0.1685 -0.1433 -0.4040
   41CHL1  H11A 2995   1.309   4.008   7.394  0.0480 -0.0169 -0.6511
   41CHL1  H11B 2996   1.251   3.844   7.369 -3.4555 -0.7438 -2.2135
   41CHL1    C9 2997   1.112   3.998   7.305 -0.0957  0.1760  0.3044
   41CHL1    H9 2998   1.028   3.926   7.315 -1.9983  2.3902  0.5433
   41CHL1   C10 2999   1.146   3.982   7.155  0.1745 -0.0494 -0.1219
   41CHL1   C19 3000   1.280   4.038   7.125 -0.3421  0.7055 -0.2009
   41CHL1  H19A 3001   1.354   3.991   7.193 -0.5973 -1.2840 -1.2842
   41CHL1  H19B 3002   1.312   4.028   7.019 -1.4943 -1.5082 -0.3637
   41CHL1  H19C 3003   1.292   4.145   7.153 -0.7247  0.5010  0.7590
   41CHL1    C1 3004   1.155   3.827   7.128  0.9095  0.7248  0.0129
   41CHL1   H1A 3005   1.238   3.771   7.176  0.8175  2.1647  1.9066
   41CHL1   H1B 3006   1.059   3.794   7.174 -0.4088  1.9928 -1.7967
   41CHL1    C2 3007   1.159   3.780   6.984  0.3216  0.1194  1.0948
   41CHL1   H2A 3008   1.147   3.670   6.978  0.5375  0.2269 -1.7898
   41CHL1   H2B 3009   1.257   3.810   6.942  0.0202  0.2017  0.4460
   41CHL1   C20 3010   1.160   4.133   7.861  0.5349  0.4761  0.3381
   41CHL1   H20 3011   1.232   4.216   7.845  0.2288  1.1542  2.4530
   41CHL1   C21 3012   1.237   3.999   7.889 -0.8541 -0.0015  0.3857
   41CHL1  H21A 3013   1.328   3.995   7.825  1.5289 -1.2132  3.7677
   41CHL1  H21B 3014   1.178   3.908   7.862 -0.8472 -0.5100  2.0615
   41CHL1  H21C 3015   1.261   3.995   7.997  0.6749  1.8333  0.1317
   41CHL1   C22 3016   1.075   4.165   7.992 -0.2167 -0.1992 -0.4403
   41CHL1  H22A 3017   1.002   4.246   7.973 -1.7594 -1.5393 -0.3356
   41CHL1  H22B 3018   1.020   4.081   8.038  0.5867 -0.5828 -0.1615
   41CHL1   C23 3019   1.151   4.236   8.104  0.5792  0.2941  0.6594
   41CHL1  H23A 3020   1.230   4.168   8.142 -0.4251 -0.2528  1.7979
   41CHL1  H23B 3021   1.205   4.329   8.075  2.5074 -1.0603 -0.1967
   41CHL1   C24 3022   1.052   4.269   8.210  0.3694 -1.1611 -0.6110
   41CHL1  H24A 3023   0.959   4.313   8.168 -0.5717 -2.3819  0.1580
   41CHL1  H24B 3024   1.011   4.172   8.247  0.0021 -0.6920  0.2193
   41CHL1   C25 3025   1.116   4.352   8.322 -0.7712 -0.0379  0.6711
   41CHL1   H25 3026   1.196   4.418   8.281 -1.3829  0.7748  0.7564
   41CHL1   C26 3027   1.007   4.442   8.382 -0.2426  0.6343 -0.3368
   41CHL1  H26A 3028   0.926   4.472   8.313  1.5094  1.0898 -2.2391
   41CHL1  H26B 3029   0.964   4.381   8.465  0.3915  1.5578  0.6911
   41CHL1  H26C 3030   1.057   4.534   8.420 -0.9169  0.8454  0.0423
   41CHL1   C27 3031   1.176   4.256   8.437  0.7318  0.4922  0.0403
   41CHL1  H27A 3032   1.232   4.321   8.507  0.5743  0.1927  0.4457
   41CHL1  H27B 3033   1.102   4.211   8.506  1.7191  1.1317  1.5337
   41CHL1  H27C 3034   1.248   4.181   8.396 -0.5641 -0.2180 -0.9867
   42CHL1    C3 3035   2.609   1.055   6.777 -0.3657  0.2594  0.5209
   42CHL1    H3 3036   2.686   0.975   6.772  0.2950  0.9096  0.2801
   42CHL1    O3 3037   2.560   1.077   6.642  0.1911 -0.0445  0.5842
   42CHL1   H3' 3038   2.565   1.171   6.619 -1.9221 -0.2133 -0.6852
   42CHL1    C4 3039   2.483   1.022   6.863 -0.5930 -0.3630  0.4831
   42CHL1   H4A 3040   2.393   1.080   6.835  0.6656 -0.0172 -3.0695
   42CHL1   H4B 3041   2.459   0.917   6.835 -0.4439 -1.0237  2.6663
   42CHL1    C5 3042   2.506   1.032   7.019 -0.0406 -0.3948 -0.7652
   42CHL1    C6 3043   2.470   0.929   7.097 -0.1523  0.4969  0.1971
   42CHL1    H6 3044   2.413   0.849   7.048 -1.4610  1.9962 -0.7728
   42CHL1    C7 3045   2.483   0.918   7.245  0.0904 -0.2356 -0.1173
   42CHL1   H7A 3046   2.388   0.892   7.296 -0.3177  1.1470 -0.1450
   42CHL1   H7B 3047   2.566   0.849   7.272  1.7310  0.9360 -1.9704
   42CHL1    C8 3048   2.531   1.050   7.300 -0.2311 -0.2726 -0.4697
   42CHL1    H8 3049   2.441   1.114   7.308  1.9469  2.9411 -0.8113
   42CHL1   C14 3050   2.592   1.041   7.433 -0.2711  0.2487 -0.6548
   42CHL1   H14 3051   2.688   0.989   7.413 -0.5389 -0.4248 -0.1780
   42CHL1   C15 3052   2.525   0.941   7.535 -0.0141 -0.4393  0.7436
   42CHL1  H15A 3053   2.417   0.963   7.549  0.3884  1.7107  0.6648
   42CHL1  H15B 3054   2.545   0.840   7.494  1.1340 -0.6541  1.8029
   42CHL1   C16 3055   2.594   0.972   7.666 -0.2864  0.8807  0.3283
   42CHL1  H16A 3056   2.506   0.969   7.735 -0.4189  1.4556  0.1930
   42CHL1  H16B 3057   2.665   0.892   7.694 -0.5038  1.1983  1.8573
   42CHL1   C17 3058   2.665   1.105   7.645  0.3653 -0.6489 -0.3418
   42CHL1   H17 3059   2.772   1.079   7.629  0.8678  0.7728  0.6560
   42CHL1   C13 3060   2.631   1.165   7.506 -0.4620 -0.1997 -0.4865
   42CHL1   C18 3061   2.511   1.261   7.521  0.6027  0.2577 -0.6498
   42CHL1  H18A 3062   2.479   1.315   7.429 -1.9215 -1.3583 -0.7689
   42CHL1  H18B 3063   2.419   1.205   7.550  0.5281  0.1133 -1.1517
   42CHL1  H18C 3064   2.534   1.331   7.604  0.2039  0.8127 -1.0051
   42CHL1   C12 3065   2.745   1.239   7.430  0.6886  0.3616  0.2349
   42CHL1  H12A 3066   2.779   1.330   7.485  1.9787  1.7194 -2.6710
   42CHL1  H12B 3067   2.832   1.169   7.428  2.2860  2.2982 -0.3763
   42CHL1   C11 3068   2.691   1.263   7.288  0.1002  1.0537  0.2064
   42CHL1  H11A 3069   2.630   1.355   7.279 -2.1811 -0.4838 -0.5868
   42CHL1  H11B 3070   2.781   1.290   7.229  1.1807 -0.3336  1.1945
   42CHL1    C9 3071   2.636   1.133   7.214  0.2059 -0.4693 -0.1420
   42CHL1    H9 3072   2.719   1.059   7.214 -0.5065 -1.2787  0.3145
   42CHL1   C10 3073   2.583   1.154   7.067 -0.8109 -0.2051  0.3880
   42CHL1   C19 3074   2.487   1.272   7.058  0.4847 -0.5363 -0.2041
   42CHL1  H19A 3075   2.433   1.280   6.961 -2.3551  2.4840  1.5510
   42CHL1  H19B 3076   2.419   1.268   7.146  2.0878 -0.0581  1.0904
   42CHL1  H19C 3077   2.552   1.361   7.076 -0.2510 -0.4838  2.3825
   42CHL1    C1 3078   2.711   1.169   6.975  0.5962  0.3975 -0.9877
   42CHL1   H1A 3079   2.765   1.262   7.001 -3.1857  2.5094 -0.2588
   42CHL1   H1B 3080   2.783   1.088   6.996 -0.0807 -0.3972 -1.6989
   42CHL1    C2 3081   2.677   1.178   6.824 -0.7996  0.0813  0.0259
   42CHL1   H2A 3082   2.772   1.203   6.773  0.3650  0.0037  2.0809
   42CHL1   H2B 3083   2.603   1.258   6.801 -0.5533  0.4949  0.6645
   42CHL1   C20 3084   2.660   1.188   7.776  0.1054 -0.1652 -0.0894
   42CHL1   H20 3085   2.558   1.231   7.784 -0.9759 -2.5711 -0.5163
   42CHL1   C21 3086   2.762   1.315   7.765  0.5554  0.2830  0.0190
   42CHL1  H21A 3087   2.857   1.281   7.719  0.6962  1.6783 -0.7481
   42CHL1  H21B 3088   2.788   1.351   7.866  1.6866 -1.3290  0.3260
   42CHL1  H21C 3089   2.719   1.403   7.712  2.6806  0.5297 -1.3509
   42CHL1   C22 3090   2.673   1.113   7.907 -0.6773  0.6443 -0.6426
   42CHL1  H22A 3091   2.673   1.192   7.985  0.4206  0.2984 -0.2769
   42CHL1  H22B 3092   2.588   1.045   7.931 -0.3029  0.7033  0.9348
   42CHL1   C23 3093   2.815   1.049   7.927  0.0057  0.8543 -0.4800
   42CHL1  H23A 3094   2.835   0.968   7.853  0.7900  2.1308 -1.6927
   42CHL1  H23B 3095   2.890   1.131   7.921 -0.1847  0.9941 -0.9492
   42CHL1   C24 3096   2.826   0.991   8.072  0.6363  0.6218 -0.5762
   42CHL1  H24A 3097   2.802   1.064   8.151  0.9216 -0.0813  0.1665
   42CHL1  H24B 3098   2.756   0.906   8.088  0.8505  0.5498 -0.0166
   42CHL1   C25 3099   2.972   0.930   8.105  1.0022  0.0547  0.3523
   42CHL1   H25 3100   3.046   1.012   8.091  2.0548 -1.0073 -0.4107
   42CHL1   C26 3101   2.976   0.908   8.257  0.5431  0.1628 -0.2470
   42CHL1  H26A 3102   2.939   0.999   8.310  1.6507  1.2071 -1.2229
   42CHL1  H26B 3103   2.911   0.819   8.271  0.5523 -0.0559 -1.5889
   42CHL1  H26C 3104   3.078   0.888   8.294 -0.2457 -1.0339  1.3349
   42CHL1   C27 3105   3.004   0.812   8.015 -0.3373  0.6167 -0.3725
   42CHL1  H27A 3106   2.932   0.729   8.035 -1.4189  0.8460 -3.1168
   42CHL1  H27B 3107   3.112   0.794   8.032 -0.1776  0.8381 -1.1503
   42CHL1  H27C 3108   3.005   0.843   7.909  0.1335 -2.5258 -1.3330
   43CHL1    C3 3109   2.704   4.608   6.823  0.2038  0.5115 -0.7866
   43CHL1    H3 3110   2.803   4.628   6.868  0.1885 -3.2088  1.1145
   43CHL1    O3 3111   2.703   4.588   6.684 -0.0162  0.2043 -0.0619
   43CHL1   H3' 3112   2.651   4.507   6.680 -1.9617  1.4434 -0.7141
   43CHL1    C4 3113   2.664   4.475   6.896  0.1235 -0.2550  0.4624
   43CHL1   H4A 3114   2.570   4.439   6.848 -0.2399  0.9018  0.2998
   43CHL1   H4B 3115   2.744   4.404   6.865 -0.1441 -0.0146 -0.8257
   43CHL1    C5 3116   2.647   4.486   7.048  0.0993 -0.2388 -0.1837
   43CHL1    C6 3117   2.721   4.410   7.127 -1.0280 -0.2658  0.3178
   43CHL1    H6 3118   2.783   4.329   7.085  2.0684  1.6248  1.0230
   43CHL1    C7 3119   2.721   4.415   7.282  0.2592 -0.2194 -1.1927
   43CHL1   H7A 3120   2.721   4.310   7.317 -0.3395  0.2088  0.1399
   43CHL1   H7B 3121   2.801   4.471   7.334 -1.2368  2.2535 -1.4486
   43CHL1    C8 3122   2.591   4.487   7.326 -0.5270  0.0232 -0.1843
   43CHL1    H8 3123   2.512   4.410   7.307  0.5812 -1.5009  1.1645
   43CHL1   C14 3124   2.610   4.513   7.477 -0.3603 -0.5303 -0.2226
   43CHL1   H14 3125   2.685   4.594   7.482 -0.9639 -0.0451  1.2129
   43CHL1   C15 3126   2.658   4.407   7.576 -1.1441  0.3834 -0.2460
   43CHL1  H15A 3127   2.597   4.314   7.568 -0.7027 -0.0192  1.0290
   43CHL1  H15B 3128   2.764   4.375   7.566 -1.0370 -0.8005  3.6877
   43CHL1   C16 3129   2.634   4.479   7.708  0.3035  1.0922 -0.2162
   43CHL1  H16A 3130   2.595   4.403   7.779  4.9944 -1.4945 -0.1403
   43CHL1  H16B 3131   2.723   4.526   7.756 -0.3371  2.1867 -0.0864
   43CHL1   C17 3132   2.534   4.597   7.689  0.4169 -0.2168  0.1044
   43CHL1   H17 3133   2.585   4.695   7.677 -2.5734  1.3354 -0.3944
   43CHL1   C13 3134   2.489   4.584   7.538  0.4350 -0.3326  0.4746
   43CHL1   C18 3135   2.357   4.501   7.530  0.0534 -0.9025 -0.2639
   43CHL1  H18A 3136   2.277   4.566   7.572  0.0273 -1.1613  0.0963
   43CHL1  H18B 3137   2.325   4.478   7.427  1.0700  1.2828 -1.0910
   43CHL1  H18C 3138   2.357   4.413   7.599  0.6371  0.7295  1.8753
   43CHL1   C12 3139   2.478   4.724   7.465 -1.2452  0.4551  0.6808
   43CHL1  H12A 3140   2.392   4.783   7.504 -2.5559 -0.6998 -0.3877
   43CHL1  H12B 3141   2.566   4.785   7.492 -1.0958  0.2082  0.7544
   43CHL1   C11 3142   2.468   4.715   7.312 -0.4134  0.2821  0.2748
   43CHL1  H11A 3143   2.367   4.673   7.292 -0.2386  0.3625 -0.8580
   43CHL1  H11B 3144   2.476   4.818   7.271 -1.3502  1.5356  3.1322
   43CHL1    C9 3145   2.572   4.614   7.247 -1.2798  0.7637 -0.8339
   43CHL1    H9 3146   2.669   4.667   7.257 -1.0411  0.4651 -1.5722
   43CHL1   C10 3147   2.558   4.600   7.095  0.1325  0.6173 -0.2830
   43CHL1   C19 3148   2.407   4.568   7.075  0.3159 -1.0116  0.3846
   43CHL1  H19A 3149   2.389   4.520   6.976 -1.0543  0.9153 -0.3504
   43CHL1  H19B 3150   2.366   4.503   7.155 -1.4842 -1.2482 -0.7094
   43CHL1  H19C 3151   2.347   4.662   7.078 -0.4802 -1.3648 -2.8441
   43CHL1    C1 3152   2.597   4.733   7.018 -0.1572 -0.0198  0.3029
   43CHL1   H1A 3153   2.535   4.821   7.045  0.4416  1.6139 -3.3085
   43CHL1   H1B 3154   2.701   4.763   7.045  0.1710 -0.8364 -0.0357
   43CHL1    C2 3155   2.599   4.716   6.866  0.8717 -0.2622  0.2963
   43CHL1   H2A 3156   2.642   4.811   6.826  3.0815 -0.0309  3.1208
   43CHL1   H2B 3157   2.501   4.690   6.819  0.4246 -1.0829  1.6762
   43CHL1   C20 3158   2.434   4.621   7.806  0.9573  0.4266  0.5047
   43CHL1   H20 3159   2.383   4.523   7.819 -0.5884  1.3906  2.0326
   43CHL1   C21 3160   2.334   4.737   7.775 -0.1454 -0.3803 -0.0407
   43CHL1  H21A 3161   2.278   4.734   7.679 -0.5798  1.0428  0.1684
   43CHL1  H21B 3162   2.387   4.834   7.778 -0.7957 -0.0248 -0.0093
   43CHL1  H21C 3163   2.256   4.746   7.854 -0.2537 -2.4121  0.1281
   43CHL1   C22 3164   2.520   4.643   7.937  0.9292 -0.1520 -0.0270
   43CHL1  H22A 3165   2.598   4.564   7.943  0.2724 -0.8675 -0.7830
   43CHL1  H22B 3166   2.572   4.740   7.930  0.4978  0.1808  1.3298
   43CHL1   C23 3167   2.430   4.641   8.066  0.0935 -0.0144 -0.2165
   43CHL1  H23A 3168   2.372   4.735   8.077  1.4456  0.7191  0.8781
   43CHL1  H23B 3169   2.362   4.555   8.051 -0.7842  0.9414 -1.7639
   43CHL1   C24 3170   2.502   4.601   8.200  0.4151 -0.1150 -0.7588
   43CHL1  H24A 3171   2.564   4.513   8.172  1.1234  0.6909 -1.7932
   43CHL1  H24B 3172   2.578   4.679   8.222 -2.4508  2.9401 -1.3213
   43CHL1   C25 3173   2.410   4.566   8.314 -0.3653  0.0255  0.3925
   43CHL1   H25 3174   2.326   4.504   8.275  0.4057 -0.9859  0.3209
   43CHL1   C26 3175   2.493   4.489   8.422 -0.0314  0.4293 -0.5780
   43CHL1  H26A 3176   2.581   4.551   8.448 -1.0798  2.1455 -1.0684
   43CHL1  H26B 3177   2.432   4.462   8.511  0.3915 -0.6761 -0.6114
   43CHL1  H26C 3178   2.521   4.394   8.371  0.8912  0.1295  0.4638
   43CHL1   C27 3179   2.350   4.693   8.367 -0.1256  0.4871  0.6830
   43CHL1  H27A 3180   2.290   4.750   8.293  2.2131  3.0526  0.6789
   43CHL1  H27B 3181   2.295   4.678   8.462 -0.3972  1.0949  0.6230
   43CHL1  H27C 3182   2.431   4.762   8.399  0.4329  0.7005 -1.0958
   44CHL1    C3 3183   2.668   3.388   6.639 -0.1421  0.0886  0.5368
   44CHL1    H3 3184   2.691   3.280   6.650  1.6334  0.6505  3.0590
   44CHL1    O3 3185   2.678   3.420   6.493 -0.8611  0.1531  0.2908
   44CHL1   H3' 3186   2.630   3.503   6.485  0.9032  1.1572 -0.3895
   44CHL1    C4 3187   2.535   3.430   6.701  0.1896 -0.1463  0.1111
   44CHL1   H4A 3188   2.502   3.533   6.675  1.2080 -0.4736 -2.6034
   44CHL1   H4B 3189   2.460   3.370   6.646  0.1436 -0.6048  0.6657
   44CHL1    C5 3190   2.526   3.417   6.854 -0.2503 -0.1079 -0.2289
   44CHL1    C6 3191   2.429   3.340   6.913  0.2124  0.7206 -0.4116
   44CHL1    H6 3192   2.350   3.297   6.850 -1.4208  1.2966  1.2058
   44CHL1    C7 3193   2.434   3.321   7.058  0.6391 -0.4636 -0.0630
   44CHL1   H7A 3194   2.331   3.304   7.095  1.2106 -1.5833  1.0401
   44CHL1   H7B 3195   2.494   3.229   7.074 -2.0921 -2.1262  0.8479
   44CHL1    C8 3196   2.503   3.439   7.137  0.0770  0.0815  0.5852
   44CHL1    H8 3197   2.447   3.532   7.113  1.0495  0.6899  0.6468
   44CHL1   C14 3198   2.514   3.405   7.282  0.1655  0.3214 -0.1786
   44CHL1   H14 3199   2.581   3.317   7.293 -1.6167 -0.9740  0.4283
   44CHL1   C15 3200   2.386   3.365   7.348 -0.0613 -0.0491  0.0811
   44CHL1  H15A 3201   2.306   3.431   7.309 -0.4214  0.2073  1.2372
   44CHL1  H15B 3202   2.355   3.260   7.330  0.4369  0.1692 -2.1932
   44CHL1   C16 3203   2.416   3.394   7.496 -0.5098 -0.7522 -0.1256
   44CHL1  H16A 3204   2.347   3.465   7.547 -1.2694 -0.5701 -1.3848
   44CHL1  H16B 3205   2.416   3.301   7.557 -1.4325 -1.0733 -0.6068
   44CHL1   C17 3206   2.565   3.451   7.503 -0.5450 -0.2760 -0.4110
   44CHL1   H17 3207   2.626   3.357   7.509 -0.6159 -0.4057 -1.6992
   44CHL1   C13 3208   2.585   3.512   7.362 -0.5920  0.5278 -0.3586
   44CHL1   C18 3209   2.501   3.649   7.356  0.0781 -0.2404  0.4180
   44CHL1  H18A 3210   2.544   3.729   7.420  2.5173 -0.6935 -0.6071
   44CHL1  H18B 3211   2.504   3.689   7.252  2.2668 -2.3192 -0.3760
   44CHL1  H18C 3212   2.396   3.625   7.386 -0.5184  0.5655 -0.9854
   44CHL1   C12 3213   2.730   3.522   7.309  0.8467  0.1650 -0.3528
   44CHL1  H12A 3214   2.794   3.601   7.355  2.6867 -0.4848 -1.7169
   44CHL1  H12B 3215   2.776   3.421   7.318  0.5874  0.0881  0.0935
   44CHL1   C11 3216   2.737   3.557   7.160  0.3604  0.0007  0.0155
   44CHL1  H11A 3217   2.705   3.662   7.145 -0.9411 -0.4678 -0.5421
   44CHL1  H11B 3218   2.839   3.563   7.117  0.1341  0.5065 -0.4521
   44CHL1    C9 3219   2.651   3.466   7.075 -0.3302  0.2874 -0.0566
   44CHL1    H9 3220   2.699   3.366   7.088  1.5691  1.2850  0.6862
   44CHL1   C10 3221   2.640   3.494   6.924 -0.6927  0.4240  0.5591
   44CHL1   C19 3222   2.606   3.640   6.909 -1.0422 -0.1838  0.1979
   44CHL1  H19A 3223   2.688   3.704   6.948 -0.9668 -0.6442  0.7858
   44CHL1  H19B 3224   2.585   3.665   6.802  0.0721 -0.8277 -0.1848
   44CHL1  H19C 3225   2.510   3.672   6.955 -2.0445 -0.9640 -1.3059
   44CHL1    C1 3226   2.781   3.462   6.856  0.5183  0.6428  0.8934
   44CHL1   H1A 3227   2.855   3.531   6.902  0.1622  2.7949 -1.6591
   44CHL1   H1B 3228   2.811   3.359   6.886  0.9307  0.5997  0.3277
   44CHL1    C2 3229   2.778   3.476   6.702  0.2616 -0.3909  0.8318
   44CHL1   H2A 3230   2.873   3.459   6.647 -0.1132 -0.3396  0.1613
   44CHL1   H2B 3231   2.748   3.581   6.681 -0.4146 -0.3542  1.9180
   44CHL1   C20 3232   2.595   3.544   7.620 -0.5646 -0.3716 -0.0591
   44CHL1   H20 3233   2.524   3.630   7.609  0.0020  0.0348 -0.5731
   44CHL1   C21 3234   2.748   3.602   7.620  0.6483 -0.4494 -0.2002
   44CHL1  H21A 3235   2.770   3.645   7.720  0.4376 -0.6890 -0.0499
   44CHL1  H21B 3236   2.761   3.683   7.545 -1.4257 -1.0577 -1.2561
   44CHL1  H21C 3237   2.814   3.514   7.606  0.6635 -1.1828  3.9063
   44CHL1   C22 3238   2.567   3.482   7.757  0.5143  0.3749 -0.2767
   44CHL1  H22A 3239   2.462   3.449   7.740  1.0414 -0.8073 -1.3730
   44CHL1  H22B 3240   2.642   3.407   7.790  1.7122  1.6943  0.0118
   44CHL1   C23 3241   2.573   3.579   7.874 -0.1455  0.1748 -0.1155
   44CHL1  H23A 3242   2.680   3.591   7.901 -0.8719  0.8810  2.6252
   44CHL1  H23B 3243   2.523   3.675   7.848 -1.7975 -1.2033 -2.1491
   44CHL1   C24 3244   2.490   3.528   7.995 -0.9690  0.0836 -0.2841
   44CHL1  H24A 3245   2.401   3.474   7.954 -0.2985 -1.6432  0.4651
   44CHL1  H24B 3246   2.538   3.436   8.035 -1.1862  0.4577  0.8430
   44CHL1   C25 3247   2.473   3.646   8.098  0.1971  0.4288  0.0463
   44CHL1   H25 3248   2.407   3.723   8.054  0.9604  1.1635  0.1688
   44CHL1   C26 3249   2.391   3.586   8.218 -0.3987 -0.0626  0.4456
   44CHL1  H26A 3250   2.391   3.672   8.288  0.9687 -0.4070  0.8939
   44CHL1  H26B 3251   2.290   3.561   8.180  0.1881  0.2563 -1.4096
   44CHL1  H26C 3252   2.443   3.503   8.271  1.5411  0.5212 -0.4605
   44CHL1   C27 3253   2.610   3.691   8.147  0.1809  0.0999  0.2882
   44CHL1  H27A 3254   2.673   3.731   8.066  1.0944 -0.8414  0.5230
   44CHL1  H27B 3255   2.593   3.750   8.240 -0.1900  2.3544 -1.1727
   44CHL1  H27C 3256   2.659   3.602   8.192 -0.0346 -1.0979 -1.7682
   45CHL1    C3 3257   3.750   1.582   6.785  0.4634  0.4303  0.3384
   45CHL1    H3 3258   3.859   1.563   6.774  0.7960  2.1756  0.4584
   45CHL1    O3 3259   3.697   1.657   6.676 -0.1677 -0.0643  0.0717
   45CHL1   H3' 3260   3.768   1.683   6.617 -1.2136  1.4847 -0.5756
   45CHL1    C4 3261   3.674   1.446   6.783  0.0516  1.1091 -0.0368
   45CHL1   H4A 3262   3.567   1.472   6.796  0.1705  1.3641  0.4213
   45CHL1   H4B 3263   3.678   1.385   6.690  1.6796  0.6160  0.3353
   45CHL1    C5 3264   3.707   1.369   6.910  0.5670  0.6607 -0.2558
   45CHL1    C6 3265   3.768   1.241   6.903  0.8807 -0.2013 -0.3275
   45CHL1    H6 3266   3.799   1.201   6.805 -0.6302 -1.1301 -0.4419
   45CHL1    C7 3267   3.796   1.156   7.025 -1.0686 -0.2907  0.1298
   45CHL1   H7A 3268   3.764   1.050   7.010 -1.4016 -0.0934 -0.5913
   45CHL1   H7B 3269   3.903   1.143   7.052 -1.6192 -0.9451  2.0946
   45CHL1    C8 3270   3.730   1.216   7.152 -0.1403 -0.1573  0.1929
   45CHL1    H8 3271   3.621   1.194   7.143 -0.0187 -0.7868  0.2083
   45CHL1   C14 3272   3.783   1.142   7.271  0.7471  0.1015 -0.1512
   45CHL1   H14 3273   3.893   1.156   7.275  0.8190 -0.2548 -0.9368
   45CHL1   C15 3274   3.752   0.994   7.276 -0.6513  0.5506 -0.0805
   45CHL1  H15A 3275   3.651   0.970   7.237 -0.5750  1.4682 -0.8772
   45CHL1  H15B 3276   3.825   0.940   7.213  0.2004 -0.3966  1.6937
   45CHL1   C16 3277   3.770   0.947   7.425  0.2059 -0.0788 -0.2818
   45CHL1  H16A 3278   3.687   0.882   7.457  0.6587 -0.5199  0.0117
   45CHL1  H16B 3279   3.868   0.896   7.438 -0.1008 -0.5877  0.0173
   45CHL1   C17 3280   3.783   1.084   7.501 -0.3384  0.1376 -1.0840
   45CHL1   H17 3281   3.890   1.113   7.499 -0.0019 -0.9746  0.1926
   45CHL1   C13 3282   3.723   1.191   7.406 -0.2336 -0.5920 -0.4680
   45CHL1   C18 3283   3.569   1.172   7.422 -0.2682 -0.4678 -0.0231
   45CHL1  H18A 3284   3.540   1.066   7.433  1.9019 -1.1592 -0.7164
   45CHL1  H18B 3285   3.528   1.220   7.513 -0.0937 -0.3048 -0.0326
   45CHL1  H18C 3286   3.520   1.215   7.331  3.0953 -2.1320 -2.7355
   45CHL1   C12 3287   3.761   1.344   7.420 -1.0270 -0.6265 -0.5748
   45CHL1  H12A 3288   3.713   1.390   7.510  0.8091  0.4955 -0.1384
   45CHL1  H12B 3289   3.872   1.350   7.429 -0.9529 -0.8877 -1.3178
   45CHL1   C11 3290   3.702   1.430   7.305  0.0472  0.0886  0.5955
   45CHL1  H11A 3291   3.593   1.429   7.330  0.0195 -0.2468  0.4645
   45CHL1  H11B 3292   3.721   1.539   7.313 -1.3562  0.3354  0.7442
   45CHL1    C9 3293   3.750   1.370   7.167  0.0263  0.7425  0.4128
   45CHL1    H9 3294   3.860   1.386   7.169  0.1710 -0.3149  1.5547
   45CHL1   C10 3295   3.689   1.442   7.046  0.1700  0.4724 -0.0993
   45CHL1   C19 3296   3.531   1.459   7.067 -0.0870  1.0077  0.2625
   45CHL1  H19A 3297   3.487   1.497   6.972 -0.9540 -0.4777  0.0562
   45CHL1  H19B 3298   3.484   1.364   7.099  1.8931  0.4207  1.5571
   45CHL1  H19C 3299   3.504   1.531   7.147  0.6413 -0.0320  1.4743
   45CHL1    C1 3300   3.765   1.571   7.035  0.4773 -0.1127  0.0885
   45CHL1   H1A 3301   3.771   1.639   7.123 -1.0842  2.0102 -1.4345
   45CHL1   H1B 3302   3.872   1.550   7.012  0.6381  1.3500 -0.5183
   45CHL1    C2 3303   3.726   1.656   6.920  0.3190  0.1812  0.3171
   45CHL1   H2A 3304   3.780   1.753   6.931  1.7157 -0.2229 -2.6668
   45CHL1   H2B 3305   3.617   1.675   6.923  0.4508  1.9684 -3.5461
   45CHL1   C20 3306   3.742   1.081   7.643  0.4591 -0.3432  0.0178
   45CHL1   H20 3307   3.633   1.060   7.646  0.5766 -0.8477  1.3807
   45CHL1   C21 3308   3.770   1.207   7.722 -0.2143 -0.2403  0.2178
   45CHL1  H21A 3309   3.758   1.198   7.832 -1.4160 -1.6177 -0.0037
   45CHL1  H21B 3310   3.688   1.275   7.691  0.0992  0.4881  0.9715
   45CHL1  H21C 3311   3.865   1.250   7.685 -0.3368  0.6376  0.9063
   45CHL1   C22 3312   3.811   0.966   7.717 -0.2562  0.6347 -0.2796
   45CHL1  H22A 3313   3.821   0.873   7.658 -0.6329 -0.0778  0.7578
   45CHL1  H22B 3314   3.914   0.995   7.746 -0.9752  3.1871 -0.1460
   45CHL1   C23 3315   3.758   0.924   7.849 -0.6102  0.0627  0.4562
   45CHL1  H23A 3316   3.804   0.824   7.865  1.8738  1.4978  2.7335
   45CHL1  H23B 3317   3.799   0.991   7.928  3.5024 -2.2128  0.3745
   45CHL1   C24 3318   3.606   0.904   7.855 -0.3343  0.0692 -0.1117
   45CHL1  H24A 3319   3.557   1.003   7.840 -1.6782 -0.4807  0.4940
   45CHL1  H24B 3320   3.579   0.848   7.763 -1.1290  1.8848 -1.0177
   45CHL1   C25 3321   3.550   0.829   7.977  0.1699 -0.0975 -0.6668
   45CHL1   H25 3322   3.588   0.888   8.063  3.5730 -1.9717 -0.7980
   45CHL1   C26 3323   3.396   0.817   7.965  0.2507  0.4294  0.8859
   45CHL1  H26A 3324   3.352   0.758   8.048 -1.2867  1.1040  0.5839
   45CHL1  H26B 3325   3.339   0.910   7.944  1.0566  0.6697 -0.2340
   45CHL1  H26C 3326   3.392   0.750   7.877  0.1255 -0.6215  1.6761
   45CHL1   C27 3327   3.617   0.686   7.994  0.5421 -0.3085 -1.1969
   45CHL1  H27A 3328   3.574   0.635   8.083  2.0721 -1.7261 -1.2361
   45CHL1  H27B 3329   3.597   0.633   7.898 -1.0987 -0.5165 -0.7444
   45CHL1  H27C 3330   3.723   0.710   8.016 -0.0062  1.1381 -0.0660
   46CHL1    C3 3331   3.543   2.891   7.011 -0.1854 -0.0594  1.1631
   46CHL1    H3 3332   3.575   2.785   6.999 -2.9515 -0.7296 -0.5309
   46CHL1    O3 3333   3.546   2.959   6.884  0.1144  0.1124  0.0450
   46CHL1   H3' 3334   3.637   2.938   6.860 -0.1891 -2.1078  0.7319
   46CHL1    C4 3335   3.400   2.884   7.062  0.5834 -0.5292 -0.3975
   46CHL1   H4A 3336   3.361   2.988   7.067  1.7184 -0.0830 -0.6529
   46CHL1   H4B 3337   3.340   2.825   6.990  0.4125 -0.7023 -0.1160
   46CHL1    C5 3338   3.394   2.835   7.206 -1.0148  0.0493  0.4813
   46CHL1    C6 3339   3.322   2.728   7.247  0.2400 -0.5941  0.2784
   46CHL1    H6 3340   3.266   2.679   7.166  1.4099  1.1426 -1.6216
   46CHL1    C7 3341   3.301   2.679   7.386  0.1935  0.1534 -0.0952
   46CHL1   H7A 3342   3.198   2.642   7.406  0.5798 -1.8005 -1.6734
   46CHL1   H7B 3343   3.373   2.597   7.406  1.2912  1.1954  0.2968
   46CHL1    C8 3344   3.322   2.799   7.483 -1.7002 -0.8362 -0.3355
   46CHL1    H8 3345   3.246   2.880   7.478 -0.6288  0.1166 -1.6677
   46CHL1   C14 3346   3.325   2.757   7.626 -0.0040  0.3919 -0.5214
   46CHL1   H14 3347   3.407   2.682   7.630 -0.1864  0.1146 -1.8050
   46CHL1   C15 3348   3.197   2.682   7.675 -0.2202 -0.2207 -0.1643
   46CHL1  H15A 3349   3.112   2.739   7.631  1.0458  1.0603 -0.9621
   46CHL1  H15B 3350   3.183   2.581   7.631 -0.7427 -0.5506  0.7378
   46CHL1   C16 3351   3.209   2.684   7.829 -0.4520 -0.3828 -0.2966
   46CHL1  H16A 3352   3.117   2.716   7.883 -0.7463  0.4425 -1.2802
   46CHL1  H16B 3353   3.242   2.586   7.869  0.0736  0.1737  0.6434
   46CHL1   C17 3354   3.334   2.773   7.857 -0.5222 -0.4504  0.1800
   46CHL1   H17 3355   3.414   2.696   7.856 -2.4605 -2.4823  0.7211
   46CHL1   C13 3356   3.362   2.860   7.732 -1.0512  0.9405 -0.0655
   46CHL1   C18 3357   3.265   2.977   7.724 -1.2998  0.4319  0.2163
   46CHL1  H18A 3358   3.159   2.946   7.726 -1.4841  1.0152 -0.3721
   46CHL1  H18B 3359   3.287   3.059   7.796  0.5052  0.5085 -0.4011
   46CHL1  H18C 3360   3.274   3.024   7.624 -0.3856 -1.3394 -0.5517
   46CHL1   C12 3361   3.516   2.901   7.706  0.4859  0.1350  0.3706
   46CHL1  H12A 3362   3.547   2.976   7.782  0.1085 -0.7587  1.4183
   46CHL1  H12B 3363   3.584   2.814   7.701  0.5584  0.2371 -0.5222
   46CHL1   C11 3364   3.528   2.954   7.561  0.1192  0.4937 -0.4590
   46CHL1  H11A 3365   3.479   3.053   7.559 -0.5271  0.1657 -0.8717
   46CHL1  H11B 3366   3.636   2.961   7.533  0.9811 -1.9951  1.9815
   46CHL1    C9 3367   3.465   2.862   7.450 -0.1452  0.1278 -0.2109
   46CHL1    H9 3368   3.528   2.770   7.448  1.7137  1.3351  1.0690
   46CHL1   C10 3369   3.475   2.920   7.304 -0.1980  0.8571 -0.7058
   46CHL1   C19 3370   3.430   3.067   7.310 -0.1024  0.3772  0.4273
   46CHL1  H19A 3371   3.501   3.137   7.360  0.3394 -0.8695  1.5547
   46CHL1  H19B 3372   3.410   3.111   7.210 -0.1352  1.1070  0.7458
   46CHL1  H19C 3373   3.330   3.073   7.360 -0.4809  0.2235 -0.3017
   46CHL1    C1 3374   3.619   2.913   7.249  0.0573 -0.2264  0.1057
   46CHL1   H1A 3375   3.697   2.961   7.312  4.1125 -3.4530 -2.1746
   46CHL1   H1B 3376   3.651   2.807   7.252  5.2258  1.2224  1.9378
   46CHL1    C2 3377   3.640   2.965   7.105  0.3661 -0.1549  0.2079
   46CHL1   H2A 3378   3.740   2.943   7.062  0.7653  1.5532  0.2298
   46CHL1   H2B 3379   3.607   3.070   7.094 -1.8532 -0.8920 -0.4730
   46CHL1   C20 3380   3.353   2.840   7.995 -0.2473  1.0220 -0.7793
   46CHL1   H20 3381   3.359   2.951   7.992 -0.3961  1.0710  0.4463
   46CHL1   C21 3382   3.488   2.799   8.052 -0.0539 -0.0874  0.3717
   46CHL1  H21A 3383   3.513   2.871   8.133 -2.2773 -1.1729  2.0823
   46CHL1  H21B 3384   3.568   2.799   7.975 -0.3066  3.0063  0.0461
   46CHL1  H21C 3385   3.464   2.706   8.108  1.5101 -0.6941  0.0519
   46CHL1   C22 3386   3.239   2.807   8.093 -0.0459 -0.1378  0.2078
   46CHL1  H22A 3387   3.149   2.856   8.051  1.8233  2.2374 -1.1369
   46CHL1  H22B 3388   3.213   2.699   8.105  1.5010 -0.7050 -1.2754
   46CHL1   C23 3389   3.264   2.876   8.230 -0.1686  0.6700  0.0717
   46CHL1  H23A 3390   3.361   2.840   8.270 -1.5460  0.6879  3.5955
   46CHL1  H23B 3391   3.272   2.983   8.200  1.5918  0.6656  0.4501
   46CHL1   C24 3392   3.153   2.869   8.334  0.1148  0.5152 -0.0557
   46CHL1  H24A 3393   3.158   2.770   8.383 -0.0404  0.2358 -0.5994
   46CHL1  H24B 3394   3.171   2.953   8.405 -1.1185  0.2862  0.5320
   46CHL1   C25 3395   3.005   2.888   8.294 -0.4159  0.2883 -0.5091
   46CHL1   H25 3396   2.987   2.805   8.222  0.0697  0.6249 -1.0214
   46CHL1   C26 3397   2.910   2.875   8.420  0.5759  0.4350 -0.1148
   46CHL1  H26A 3398   2.804   2.847   8.404  0.8192 -0.4328 -0.2625
   46CHL1  H26B 3399   2.946   2.806   8.500  2.0721  1.9597  0.5678
   46CHL1  H26C 3400   2.909   2.976   8.465  1.5957 -0.3908  1.8460
   46CHL1   C27 3401   2.968   3.024   8.221 -0.2835 -0.1150  0.6471
   46CHL1  H27A 3402   2.859   3.027   8.201  0.2705  3.0955 -2.3805
   46CHL1  H27B 3403   2.998   3.108   8.287  0.3792  0.4345 -0.3435
   46CHL1  H27C 3404   3.014   3.047   8.122 -1.3903 -1.6898 -0.2675
   47CHL1    C3 3405   3.017   2.744   6.661  0.6841 -0.7367 -0.2257
   47CHL1    H3 3406   3.078   2.660   6.700  0.9137  0.1686  1.4221
   47CHL1    O3 3407   3.029   2.743   6.520 -0.0273 -0.6303 -0.0694
   47CHL1   H3' 3408   2.987   2.662   6.491 -0.8118 -0.6369  1.0576
   47CHL1    C4 3409   2.870   2.723   6.698  0.0189  0.4664  0.6333
   47CHL1   H4A 3410   2.807   2.805   6.657  1.4355  0.7770 -0.9789
   47CHL1   H4B 3411   2.846   2.626   6.649  2.1708 -0.9463  2.2475
   47CHL1    C5 3412   2.842   2.720   6.847  0.3633 -1.4041 -0.0348
   47CHL1    C6 3413   2.775   2.623   6.912 -0.2294 -0.1989 -0.3430
   47CHL1    H6 3414   2.737   2.548   6.842 -0.9942  1.7961 -2.1472
   47CHL1    C7 3415   2.754   2.613   7.061  0.3687  0.0325 -0.6608
   47CHL1   H7A 3416   2.651   2.577   7.082 -0.9824  3.5656 -0.7983
   47CHL1   H7B 3417   2.824   2.538   7.103  1.5148 -0.3691 -3.1812
   47CHL1    C8 3418   2.766   2.759   7.129  0.4069  0.3959 -0.1004
   47CHL1    H8 3419   2.683   2.820   7.088 -0.0291 -0.3354 -0.3133
   47CHL1   C14 3420   2.757   2.754   7.277 -0.3559 -0.0359 -0.6375
   47CHL1   H14 3421   2.834   2.680   7.310 -1.5500 -0.6667  0.8356
   47CHL1   C15 3422   2.625   2.699   7.329  0.8608 -0.4194  0.3801
   47CHL1  H15A 3423   2.536   2.744   7.281  0.4445 -1.3349  0.2698
   47CHL1  H15B 3424   2.614   2.590   7.306  0.4644 -0.1136 -0.8946
   47CHL1   C16 3425   2.635   2.738   7.476 -0.2399 -0.7030 -0.2963
   47CHL1  H16A 3426   2.537   2.776   7.512 -0.2219 -1.3699  0.4648
   47CHL1  H16B 3427   2.672   2.653   7.538 -0.0200 -1.2794 -1.2045
   47CHL1   C17 3428   2.746   2.843   7.493  0.3008  0.1079  0.3342
   47CHL1   H17 3429   2.833   2.786   7.533  0.3585  0.8683  1.3177
   47CHL1   C13 3430   2.784   2.885   7.352 -1.1337 -0.2762  0.2532
   47CHL1   C18 3431   2.682   2.994   7.310 -0.3907  0.5041 -0.2985
   47CHL1  H18A 3432   2.716   3.091   7.353  0.9474 -1.0670  2.3720
   47CHL1  H18B 3433   2.677   3.002   7.200  1.0886 -2.2334 -0.6051
   47CHL1  H18C 3434   2.587   2.962   7.358  1.1450 -0.7333  2.0548
   47CHL1   C12 3435   2.931   2.918   7.314  0.2801  0.7132  0.1414
   47CHL1  H12A 3436   2.975   3.000   7.375  0.1642  0.2948  0.7863
   47CHL1  H12B 3437   2.995   2.834   7.348  1.0303  1.7104  1.2509
   47CHL1   C11 3438   2.952   2.945   7.165 -0.0521  0.3151 -0.5080
   47CHL1  H11A 3439   2.884   3.027   7.134 -0.5868 -0.0181 -0.2185
   47CHL1  H11B 3440   3.060   2.962   7.144  0.7177 -1.5210  1.7124
   47CHL1    C9 3441   2.899   2.820   7.081 -0.4620 -0.3072 -0.2137
   47CHL1    H9 3442   2.973   2.739   7.100 -1.3774 -0.8269  1.2560
   47CHL1   C10 3443   2.905   2.838   6.924  0.5468 -0.7650 -0.1862
   47CHL1   C19 3444   2.824   2.969   6.894 -0.7503  0.0632 -0.5202
   47CHL1  H19A 3445   2.806   2.979   6.785  0.4205 -0.9757 -0.8251
   47CHL1  H19B 3446   2.722   2.983   6.935  0.1114  3.2555  0.6672
   47CHL1  H19C 3447   2.882   3.059   6.924 -3.3867  1.7480 -0.2898
   47CHL1    C1 3448   3.049   2.872   6.871  0.6192  0.0404 -0.1694
   47CHL1   H1A 3449   3.078   2.964   6.925 -0.6270 -2.8972  5.8541
   47CHL1   H1B 3450   3.126   2.804   6.911  0.6107  0.3838  0.4354
   47CHL1    C2 3451   3.066   2.877   6.718 -0.6984  0.1194  0.3025
   47CHL1   H2A 3452   3.175   2.882   6.697 -0.7454  1.8591  0.4518
   47CHL1   H2B 3453   3.017   2.964   6.669 -2.0501 -1.3938 -1.1005
   47CHL1   C20 3454   2.712   2.950   7.598  0.2317 -0.2615  0.0989
   47CHL1   H20 3455   2.630   3.018   7.567  0.4906  1.3266  2.7394
   47CHL1   C21 3456   2.836   3.033   7.624  0.3889 -0.1591  0.9979
   47CHL1  H21A 3457   2.925   2.970   7.639  1.9266  1.2566 -1.8632
   47CHL1  H21B 3458   2.836   3.108   7.706  0.4911 -1.8026  2.5158
   47CHL1  H21C 3459   2.851   3.088   7.529 -1.5481 -1.8434 -0.3342
   47CHL1   C22 3460   2.657   2.910   7.733 -0.1722  0.5846 -0.5157
   47CHL1  H22A 3461   2.621   2.993   7.797 -2.6251 -1.0080  0.2399
   47CHL1  H22B 3462   2.556   2.866   7.718  0.5583 -1.3704  0.1419
   47CHL1   C23 3463   2.753   2.816   7.807 -0.2605  0.0547  0.2778
   47CHL1  H23A 3464   2.754   2.717   7.756 -0.2796  0.4266 -0.4432
   47CHL1  H23B 3465   2.858   2.849   7.791 -0.7310  1.2266 -0.3977
   47CHL1   C24 3466   2.719   2.795   7.957 -0.1119  0.5626  0.0228
   47CHL1  H24A 3467   2.772   2.873   8.015 -2.9237  1.3791  1.5938
   47CHL1  H24B 3468   2.612   2.825   7.968 -0.3103 -1.2240  3.9067
   47CHL1   C25 3469   2.737   2.653   8.010 -0.5400  0.8984  0.1343
   47CHL1   H25 3470   2.675   2.587   7.945 -0.1491 -0.4443  1.0864
   47CHL1   C26 3471   2.878   2.605   7.996  0.0890 -0.3874  0.0530
   47CHL1  H26A 3472   2.891   2.520   8.066  2.4786  1.3195  1.7688
   47CHL1  H26B 3473   2.902   2.572   7.893  1.7477  0.5943  0.1117
   47CHL1  H26C 3474   2.951   2.684   8.023 -0.0728 -0.3884  0.4980
   47CHL1   C27 3475   2.697   2.642   8.165 -0.4856 -0.0807  0.4098
   47CHL1  H27A 3476   2.712   2.536   8.197 -1.6369  0.5441  3.1405
   47CHL1  H27B 3477   2.757   2.705   8.234 -1.5128  0.2135  1.0402
   47CHL1  H27C 3478   2.591   2.674   8.169 -0.7608 -0.8069 -0.6170
   48CHL1    C3 3479   6.344   5.089   6.321  0.2736  0.0940 -0.0040
   48CHL1    H3 3480   6.339   4.978   6.312  1.4308  0.0335  0.0486
   48CHL1    O3 3481   6.327   5.129   6.186 -0.0367  0.1346  0.0817
   48CHL1   H3' 3482   6.362   5.218   6.184  1.9756 -0.6332 -0.2142
   48CHL1    C4 3483   6.237   5.146   6.422  0.1216  0.4801 -0.0995
   48CHL1   H4A 3484   6.230   5.256   6.418 -1.0333  0.4093 -0.3243
   48CHL1   H4B 3485   6.136   5.111   6.392 -0.0482  0.6983  0.2031
   48CHL1    C5 3486   6.263   5.085   6.561 -0.4896 -0.0175  0.1887
   48CHL1    C6 3487   6.170   5.019   6.626 -0.1296 -0.5607  0.0186
   48CHL1    H6 3488   6.068   5.010   6.586 -0.4479 -1.0321  0.9191
   48CHL1    C7 3489   6.197   4.968   6.771  0.5377  0.4238  0.8131
   48CHL1   H7A 3490   6.107   4.980   6.836  1.8128 -0.0372  2.6899
   48CHL1   H7B 3491   6.211   4.858   6.775 -0.6660  0.1993 -0.4592
   48CHL1    C8 3492   6.315   5.042   6.838  0.2318 -0.2258 -0.5039
   48CHL1    H8 3493   6.290   5.148   6.860 -0.1494  0.1174 -2.4850
   48CHL1   C14 3494   6.348   4.980   6.974  0.2457  0.6591  0.3462
   48CHL1   H14 3495   6.369   4.876   6.942  1.4535  0.6702  1.0417
   48CHL1   C15 3496   6.234   4.972   7.068  0.0488 -0.2255  0.1643
   48CHL1  H15A 3497   6.191   5.075   7.067  0.3465 -0.1116 -1.3027
   48CHL1  H15B 3498   6.157   4.898   7.041  0.2270 -0.3345 -0.0476
   48CHL1   C16 3499   6.299   4.945   7.203 -0.6933 -0.2294 -0.0049
   48CHL1  H16A 3500   6.262   5.018   7.277  1.9719  1.6868 -0.4969
   48CHL1  H16B 3501   6.266   4.849   7.248  0.1713  0.0983  1.3665
   48CHL1   C17 3502   6.454   4.950   7.183 -0.1192 -0.0267 -0.2295
   48CHL1   H17 3503   6.488   4.846   7.163 -1.6010 -0.4731 -0.4814
   48CHL1   C13 3504   6.473   5.027   7.053 -0.0459 -0.8721 -0.4111
   48CHL1   C18 3505   6.457   5.184   7.082  0.4126  0.6910 -0.0847
   48CHL1  H18A 3506   6.414   5.235   6.993 -1.3039 -0.2372  0.1933
   48CHL1  H18B 3507   6.382   5.195   7.163  1.8752 -1.2518  1.6115
   48CHL1  H18C 3508   6.557   5.225   7.108  1.0541  0.2861 -1.8247
   48CHL1   C12 3509   6.587   4.992   6.967 -0.0340 -0.7004 -0.5089
   48CHL1  H12A 3510   6.687   5.016   7.010  0.8921 -0.8871 -2.5153
   48CHL1  H12B 3511   6.590   4.884   6.943 -0.6298 -1.4497  2.5781
   48CHL1   C11 3512   6.575   5.071   6.833 -0.0465  0.3496 -0.3704
   48CHL1  H11A 3513   6.575   5.180   6.851  0.6182  0.2509  0.2577
   48CHL1  H11B 3514   6.667   5.040   6.777  0.9953  4.4565 -1.0877
   48CHL1    C9 3515   6.434   5.044   6.754 -0.4281 -0.3269  0.5844
   48CHL1    H9 3516   6.434   4.935   6.730 -0.9838 -0.0274 -0.7889
   48CHL1   C10 3517   6.409   5.116   6.613 -1.1095 -0.5840  0.5297
   48CHL1   C19 3518   6.427   5.274   6.635  0.4332 -0.3009 -0.3201
   48CHL1  H19A 3519   6.362   5.305   6.720 -0.1408 -1.5258 -0.2940
   48CHL1  H19B 3520   6.528   5.314   6.657 -0.0639  0.8427 -0.1065
   48CHL1  H19C 3521   6.392   5.322   6.541  1.8659 -0.5629 -0.9954
   48CHL1    C1 3522   6.504   5.059   6.508 -1.1766 -0.5643  0.0600
   48CHL1   H1A 3523   6.608   5.072   6.545 -1.1456 -0.6256 -0.0059
   48CHL1   H1B 3524   6.493   4.949   6.504  2.4219 -1.0374  1.1790
   48CHL1    C2 3525   6.488   5.122   6.373  0.3524 -0.1278  0.1992
   48CHL1   H2A 3526   6.561   5.073   6.305  1.0253 -0.4423  1.1365
   48CHL1   H2B 3527   6.506   5.231   6.376 -2.1679  0.3378 -0.6044
   48CHL1   C20 3528   6.527   5.003   7.315 -0.0867 -0.1967 -0.2674
   48CHL1   H20 3529   6.495   5.108   7.328 -0.7370 -0.2666 -1.1982
   48CHL1   C21 3530   6.672   5.009   7.286  0.1980  0.2660  0.4154
   48CHL1  H21A 3531   6.715   4.910   7.260 -1.4017 -0.1923 -0.5027
   48CHL1  H21B 3532   6.726   5.044   7.377 -1.4252  4.0171  0.0356
   48CHL1  H21C 3533   6.702   5.084   7.210  2.1540  0.9952  1.8326
   48CHL1   C22 3534   6.488   4.923   7.439 -0.0003  0.1654  0.9271
   48CHL1  H22A 3535   6.379   4.927   7.457 -0.1233  2.8954 -0.1225
   48CHL1  H22B 3536   6.516   4.817   7.424 -0.4411  0.2630 -0.5955
   48CHL1   C23 3537   6.559   4.962   7.569  0.2951 -0.6795 -0.0474
   48CHL1  H23A 3538   6.668   4.936   7.570  0.6059  0.5951  2.7973
   48CHL1  H23B 3539   6.548   5.069   7.594  1.2365 -0.7535  0.7277
   48CHL1   C24 3540   6.502   4.887   7.689 -0.4954 -0.3282 -0.0486
   48CHL1  H24A 3541   6.395   4.915   7.699 -0.4849 -0.5202  0.6235
   48CHL1  H24B 3542   6.522   4.779   7.672  1.5143 -0.1940  1.2571
   48CHL1   C25 3543   6.569   4.922   7.816  0.2336  0.3710 -0.6953
   48CHL1   H25 3544   6.672   4.950   7.787 -0.3926  1.1149 -2.2190
   48CHL1   C26 3545   6.494   5.046   7.888 -0.2547  0.5930  0.4250
   48CHL1  H26A 3546   6.390   5.020   7.917 -0.1756 -0.2193 -0.0128
   48CHL1  H26B 3547   6.554   5.072   7.978  0.3237  2.6923 -0.5299
   48CHL1  H26C 3548   6.500   5.132   7.817 -3.5117  1.3992  1.0563
   48CHL1   C27 3549   6.578   4.808   7.910 -0.0832  0.2950 -0.3250
   48CHL1  H27A 3550   6.620   4.838   8.008  2.8647 -1.2060 -1.0790
   48CHL1  H27B 3551   6.483   4.755   7.935  0.9505 -1.1429  0.6719
   48CHL1  H27C 3552   6.660   4.740   7.880 -0.8715 -1.2197  0.8168
   49CHL1    C3 3553   5.620   6.703   6.762  0.2800 -0.5728  0.1157
   49CHL1    H3 3554   5.532   6.668   6.820 -0.6329  3.1272  1.1130
   49CHL1    O3 3555   5.584   6.715   6.622 -0.3527  0.2917  0.1434
   49CHL1   H3' 3556   5.655   6.765   6.582 -0.8180  1.5085  0.8113
   49CHL1    C4 3557   5.661   6.847   6.812  0.4993  0.2047 -0.1679
   49CHL1   H4A 3558   5.755   6.883   6.767 -0.6414  3.0398 -0.3885
   49CHL1   H4B 3559   5.585   6.915   6.768 -0.2703 -1.9031 -2.1742
   49CHL1    C5 3560   5.669   6.832   6.967  0.5601  0.3054 -0.2528
   49CHL1    C6 3561   5.588   6.894   7.051  0.2120  0.0891 -0.4158
   49CHL1    H6 3562   5.538   6.980   7.003  0.1807 -0.7276 -1.8788
   49CHL1    C7 3563   5.598   6.898   7.197 -0.0237  0.0886 -0.3732
   49CHL1   H7A 3564   5.600   6.998   7.246 -1.5597 -0.6705  1.3096
   49CHL1   H7B 3565   5.512   6.846   7.246  0.5891 -1.3661 -0.8173
   49CHL1    C8 3566   5.726   6.825   7.253  0.5733 -0.3470 -0.0206
   49CHL1    H8 3567   5.812   6.895   7.241 -0.5696  0.6689 -2.5898
   49CHL1   C14 3568   5.703   6.794   7.406 -0.2568  0.6183 -0.5781
   49CHL1   H14 3569   5.620   6.722   7.418  0.3054 -0.1804 -1.3815
   49CHL1   C15 3570   5.664   6.908   7.498  1.0196 -0.1149  0.4313
   49CHL1  H15A 3571   5.723   6.998   7.469 -0.4002  0.3482 -1.0579
   49CHL1  H15B 3572   5.561   6.948   7.491  0.0085 -2.8777 -1.1827
   49CHL1   C16 3573   5.700   6.863   7.641 -0.3332 -0.9653  0.3637
   49CHL1  H16A 3574   5.760   6.942   7.690 -0.9305  0.5878 -1.3339
   49CHL1  H16B 3575   5.606   6.845   7.697 -1.2869 -0.6763 -1.1030
   49CHL1   C17 3576   5.781   6.731   7.621 -0.2717  0.2339  0.1843
   49CHL1   H17 3577   5.704   6.652   7.632  1.8169 -1.6425  1.9175
   49CHL1   C13 3578   5.822   6.727   7.470  0.7288 -0.1387  0.8013
   49CHL1   C18 3579   5.948   6.803   7.456  0.5644  0.2159  0.3152
   49CHL1  H18A 3580   5.983   6.811   7.351 -0.4875 -1.8228 -0.2245
   49CHL1  H18B 3581   5.944   6.906   7.498  0.6082  0.3256  0.0580
   49CHL1  H18C 3582   6.031   6.746   7.503  0.0160 -2.8830 -2.3106
   49CHL1   C12 3583   5.836   6.587   7.404  0.1819 -0.9549  0.3936
   49CHL1  H12A 3584   5.928   6.534   7.435  1.7685  0.8868 -1.0140
   49CHL1  H12B 3585   5.740   6.533   7.418 -0.3243 -0.2202 -0.2076
   49CHL1   C11 3586   5.856   6.608   7.250 -0.2391 -0.1394  0.0273
   49CHL1  H11A 3587   5.958   6.650   7.234 -0.1376  0.5239  2.3341
   49CHL1  H11B 3588   5.852   6.506   7.204  0.7947 -0.6287  0.9942
   49CHL1    C9 3589   5.755   6.701   7.179  0.6045 -0.3987 -0.7754
   49CHL1    H9 3590   5.662   6.641   7.188  0.9710 -0.8270  0.1418
   49CHL1   C10 3591   5.765   6.722   7.023 -0.0036  0.6744  0.7677
   49CHL1   C19 3592   5.914   6.767   7.004  0.8189  0.2225  0.7300
   49CHL1  H19A 3593   5.933   6.817   6.906  0.5463 -1.3220 -0.1130
   49CHL1  H19B 3594   5.932   6.849   7.077  1.0027 -1.8254  3.0188
   49CHL1  H19C 3595   5.972   6.673   7.013 -1.1857 -1.2604 -1.3600
   49CHL1    C1 3596   5.745   6.590   6.944 -0.0332  0.1799  0.0473
   49CHL1   H1A 3597   5.834   6.530   6.972 -1.5225 -1.5361  1.1949
   49CHL1   H1B 3598   5.662   6.537   6.995  1.9955 -1.5154  1.6805
   49CHL1    C2 3599   5.725   6.597   6.791 -0.3857 -0.2732  0.7869
   49CHL1   H2A 3600   5.707   6.491   6.761 -1.2751 -0.5680  2.2522
   49CHL1   H2B 3601   5.822   6.630   6.749 -0.4560 -0.2229  0.6652
   49CHL1   C20 3602   5.885   6.702   7.726  0.2831  0.2642  0.0195
   49CHL1   H20 3603   5.960   6.783   7.712 -0.5565  0.9496 -0.5622
   49CHL1   C21 3604   5.944   6.559   7.723 -0.4329 -0.5911  0.5574
   49CHL1  H21A 3605   5.864   6.483   7.712 -0.3882 -0.6059  0.3266
   49CHL1  H21B 3606   6.004   6.536   7.814  1.4858 -0.1930 -0.5703
   49CHL1  H21C 3607   6.005   6.540   7.632 -0.5285  0.4071  0.2817
   49CHL1   C22 3608   5.828   6.722   7.869  0.0482 -0.0106  0.5349
   49CHL1  H22A 3609   5.758   6.809   7.864  0.1558  0.0416 -0.0419
   49CHL1  H22B 3610   5.775   6.631   7.904  0.4418  0.0538  1.3112
   49CHL1   C23 3611   5.944   6.764   7.961  0.8645 -0.0781 -0.0639
   49CHL1  H23A 3612   6.024   6.687   7.966  0.5663 -0.2602  2.1591
   49CHL1  H23B 3613   5.974   6.856   7.907 -2.3897 -0.3215 -2.4426
   49CHL1   C24 3614   5.916   6.812   8.104  0.0413  0.1059  0.0285
   49CHL1  H24A 3615   5.848   6.900   8.103  1.4985  1.2957  2.1465
   49CHL1  H24B 3616   5.871   6.722   8.152  1.1885 -0.1539  0.6510
   49CHL1   C25 3617   6.040   6.852   8.189  0.1012  0.6107  0.1330
   49CHL1   H25 3618   6.109   6.927   8.144  0.0814  0.4775 -0.1217
   49CHL1   C26 3619   6.004   6.903   8.328 -0.6422 -1.1151  0.2791
   49CHL1  H26A 3620   6.092   6.915   8.396  0.1302 -1.5269 -0.6382
   49CHL1  H26B 3621   5.943   6.996   8.327  0.0419 -0.6505  0.8329
   49CHL1  H26C 3622   5.934   6.830   8.375 -0.5612 -2.0834 -1.1034
   49CHL1   C27 3623   6.130   6.729   8.203 -0.1751 -0.2870  0.4372
   49CHL1  H27A 3624   6.174   6.706   8.103 -0.5235  2.4173 -0.3740
   49CHL1  H27B 3625   6.213   6.760   8.269  0.3167  2.7498 -1.4961
   49CHL1  H27C 3626   6.084   6.641   8.252  1.1182 -0.1060  2.0008
   50CHL1    C3 3627   6.043   1.017   6.944 -0.6337 -0.2998 -1.0857
   50CHL1    H3 3628   6.147   1.053   6.953 -0.7746 -0.2916  0.7242
   50CHL1    O3 3629   6.007   1.000   6.812  0.1786  0.2360 -0.6412
   50CHL1   H3' 3630   5.982   1.087   6.780 -1.2608  0.4194  0.9446
   50CHL1    C4 3631   6.036   0.879   7.014  0.4663 -0.3314  0.0753
   50CHL1   H4A 3632   5.934   0.839   6.994  0.7133  0.5099 -3.1611
   50CHL1   H4B 3633   6.119   0.817   6.974  0.1462  0.0672 -1.2483
   50CHL1    C5 3634   6.049   0.899   7.167 -0.3104  0.0938  0.7527
   50CHL1    C6 3635   6.138   0.823   7.236 -0.1696 -0.3642 -0.1390
   50CHL1    H6 3636   6.214   0.759   7.189  0.8949  0.3630  0.5847
   50CHL1    C7 3637   6.168   0.838   7.379  0.7675  0.6456 -0.8579
   50CHL1   H7A 3638   6.174   0.739   7.428  1.1440  1.0727 -0.0251
   50CHL1   H7B 3639   6.266   0.887   7.398  1.3336 -0.5165 -0.7659
   50CHL1    C8 3640   6.064   0.903   7.468  0.3292 -0.2539  0.6436
   50CHL1    H8 3641   5.977   0.834   7.476  0.1483  0.0259  1.1073
   50CHL1   C14 3642   6.107   0.945   7.605 -0.7089 -0.2818  0.5176
   50CHL1   H14 3643   6.187   1.020   7.586  0.4291 -1.3804  0.8733
   50CHL1   C15 3644   6.181   0.847   7.694 -0.1003 -0.3515  0.4985
   50CHL1  H15A 3645   6.138   0.746   7.674 -1.8304  0.7943 -1.8688
   50CHL1  H15B 3646   6.287   0.847   7.662 -0.2444  0.8452 -0.0159
   50CHL1   C16 3647   6.157   0.890   7.839  0.0432 -0.0642 -0.0478
   50CHL1  H16A 3648   6.101   0.803   7.880  0.4778 -1.1876 -1.7674
   50CHL1  H16B 3649   6.255   0.910   7.888  0.2785  0.4277 -0.7210
   50CHL1   C17 3650   6.075   1.015   7.831 -0.2320 -0.4636 -0.3972
   50CHL1   H17 3651   6.150   1.097   7.825  1.4006 -1.9163 -0.4540
   50CHL1   C13 3652   5.998   1.004   7.695  0.4366 -0.2575 -0.2809
   50CHL1   C18 3653   5.883   0.899   7.711  0.3501  0.6506  0.5463
   50CHL1  H18A 3654   5.923   0.799   7.737 -1.7263 -0.9879 -2.2246
   50CHL1  H18B 3655   5.798   0.918   7.780  0.1026  0.7318  0.2227
   50CHL1  H18C 3656   5.827   0.877   7.617  2.9385  2.0754 -1.4091
   50CHL1   C12 3657   5.950   1.137   7.630 -0.0669 -0.5275  0.7049
   50CHL1  H12A 3658   5.869   1.188   7.687  0.1336  2.8576 -1.8967
   50CHL1  H12B 3659   6.040   1.202   7.620 -0.8568  0.8748  2.4348
   50CHL1   C11 3660   5.907   1.108   7.482 -0.1844 -0.7733 -0.4831
   50CHL1  H11A 3661   5.800   1.079   7.476 -0.3346 -0.4551  0.4652
   50CHL1  H11B 3662   5.916   1.206   7.431  0.7433 -0.0772  0.9892
   50CHL1    C9 3663   6.017   1.032   7.395  0.7063 -0.9158 -0.1691
   50CHL1    H9 3664   6.105   1.099   7.389  0.5826 -0.7224  0.1959
   50CHL1   C10 3665   5.964   1.004   7.251  0.3438  0.3355  0.0436
   50CHL1   C19 3666   5.825   0.948   7.248  0.1884 -0.3174  0.6532
   50CHL1  H19A 3667   5.786   0.926   7.146  0.5848 -0.9410  0.6341
   50CHL1  H19B 3668   5.813   0.861   7.316 -0.1386  0.3052  1.3926
   50CHL1  H19C 3669   5.760   1.027   7.290 -0.0217  1.5410 -2.9690
   50CHL1    C1 3670   5.978   1.131   7.159 -0.0686 -0.2507 -0.4049
   50CHL1   H1A 3671   5.915   1.213   7.198 -2.9590 -1.5039 -2.2387
   50CHL1   H1B 3672   6.082   1.167   7.175  0.2959  0.3476 -3.8138
   50CHL1    C2 3673   5.942   1.112   7.019 -1.2219  0.0114 -0.7070
   50CHL1   H2A 3674   5.954   1.210   6.970  1.5320 -0.4621 -1.0709
   50CHL1   H2B 3675   5.839   1.079   6.996 -0.5515 -3.1731  0.4361
   50CHL1   C20 3676   5.990   1.057   7.954 -0.3893  0.0927 -0.0610
   50CHL1   H20 3677   5.894   1.092   7.909 -1.1528 -1.3464  0.3949
   50CHL1   C21 3678   6.057   1.183   8.016 -0.3945 -0.4652 -0.6475
   50CHL1  H21A 3679   6.150   1.154   8.069 -1.4447  0.2900  1.6907
   50CHL1  H21B 3680   5.988   1.218   8.096 -0.7505  0.1259 -1.2050
   50CHL1  H21C 3681   6.075   1.260   7.937  0.4018  1.1297  1.0617
   50CHL1   C22 3682   5.950   0.945   8.055 -0.9015 -0.4686 -0.4960
   50CHL1  H22A 3683   5.884   0.879   7.995 -2.1178 -0.6092  0.9506
   50CHL1  H22B 3684   6.029   0.879   8.097 -1.7513 -0.2106  1.5994
   50CHL1   C23 3685   5.871   0.994   8.175  0.2196  0.3932  0.0239
   50CHL1  H23A 3686   5.930   1.048   8.252 -1.8825  2.1516  0.4694
   50CHL1  H23B 3687   5.802   1.071   8.134  1.1276  0.1344 -2.0406
   50CHL1   C24 3688   5.784   0.894   8.250  0.7037 -0.1145  0.6259
   50CHL1  H24A 3689   5.860   0.822   8.286  0.4219 -1.5713 -1.5713
   50CHL1  H24B 3690   5.749   0.954   8.337 -0.3485 -0.7232  0.6313
   50CHL1   C25 3691   5.656   0.847   8.170 -0.3373 -0.3249 -0.1830
   50CHL1   H25 3692   5.688   0.812   8.070  1.2428  1.2303 -0.2403
   50CHL1   C26 3693   5.598   0.728   8.248  0.0741 -0.7115  0.0624
   50CHL1  H26A 3694   5.564   0.762   8.348 -0.1992  0.3961 -0.4036
   50CHL1  H26B 3695   5.512   0.684   8.193 -1.0203 -2.1265  2.7935
   50CHL1  H26C 3696   5.665   0.640   8.258  1.9115  0.2062 -3.5374
   50CHL1   C27 3697   5.546   0.957   8.147  0.2191  0.1870 -0.5136
   50CHL1  H27A 3698   5.462   0.909   8.093  0.6362 -0.3983 -0.6411
   50CHL1  H27B 3699   5.514   1.003   8.243  3.4419  0.1603  0.6540
   50CHL1  H27C 3700   5.599   1.032   8.084 -0.5848  3.2214  2.2479
   51CHL1    C3 3701   6.442   6.691   6.728  0.7641  0.4774 -0.8883
   51CHL1    H3 3702   6.455   6.588   6.688  0.7997 -0.4257  1.3705
   51CHL1    O3 3703   6.414   6.780   6.617  0.0048 -0.4472  0.5143
   51CHL1   H3' 3704   6.392   6.867   6.651  0.6684  0.3279 -1.0001
   51CHL1    C4 3705   6.315   6.702   6.817  0.1931  0.2060 -0.8601
   51CHL1   H4A 3706   6.305   6.809   6.847  1.4715  0.5575 -1.6285
   51CHL1   H4B 3707   6.217   6.686   6.768  0.2945  0.5143 -1.1692
   51CHL1    C5 3708   6.323   6.632   6.950  0.2678  0.2905  0.2214
   51CHL1    C6 3709   6.231   6.547   6.994 -0.5996 -0.4758 -0.3057
   51CHL1    H6 3710   6.137   6.533   6.939 -1.9954  0.3381  1.7862
   51CHL1    C7 3711   6.237   6.483   7.131  0.1861 -0.0425 -0.6609
   51CHL1   H7A 3712   6.142   6.486   7.189  1.1451 -0.7561  0.9917
   51CHL1   H7B 3713   6.257   6.374   7.131 -0.5508 -0.3181  4.9026
   51CHL1    C8 3714   6.355   6.536   7.218 -0.1130  0.0611 -0.1311
   51CHL1    H8 3715   6.315   6.624   7.271  3.2038  0.7607  1.3293
   51CHL1   C14 3716   6.384   6.428   7.324 -0.2979 -0.4406  0.4122
   51CHL1   H14 3717   6.415   6.341   7.262 -0.4194 -1.4892  1.7965
   51CHL1   C15 3718   6.264   6.389   7.410 -0.0124  0.8790 -0.4899
   51CHL1  H15A 3719   6.204   6.476   7.446 -1.2824 -0.9717  2.0300
   51CHL1  H15B 3720   6.188   6.326   7.360  0.9587  0.9375 -2.0802
   51CHL1   C16 3721   6.322   6.335   7.545 -0.0588 -0.3532 -0.2116
   51CHL1  H16A 3722   6.286   6.403   7.625 -0.7622 -0.6794 -0.2405
   51CHL1  H16B 3723   6.291   6.230   7.566  1.4536 -0.9313 -0.7908
   51CHL1   C17 3724   6.478   6.347   7.525 -0.0722  0.3433  0.3761
   51CHL1   H17 3725   6.511   6.252   7.478 -0.5269  0.4241 -0.1088
   51CHL1   C13 3726   6.492   6.469   7.423 -0.2040 -0.0211  0.3632
   51CHL1   C18 3727   6.460   6.603   7.502 -0.1359  0.2917 -0.2467
   51CHL1  H18A 3728   6.382   6.575   7.576  0.1702 -0.2518 -0.1263
   51CHL1  H18B 3729   6.551   6.630   7.560  0.3639 -1.4983 -0.1821
   51CHL1  H18C 3730   6.423   6.679   7.431  0.4364  1.1465  0.3519
   51CHL1   C12 3731   6.619   6.487   7.337  0.1643  0.2041 -0.0417
   51CHL1  H12A 3732   6.710   6.488   7.400  1.3776  0.5450 -1.7725
   51CHL1  H12B 3733   6.637   6.396   7.275  1.1913  0.8122 -0.6313
   51CHL1   C11 3734   6.599   6.606   7.231 -0.9338  1.1274  0.5335
   51CHL1  H11A 3735   6.576   6.700   7.286 -2.7069  0.6530  0.6244
   51CHL1  H11B 3736   6.695   6.616   7.175 -0.7399  1.9798  1.0153
   51CHL1    C9 3737   6.486   6.563   7.136  0.1389 -0.4738 -1.0688
   51CHL1    H9 3738   6.515   6.468   7.086  1.3374  0.4428 -2.1512
   51CHL1   C10 3739   6.452   6.668   7.021 -0.1051  0.0077  0.3268
   51CHL1   C19 3740   6.448   6.811   7.085  0.1262  1.2430 -0.5454
   51CHL1  H19A 3741   6.424   6.884   7.005 -1.0001 -0.0159 -1.3843
   51CHL1  H19B 3742   6.381   6.814   7.174  2.5506  3.0914  1.2516
   51CHL1  H19C 3743   6.546   6.838   7.129  0.6682  0.4074 -1.2326
   51CHL1    C1 3744   6.582   6.661   6.928  1.0438 -0.1615  0.1662
   51CHL1   H1A 3745   6.673   6.690   6.984  1.8246  0.1424 -1.2434
   51CHL1   H1B 3746   6.617   6.558   6.907 -0.3977 -0.7352  0.4943
   51CHL1    C2 3747   6.576   6.733   6.797  0.2103  0.3926  0.1442
   51CHL1   H2A 3748   6.661   6.709   6.728  1.6787 -0.0293  2.0713
   51CHL1   H2B 3749   6.568   6.842   6.817 -2.3139  0.0715  1.0050
   51CHL1   C20 3750   6.560   6.354   7.661  0.5083  0.5269  0.8840
   51CHL1   H20 3751   6.540   6.451   7.711  0.5066 -0.1544  2.2550
   51CHL1   C21 3752   6.718   6.338   7.624  0.6315 -0.5098  0.2698
   51CHL1  H21A 3753   6.779   6.307   7.711 -0.3049 -2.3862  0.2847
   51CHL1  H21B 3754   6.751   6.436   7.583  1.3188 -1.1026 -0.6256
   51CHL1  H21C 3755   6.731   6.265   7.541  1.1962  1.0811 -1.0782
   51CHL1   C22 3756   6.512   6.246   7.757 -0.2590  0.7148 -0.1299
   51CHL1  H22A 3757   6.402   6.231   7.749 -0.5747  3.4346 -1.4820
   51CHL1  H22B 3758   6.551   6.150   7.717  1.0379  0.1552  2.3587
   51CHL1   C23 3759   6.556   6.254   7.903 -0.1749  0.2625  0.1653
   51CHL1  H23A 3760   6.516   6.163   7.951  0.9169  0.1212  0.8180
   51CHL1  H23B 3761   6.666   6.249   7.914 -0.4426 -1.2944  2.3450
   51CHL1   C24 3762   6.517   6.387   7.965 -0.5426  0.4227 -0.0945
   51CHL1  H24A 3763   6.593   6.463   7.935 -2.1321  2.8557  1.8025
   51CHL1  H24B 3764   6.417   6.422   7.931 -1.5175  0.3900  2.6289
   51CHL1   C25 3765   6.523   6.385   8.122  0.0969 -0.4260  0.4505
   51CHL1   H25 3766   6.462   6.297   8.153 -1.7615  1.3238  1.8465
   51CHL1   C26 3767   6.670   6.368   8.175  0.1922  0.0343  0.1448
   51CHL1  H26A 3768   6.704   6.264   8.191 -1.9130 -0.5581  0.8622
   51CHL1  H26B 3769   6.742   6.405   8.099 -1.3632 -0.7989 -1.7689
   51CHL1  H26C 3770   6.675   6.413   8.277  0.5799  0.7204 -0.1689
   51CHL1   C27 3771   6.466   6.512   8.182 -0.2942  0.5361  0.0777
   51CHL1  H27A 3772   6.364   6.546   8.154  0.3110  1.4292 -1.0861
   51CHL1  H27B 3773   6.462   6.502   8.292 -0.7071  0.4960  0.0601
   51CHL1  H27C 3774   6.530   6.599   8.155 -0.5038  0.2414 -1.4064
   52CHL1    C3 3775   0.621   1.282   6.915 -0.1663  0.1526  0.6277
   52CHL1    H3 3776   0.530   1.227   6.945 -0.1807  0.6012  1.4248
   52CHL1    O3 3777   0.602   1.300   6.779 -0.5105 -0.5133 -0.1500
   52CHL1   H3' 3778   0.690   1.300   6.740 -1.1477  1.6105 -1.6768
   52CHL1    C4 3779   0.636   1.414   6.982  0.5313 -0.3011  0.6398
   52CHL1   H4A 3780   0.724   1.472   6.946 -0.7014  0.0122 -2.0526
   52CHL1   H4B 3781   0.558   1.484   6.945  1.9244  0.7962 -0.2923
   52CHL1    C5 3782   0.634   1.387   7.135 -0.3052 -0.8495  0.1808
   52CHL1    C6 3783   0.541   1.444   7.216  0.3783 -0.0720 -0.0063
   52CHL1    H6 3784   0.463   1.506   7.169 -0.6864 -1.2209  0.2071
   52CHL1    C7 3785   0.539   1.421   7.366 -0.9109  0.8181  0.2132
   52CHL1   H7A 3786   0.535   1.519   7.418  3.0616  0.6644  0.9480
   52CHL1   H7B 3787   0.446   1.377   7.407 -0.1123 -0.4422  0.7038
   52CHL1    C8 3788   0.664   1.344   7.423  0.6126 -1.1834 -0.9768
   52CHL1    H8 3789   0.735   1.428   7.432 -0.8486  0.1109 -1.2770
   52CHL1   C14 3790   0.636   1.280   7.567  0.5441 -0.2400 -0.3272
   52CHL1   H14 3791   0.568   1.194   7.555  0.0565  0.2761 -1.3367
   52CHL1   C15 3792   0.575   1.361   7.681  0.0904  0.4442 -0.4963
   52CHL1  H15A 3793   0.629   1.458   7.686  2.1881 -0.7078 -0.3275
   52CHL1  H15B 3794   0.467   1.386   7.675 -0.0033  0.2629  0.3230
   52CHL1   C16 3795   0.608   1.284   7.811 -1.0586 -0.4847  0.0163
   52CHL1  H16A 3796   0.664   1.341   7.888  1.2066  2.2413 -3.5183
   52CHL1  H16B 3797   0.518   1.243   7.862 -1.3436 -0.5442 -0.5343
   52CHL1   C17 3798   0.697   1.170   7.770 -0.1783  0.5306  0.0333
   52CHL1   H17 3799   0.634   1.080   7.752 -0.4151  0.3725  1.6313
   52CHL1   C13 3800   0.757   1.205   7.631  0.1146 -0.1238  0.1099
   52CHL1   C18 3801   0.874   1.302   7.667 -0.5254  0.5505 -0.4503
   52CHL1  H18A 3802   0.837   1.374   7.744  2.2605  1.4735  0.0544
   52CHL1  H18B 3803   0.966   1.257   7.709 -1.6425 -1.5132 -0.1469
   52CHL1  H18C 3804   0.904   1.367   7.582  0.3692  0.5502 -0.1342
   52CHL1   C12 3805   0.799   1.094   7.537  0.2978  0.0752 -0.1908
   52CHL1  H12A 3806   0.894   1.053   7.578  0.5070  0.9844  0.2504
   52CHL1  H12B 3807   0.719   1.019   7.517 -1.4064  1.3701  1.6256
   52CHL1   C11 3808   0.819   1.146   7.391 -0.2326  0.2599  0.3031
   52CHL1  H11A 3809   0.913   1.205   7.389  0.0622 -0.1867  0.6741
   52CHL1  H11B 3810   0.844   1.068   7.316  0.6045  1.5032 -0.7285
   52CHL1    C9 3811   0.707   1.235   7.333 -0.3343 -0.0242 -0.1376
   52CHL1    H9 3812   0.619   1.168   7.323 -0.0695 -0.6734  1.7026
   52CHL1   C10 3813   0.736   1.285   7.183 -0.7154 -0.0774  0.1044
   52CHL1   C19 3814   0.875   1.356   7.180 -0.3047  0.0495 -0.7276
   52CHL1  H19A 3815   0.906   1.389   7.078 -2.4935  0.4531 -1.2896
   52CHL1  H19B 3816   0.864   1.456   7.228 -0.0510 -0.2035 -0.1363
   52CHL1  H19C 3817   0.956   1.296   7.228 -0.9585  1.7880  2.7067
   52CHL1    C1 3818   0.734   1.155   7.094  0.2563  0.8454  0.4177
   52CHL1   H1A 3819   0.822   1.090   7.115 -0.1772 -0.0197 -0.4152
   52CHL1   H1B 3820   0.648   1.087   7.113  1.4656 -0.9927 -0.5309
   52CHL1    C2 3821   0.740   1.191   6.940  0.0119 -0.2954  0.3691
   52CHL1   H2A 3822   0.725   1.100   6.877 -0.0440 -0.6848  0.9361
   52CHL1   H2B 3823   0.832   1.245   6.911  0.9287 -1.9243  0.1492
   52CHL1   C20 3824   0.788   1.124   7.882  0.0513  0.1626 -0.0786
   52CHL1   H20 3825   0.863   1.199   7.914  1.2902 -1.8147  1.8262
   52CHL1   C21 3826   0.873   1.006   7.843  0.7126  0.2753  0.3317
   52CHL1  H21A 3827   0.953   1.037   7.772  1.2317  0.8978  1.1788
   52CHL1  H21B 3828   0.804   0.935   7.794  2.0539 -1.4773  0.9385
   52CHL1  H21C 3829   0.926   0.947   7.921 -1.6437 -0.7985  1.1608
   52CHL1   C22 3830   0.709   1.093   8.018 -0.2567  0.7742 -0.0581
   52CHL1  H22A 3831   0.687   1.189   8.068  0.1759  0.8722 -0.0577
   52CHL1  H22B 3832   0.619   1.034   7.988  0.1228 -0.0524  0.4128
   52CHL1   C23 3833   0.792   1.003   8.121 -0.3871 -0.1427 -0.1361
   52CHL1  H23A 3834   0.791   0.898   8.085  0.9542  0.0696 -0.8202
   52CHL1  H23B 3835   0.897   1.035   8.109 -0.3471 -1.1111 -2.9744
   52CHL1   C24 3836   0.742   1.008   8.266 -0.0077  0.2867 -0.0931
   52CHL1  H24A 3837   0.738   1.113   8.301 -0.0633  0.1285  0.3672
   52CHL1  H24B 3838   0.644   0.957   8.268 -0.6282  1.4341 -0.5924
   52CHL1   C25 3839   0.831   0.929   8.356  0.7984  0.4557  0.7854
   52CHL1   H25 3840   0.936   0.956   8.332  0.7313  0.6753  0.7388
   52CHL1   C26 3841   0.805   0.955   8.504  0.9187 -0.3076  0.1893
   52CHL1  H26A 3842   0.720   0.893   8.540  0.4605 -0.1893 -0.6916
   52CHL1  H26B 3843   0.890   0.904   8.556  1.2231 -0.7486 -0.7249
   52CHL1  H26C 3844   0.808   1.064   8.526 -0.8521 -0.1168 -0.4496
   52CHL1   C27 3845   0.828   0.779   8.324  0.3168 -0.1125  0.1948
   52CHL1  H27A 3846   0.812   0.767   8.214 -0.2668 -4.3926  0.6637
   52CHL1  H27B 3847   0.924   0.732   8.353  0.1052  0.7717  2.3997
   52CHL1  H27C 3848   0.745   0.726   8.377 -0.1765 -0.4861 -0.9315
   53CHL1    C3 3849   3.687   4.579   7.164  0.0761 -0.3893 -0.1048
   53CHL1    H3 3850   3.792   4.615   7.158 -0.1076  0.0458 -0.8105
   53CHL1    O3 3851   3.660   4.553   7.026 -0.0930  0.2527  0.6665
   53CHL1   H3' 3852   3.594   4.617   6.998  0.1842 -0.8588 -2.8656
   53CHL1    C4 3853   3.667   4.450   7.246  0.2566  0.4671  0.0442
   53CHL1   H4A 3854   3.563   4.414   7.235  0.3027  0.9613 -2.2341
   53CHL1   H4B 3855   3.741   4.370   7.221  0.2826 -0.2824  2.3952
   53CHL1    C5 3856   3.691   4.481   7.390 -0.3170 -0.3695  0.0664
   53CHL1    C6 3857   3.796   4.430   7.459  0.1567 -0.1233  0.0148
   53CHL1    H6 3858   3.850   4.349   7.408 -0.3528  0.2025 -1.0787
   53CHL1    C7 3859   3.808   4.445   7.608  0.1045  0.8192  1.0665
   53CHL1   H7A 3860   3.827   4.350   7.663 -2.1006  1.7513  3.5312
   53CHL1   H7B 3861   3.892   4.511   7.638  1.2426  0.1079 -0.4528
   53CHL1    C8 3862   3.675   4.500   7.670  0.7027 -0.4931  0.0054
   53CHL1    H8 3863   3.591   4.428   7.670 -0.5540  0.9415 -0.1333
   53CHL1   C14 3864   3.703   4.553   7.811  0.1894  0.3316  0.3924
   53CHL1   H14 3865   3.764   4.646   7.809  0.1829  0.4293  2.6281
   53CHL1   C15 3866   3.783   4.460   7.904  0.5411 -0.2721  0.2844
   53CHL1  H15A 3867   3.748   4.356   7.890  0.0538 -0.1282  0.4196
   53CHL1  H15B 3868   3.893   4.466   7.886  0.1289 -0.8037 -2.5588
   53CHL1   C16 3869   3.747   4.503   8.052 -0.5995  0.6529 -0.0311
   53CHL1  H16A 3870   3.692   4.416   8.096 -2.5456  2.0447  0.3624
   53CHL1  H16B 3871   3.843   4.521   8.105  1.6858  1.4050 -4.2209
   53CHL1   C17 3872   3.648   4.617   8.035 -0.7117 -0.0893 -0.0557
   53CHL1   H17 3873   3.696   4.716   8.018  1.6150 -0.5760  3.2400
   53CHL1   C13 3874   3.581   4.598   7.891 -0.4305 -0.3966  0.0777
   53CHL1   C18 3875   3.470   4.488   7.881  0.7575  0.5972 -0.2317
   53CHL1  H18A 3876   3.520   4.389   7.890  2.1002  1.3241  0.4864
   53CHL1  H18B 3877   3.400   4.484   7.968  0.5544 -2.2960 -0.4637
   53CHL1  H18C 3878   3.415   4.494   7.785  1.3527  0.2349 -0.5965
   53CHL1   C12 3879   3.535   4.729   7.819  0.2625  0.1320  0.0638
   53CHL1  H12A 3880   3.441   4.775   7.858  1.7823  4.9741 -1.6149
   53CHL1  H12B 3881   3.617   4.803   7.831  0.3712 -0.2397  1.6463
   53CHL1   C11 3882   3.510   4.711   7.665 -0.1561 -0.1392 -0.4090
   53CHL1  H11A 3883   3.416   4.652   7.652  0.5431 -1.1799 -0.8821
   53CHL1  H11B 3884   3.496   4.810   7.617 -0.7893 -0.3289 -0.6164
   53CHL1    C9 3885   3.622   4.625   7.592 -0.0165  0.5355  0.6273
   53CHL1    H9 3886   3.711   4.692   7.590  0.6294 -0.3139 -2.4689
   53CHL1   C10 3887   3.591   4.588   7.443 -0.3761 -0.5629 -0.0581
   53CHL1   C19 3888   3.441   4.536   7.439 -0.1535  0.4746 -0.7641
   53CHL1  H19A 3889   3.418   4.473   7.350 -1.6996 -0.3109  0.1625
   53CHL1  H19B 3890   3.422   4.456   7.514 -1.2035  0.0854 -1.4261
   53CHL1  H19C 3891   3.371   4.622   7.452  0.8375  0.9973  1.2486
   53CHL1    C1 3892   3.597   4.720   7.355  0.3208 -0.1820 -0.2357
   53CHL1   H1A 3893   3.517   4.787   7.392  1.0596  0.8270 -0.4336
   53CHL1   H1B 3894   3.689   4.779   7.379 -0.5985  1.7767 -1.3584
   53CHL1    C2 3895   3.584   4.692   7.206  0.1981  0.7498  0.2068
   53CHL1   H2A 3896   3.593   4.783   7.143 -0.0482 -0.2950 -1.3642
   53CHL1   H2B 3897   3.483   4.648   7.189  0.5394 -0.2621  0.7553
   53CHL1   C20 3898   3.561   4.633   8.164  0.6219  0.7477  0.1506
   53CHL1   H20 3899   3.516   4.533   8.181 -0.8013  1.3616  0.0281
   53CHL1   C21 3900   3.452   4.737   8.141 -0.0294 -0.4638  0.3074
   53CHL1  H21A 3901   3.375   4.755   8.220 -0.7834  1.6426 -0.8823
   53CHL1  H21B 3902   3.393   4.706   8.052 -1.2626  0.4812  0.7813
   53CHL1  H21C 3903   3.507   4.831   8.123  0.2478 -0.4293  1.2814
   53CHL1   C22 3904   3.648   4.671   8.286  0.8726 -0.4229  0.3634
   53CHL1  H22A 3905   3.735   4.603   8.288  0.1836 -1.2936  0.9799
   53CHL1  H22B 3906   3.683   4.776   8.282 -0.9851  0.1983 -0.3032
   53CHL1   C23 3907   3.592   4.640   8.421 -0.3323  0.8434  0.0090
   53CHL1  H23A 3908   3.517   4.722   8.429 -2.5632 -1.3126  2.2122
   53CHL1  H23B 3909   3.536   4.545   8.408  1.5744 -0.0419 -2.1880
   53CHL1   C24 3910   3.688   4.636   8.540 -0.1033  0.2590  0.2212
   53CHL1  H24A 3911   3.772   4.567   8.515  0.6054 -0.2043  3.5982
   53CHL1  H24B 3912   3.744   4.732   8.538 -1.1768  0.9007  0.9318
   53CHL1   C25 3913   3.623   4.595   8.672 -0.1155 -0.3258  0.0192
   53CHL1   H25 3914   3.595   4.488   8.663  2.3429 -0.9892 -0.0356
   53CHL1   C26 3915   3.718   4.611   8.786 -0.2822  0.2801 -1.3558
   53CHL1  H26A 3916   3.667   4.614   8.885  1.2128  0.8868 -0.5775
   53CHL1  H26B 3917   3.799   4.536   8.785  0.3367  0.9066  0.0200
   53CHL1  H26C 3918   3.770   4.709   8.775  1.4289 -0.3903  0.3812
   53CHL1   C27 3919   3.488   4.676   8.698 -0.6892 -0.7079 -0.0137
   53CHL1  H27A 3920   3.409   4.658   8.622  0.3992  2.1874 -1.9280
   53CHL1  H27B 3921   3.457   4.635   8.796  0.6274 -0.6302  0.4433
   53CHL1  H27C 3922   3.503   4.785   8.715  3.5751 -0.7571 -2.7550
   54CHL1    C3 3923   4.306   5.983   6.947  0.5722  0.5313  0.1741
   54CHL1    H3 3924   4.271   6.078   6.994  0.0115  0.8556 -0.8971
   54CHL1    O3 3925   4.304   5.975   6.803 -0.1969 -0.6133  0.0042
   54CHL1   H3' 3926   4.334   5.889   6.773 -0.1631  0.0767 -1.9741
   54CHL1    C4 3927   4.450   5.968   6.983  0.2810  0.5666  0.1507
   54CHL1   H4A 3928   4.488   5.875   6.935  1.2350  1.5592 -1.0386
   54CHL1   H4B 3929   4.501   6.055   6.937  0.1671  1.1075  1.0383
   54CHL1    C5 3930   4.477   5.955   7.132 -0.5884  0.1050  0.2873
   54CHL1    C6 3931   4.568   6.022   7.199 -1.2621  0.1589  0.4641
   54CHL1    H6 3932   4.615   6.104   7.143 -0.0155  0.9884  2.6369
   54CHL1    C7 3933   4.596   6.004   7.343 -0.4653 -0.1508  0.1711
   54CHL1   H7A 3934   4.704   6.020   7.364 -0.3345 -1.4828  0.5879
   54CHL1   H7B 3935   4.529   6.075   7.396 -0.5485 -1.4564  1.8743
   54CHL1    C8 3936   4.556   5.871   7.403  0.3245  0.0995 -0.7147
   54CHL1    H8 3937   4.638   5.805   7.368  1.2178  0.2334  1.0916
   54CHL1   C14 3938   4.551   5.881   7.556 -0.6573 -0.5845 -0.2278
   54CHL1   H14 3939   4.471   5.955   7.579  0.2904  0.9413 -1.6994
   54CHL1   C15 3940   4.671   5.932   7.630  0.6239  0.1287 -0.2908
   54CHL1  H15A 3941   4.758   5.884   7.580  0.9188  0.4663 -0.1128
   54CHL1  H15B 3942   4.686   6.041   7.645 -0.1786 -0.0012  1.6176
   54CHL1   C16 3943   4.653   5.879   7.771  0.6272 -0.1515 -0.3585
   54CHL1  H16A 3944   4.749   5.841   7.810  2.0166  3.4464 -0.0381
   54CHL1  H16B 3945   4.642   5.973   7.830  2.2822 -0.1590 -0.0114
   54CHL1   C17 3946   4.533   5.784   7.776 -0.2638  0.8160  0.0557
   54CHL1   H17 3947   4.449   5.847   7.810 -0.4581 -0.3666  1.7829
   54CHL1   C13 3948   4.503   5.750   7.623 -0.2364 -0.0535 -0.2864
   54CHL1   C18 3949   4.595   5.634   7.571 -0.1426 -0.0128  0.0744
   54CHL1  H18A 3950   4.697   5.634   7.616 -0.5420  0.3219  0.9884
   54CHL1  H18B 3951   4.560   5.538   7.613  1.2119 -0.9805 -0.9483
   54CHL1  H18C 3952   4.610   5.626   7.461 -0.4684 -0.0426  0.0313
   54CHL1   C12 3953   4.356   5.731   7.576  1.4222  0.9350  0.7234
   54CHL1  H12A 3954   4.313   5.639   7.620  0.6246  1.8912  1.9756
   54CHL1  H12B 3955   4.291   5.812   7.615 -0.4367 -0.9824  1.6960
   54CHL1   C11 3956   4.350   5.719   7.427  0.2213  0.2462  0.5725
   54CHL1  H11A 3957   4.391   5.621   7.396 -3.4203 -0.7983 -1.2426
   54CHL1  H11B 3958   4.242   5.711   7.399  0.2386  2.0564 -0.1020
   54CHL1    C9 3959   4.411   5.836   7.350 -0.2872 -0.2101 -0.0536
   54CHL1    H9 3960   4.349   5.923   7.378 -0.3280 -0.1087 -0.4492
   54CHL1   C10 3961   4.402   5.840   7.194  0.8228  0.7255  0.3682
   54CHL1   C19 3962   4.452   5.704   7.132  0.3357  0.0710 -0.1034
   54CHL1  H19A 3963   4.433   5.691   7.024  0.7541  0.0974 -0.1776
   54CHL1  H19B 3964   4.560   5.703   7.157  0.1801  3.5184  0.9838
   54CHL1  H19C 3965   4.396   5.620   7.178  1.3390 -1.4908 -1.7016
   54CHL1    C1 3966   4.256   5.859   7.154  0.1235  0.1100  0.1062
   54CHL1   H1A 3967   4.204   5.766   7.186 -1.1533  1.4403  2.0574
   54CHL1   H1B 3968   4.203   5.946   7.200 -1.1160 -0.0206 -1.0607
   54CHL1    C2 3969   4.233   5.864   7.000  0.0156 -0.3370 -0.4377
   54CHL1   H2A 3970   4.124   5.870   6.978  0.3033 -1.8385 -2.3525
   54CHL1   H2B 3971   4.263   5.767   6.957  1.6859  0.1409 -0.3592
   54CHL1   C20 3972   4.539   5.676   7.875 -0.2988  0.0098 -0.3090
   54CHL1   H20 3973   4.624   5.606   7.860  0.1478  0.7094 -1.0841
   54CHL1   C21 3974   4.407   5.598   7.866  0.4377  0.5186 -0.1879
   54CHL1  H21A 3975   4.396   5.536   7.774 -2.7734  2.3162 -1.1159
   54CHL1  H21B 3976   4.322   5.669   7.859  0.5746  0.5426 -1.7874
   54CHL1  H21C 3977   4.381   5.535   7.953  1.3711  0.6776  0.2087
   54CHL1   C22 3978   4.551   5.729   8.021 -0.4123  0.7254  0.4634
   54CHL1  H22A 3979   4.520   5.835   8.021 -0.4897  0.7026  1.0630
   54CHL1  H22B 3980   4.483   5.673   8.088  0.0446 -0.3349  0.0670
   54CHL1   C23 3981   4.692   5.707   8.077  0.7986 -0.0711  0.6608
   54CHL1  H23A 3982   4.711   5.597   8.074 -3.4082 -0.8432  0.1069
   54CHL1  H23B 3983   4.768   5.743   8.004  1.7071 -0.6710  1.2906
   54CHL1   C24 3984   4.703   5.754   8.221  0.3498 -0.0323 -0.6795
   54CHL1  H24A 3985   4.681   5.863   8.233  1.2222 -0.0184  0.9288
   54CHL1  H24B 3986   4.622   5.695   8.270  1.5425 -0.1770  1.1676
   54CHL1   C25 3987   4.838   5.738   8.298  0.9455 -0.2659  0.5280
   54CHL1   H25 3988   4.916   5.793   8.241 -0.5359  1.1582 -0.1318
   54CHL1   C26 3989   4.810   5.799   8.431  0.4001 -0.1833  0.0829
   54CHL1  H26A 3990   4.902   5.812   8.491  0.7710 -0.1984 -0.4833
   54CHL1  H26B 3991   4.755   5.895   8.419  0.6259  0.3022  2.6856
   54CHL1  H26C 3992   4.742   5.739   8.496  1.1357  1.4925  2.4356
   54CHL1   C27 3993   4.886   5.595   8.317  0.1069  0.5100 -0.3028
   54CHL1  H27A 3994   4.827   5.557   8.403 -1.0905  1.2912 -0.7717
   54CHL1  H27B 3995   4.883   5.537   8.223  1.2585 -1.6781  0.9485
   54CHL1  H27C 3996   4.994   5.593   8.344 -0.1111 -0.3886  0.5852
   55CHL1    C3 3997   4.360   0.798   6.872 -0.6900 -0.5319  0.3907
   55CHL1    H3 3998   4.466   0.768   6.881 -0.9842 -1.4431  0.8754
   55CHL1    O3 3999   4.348   0.857   6.744  0.3478  0.4573 -0.2780
   55CHL1   H3' 4000   4.364   0.950   6.762  0.6074  0.2564  0.5806
   55CHL1    C4 4001   4.261   0.680   6.888 -0.5892  0.3674 -0.1163
   55CHL1   H4A 4002   4.158   0.704   6.853 -0.3589 -0.3900 -1.3617
   55CHL1   H4B 4003   4.286   0.602   6.814  0.1789  0.0469  0.4790
   55CHL1    C5 4004   4.242   0.628   7.026 -0.0907 -0.8172  0.4062
   55CHL1    C6 4005   4.250   0.496   7.053  0.2461 -0.2066 -0.2453
   55CHL1    H6 4006   4.264   0.421   6.974 -2.0822  0.0162 -0.9102
   55CHL1    C7 4007   4.237   0.440   7.190 -0.1910 -0.1343  0.5751
   55CHL1   H7A 4008   4.180   0.345   7.196  0.2761 -0.3635  1.5849
   55CHL1   H7B 4009   4.341   0.419   7.223  0.5803  0.0233 -1.6282
   55CHL1    C8 4010   4.170   0.536   7.287  0.5423 -0.3436 -0.2328
   55CHL1    H8 4011   4.063   0.530   7.258  1.0400 -1.1520 -1.9899
   55CHL1   C14 4012   4.189   0.490   7.431  0.2638  1.2389  0.1138
   55CHL1   H14 4013   4.299   0.482   7.445  0.1901  0.5147  0.3050
   55CHL1   C15 4014   4.142   0.346   7.461  0.7900  0.0701  0.7664
   55CHL1  H15A 4015   4.041   0.322   7.422  1.2174 -2.9433  1.3694
   55CHL1  H15B 4016   4.214   0.271   7.421 -0.6396 -0.3611 -1.1008
   55CHL1   C16 4017   4.158   0.340   7.615 -0.1148 -0.8935 -0.6386
   55CHL1  H16A 4018   4.066   0.298   7.661  1.1155 -0.3445  2.4706
   55CHL1  H16B 4019   4.240   0.273   7.648  1.2263  1.0722  0.1464
   55CHL1   C17 4020   4.183   0.493   7.666 -0.5069  0.0242 -0.5724
   55CHL1   H17 4021   4.292   0.504   7.683 -0.5331 -1.1661  0.4687
   55CHL1   C13 4022   4.136   0.580   7.542  0.6310  0.1048 -0.8445
   55CHL1   C18 4023   3.982   0.597   7.542  0.7550  0.0103  0.5653
   55CHL1  H18A 4024   3.957   0.672   7.620 -1.2250  0.9058 -0.9133
   55CHL1  H18B 4025   3.948   0.645   7.448 -0.3301 -1.6257  0.1026
   55CHL1  H18C 4026   3.941   0.495   7.557  0.6950 -0.1195 -0.4362
   55CHL1   C12 4027   4.204   0.714   7.532 -0.2300  0.0851 -0.2119
   55CHL1  H12A 4028   4.166   0.796   7.598 -0.3345 -0.1434  0.0102
   55CHL1  H12B 4029   4.313   0.699   7.548 -0.0074  2.6084  0.9791
   55CHL1   C11 4030   4.188   0.774   7.392  0.1902  0.5964  0.3733
   55CHL1  H11A 4031   4.085   0.813   7.379 -1.0313 -3.1766 -1.8867
   55CHL1  H11B 4032   4.254   0.864   7.386  0.2833  0.5022 -0.0337
   55CHL1    C9 4033   4.226   0.676   7.277 -0.2914  0.2207 -0.2766
   55CHL1    H9 4034   4.336   0.667   7.294  0.0239  2.1157 -1.2351
   55CHL1   C10 4035   4.217   0.741   7.135 -0.0529  0.0817  0.1218
   55CHL1   C19 4036   4.077   0.812   7.123  0.0199 -0.3980 -0.2236
   55CHL1  H19A 4037   4.058   0.843   7.018 -2.0614  3.6366  1.2487
   55CHL1  H19B 4038   3.992   0.749   7.154 -0.2300 -0.0313 -0.1626
   55CHL1  H19C 4039   4.077   0.909   7.178  1.3305 -0.8756  0.6424
   55CHL1    C1 4040   4.325   0.852   7.115  0.3787 -0.0762 -0.0511
   55CHL1   H1A 4041   4.306   0.931   7.190  0.7588 -0.7707  0.7903
   55CHL1   H1B 4042   4.428   0.818   7.137  2.2831  3.2688 -3.1823
   55CHL1    C2 4043   4.333   0.916   6.970 -0.3862  0.1393 -0.4093
   55CHL1   H2A 4044   4.421   0.985   6.972 -0.1321 -0.1936 -0.1714
   55CHL1   H2B 4045   4.243   0.979   6.952 -0.9745 -0.5689  0.0259
   55CHL1   C20 4046   4.138   0.518   7.804  0.2512 -0.0785 -0.4638
   55CHL1   H20 4047   4.028   0.533   7.804  0.3110  0.4104  1.1512
   55CHL1   C21 4048   4.195   0.656   7.855 -0.4253 -0.9307 -0.1380
   55CHL1  H21A 4049   4.175   0.681   7.962  0.8108 -1.6104  0.2550
   55CHL1  H21B 4050   4.157   0.746   7.802 -1.5402 -1.4310 -0.2130
   55CHL1  H21C 4051   4.305   0.648   7.843 -0.6438 -3.3158 -0.6420
   55CHL1   C22 4052   4.189   0.413   7.905  1.1382 -0.4578  0.4526
   55CHL1  H22A 4053   4.172   0.313   7.860  1.2513  0.6973 -2.2497
   55CHL1  H22B 4054   4.299   0.425   7.916  1.1180  0.3356 -0.1369
   55CHL1   C23 4055   4.117   0.417   8.035 -0.5917 -0.2282 -0.0376
   55CHL1  H23A 4056   4.149   0.513   8.080  2.6529 -2.7911  3.4754
   55CHL1  H23B 4057   4.012   0.405   8.001 -1.3969  2.4944  1.4134
   55CHL1   C24 4058   4.149   0.301   8.133 -0.2711  0.4549  0.2326
   55CHL1  H24A 4059   4.112   0.203   8.094 -2.3792  0.7445  1.4630
   55CHL1  H24B 4060   4.259   0.293   8.143 -0.0224  0.8893 -1.8184
   55CHL1   C25 4061   4.085   0.325   8.274  0.6283 -0.6950 -0.3992
   55CHL1   H25 4062   3.987   0.375   8.254  0.4333  0.1868  2.5496
   55CHL1   C26 4063   4.052   0.192   8.342 -0.1179  0.2096 -0.5649
   55CHL1  H26A 4064   3.977   0.145   8.274 -0.0585  1.9146 -1.8635
   55CHL1  H26B 4065   4.148   0.138   8.342 -0.5863 -0.7292 -3.1801
   55CHL1  H26C 4066   4.014   0.195   8.446 -1.9088  0.9225 -1.2167
   55CHL1   C27 4067   4.159   0.420   8.366  0.0256  0.0799  0.0896
   55CHL1  H27A 4068   4.155   0.521   8.321 -2.2489 -0.7348 -1.6287
   55CHL1  H27B 4069   4.115   0.423   8.468 -0.8039  1.7449 -0.3062
   55CHL1  H27C 4070   4.268   0.398   8.371  0.4478  1.9259 -0.6434
   56CHL1    C3 4071   3.362   5.536   6.854 -0.5927  0.2309 -0.4519
   56CHL1    H3 4072   3.280   5.462   6.869 -0.7910  0.7069  0.9079
   56CHL1    O3 4073   3.379   5.524   6.715  0.6176 -0.5055  0.6326
   56CHL1   H3' 4074   3.304   5.579   6.690 -0.3059 -2.0262 -0.0091
   56CHL1    C4 4075   3.298   5.671   6.881  0.1104  0.5074 -0.2931
   56CHL1   H4A 4076   3.368   5.748   6.842  2.3069 -0.6813  1.2263
   56CHL1   H4B 4077   3.205   5.684   6.821 -0.1993 -1.0572 -0.1777
   56CHL1    C5 4078   3.271   5.702   7.029  0.0509  0.9188  0.2632
   56CHL1    C6 4079   3.150   5.738   7.073 -0.4953 -0.0071  0.3576
   56CHL1    H6 4080   3.068   5.743   7.000  0.1850 -0.4761 -0.4508
   56CHL1    C7 4081   3.121   5.766   7.215  0.6334 -0.1840 -0.9898
   56CHL1   H7A 4082   3.054   5.854   7.231  0.6147 -0.4159  0.3262
   56CHL1   H7B 4083   3.076   5.678   7.265 -0.0075 -0.6881 -2.4249
   56CHL1    C8 4084   3.250   5.792   7.291 -0.6585 -0.6767  0.2576
   56CHL1    H8 4085   3.283   5.892   7.253 -1.6670  0.4452  2.2459
   56CHL1   C14 4086   3.218   5.800   7.443  0.5093  0.4484  0.5538
   56CHL1   H14 4087   3.182   5.700   7.474 -1.1305  1.5504  2.2948
   56CHL1   C15 4088   3.098   5.893   7.480  0.5105 -0.0673  0.1612
   56CHL1  H15A 4089   3.117   5.994   7.438 -1.5406  0.7638  1.1809
   56CHL1  H15B 4090   2.997   5.857   7.454 -0.3269  3.1840 -1.3984
   56CHL1   C16 4091   3.110   5.881   7.631  0.1088 -0.2448  0.0184
   56CHL1  H16A 4092   3.101   5.986   7.669  0.5468 -0.2891  0.2453
   56CHL1  H16B 4093   3.035   5.808   7.668  1.1683 -1.1929  0.3045
   56CHL1   C17 4094   3.245   5.814   7.665  0.0323  0.0132 -0.7746
   56CHL1   H17 4095   3.216   5.709   7.688  0.0577 -0.5293 -3.1067
   56CHL1   C13 4096   3.335   5.820   7.543  0.1419  0.0118 -0.2264
   56CHL1   C18 4097   3.401   5.953   7.519  0.2730 -0.5030 -0.0926
   56CHL1  H18A 4098   3.463   5.956   7.426 -0.8063  0.8199 -0.7786
   56CHL1  H18B 4099   3.323   6.032   7.517 -1.3778 -2.0399  2.0130
   56CHL1  H18C 4100   3.474   5.972   7.601  2.7344 -1.5485 -1.9724
   56CHL1   C12 4101   3.436   5.703   7.519 -0.9532  0.0646 -0.3740
   56CHL1  H12A 4102   3.524   5.718   7.586 -2.7717  1.6601  1.7516
   56CHL1  H12B 4103   3.389   5.607   7.549 -1.0578  0.1740 -0.1895
   56CHL1   C11 4104   3.476   5.697   7.372 -0.1050 -0.7840 -0.6861
   56CHL1  H11A 4105   3.540   5.785   7.351 -1.4646  0.6049  0.9312
   56CHL1  H11B 4106   3.544   5.609   7.364  0.9138  0.0133 -1.0573
   56CHL1    C9 4107   3.354   5.687   7.266 -0.7882  0.3729  0.0965
   56CHL1    H9 4108   3.300   5.591   7.278 -0.3541 -0.1097 -1.6546
   56CHL1   C10 4109   3.395   5.683   7.112  0.2929  0.4510  0.2427
   56CHL1   C19 4110   3.496   5.795   7.083  0.3398 -0.6618 -0.3543
   56CHL1  H19A 4111   3.457   5.884   7.139 -0.4901 -0.8645 -0.6018
   56CHL1  H19B 4112   3.592   5.761   7.127 -0.6058  0.8739  3.0540
   56CHL1  H19C 4113   3.515   5.836   6.981  1.1650 -0.0338  0.0460
   56CHL1    C1 4114   3.460   5.540   7.078 -0.1477 -0.1741  0.8445
   56CHL1   H1A 4115   3.559   5.535   7.129 -0.0191  0.2698  0.6388
   56CHL1   H1B 4116   3.398   5.461   7.125  1.0088 -0.9085  1.1612
   56CHL1    C2 4117   3.490   5.512   6.930  0.2471  0.3950  0.9335
   56CHL1   H2A 4118   3.529   5.409   6.916 -1.6903 -0.2913  0.3719
   56CHL1   H2B 4119   3.555   5.589   6.882 -1.9664  1.3688 -0.5665
   56CHL1   C20 4120   3.305   5.873   7.793  0.1895 -0.0419 -0.4411
   56CHL1   H20 4121   3.331   5.979   7.777  0.7821 -0.2364 -0.7799
   56CHL1   C21 4122   3.442   5.802   7.814 -0.1745  0.2879 -0.0193
   56CHL1  H21A 4123   3.490   5.835   7.909 -1.1509  1.5944  0.0448
   56CHL1  H21B 4124   3.519   5.831   7.740  4.0595  0.4193  4.2410
   56CHL1  H21C 4125   3.439   5.692   7.822  3.1598  0.1286 -0.6489
   56CHL1   C22 4126   3.214   5.863   7.923 -0.4559  0.2079  0.0582
   56CHL1  H22A 4127   3.109   5.890   7.896 -0.4352  0.0802 -0.1547
   56CHL1  H22B 4128   3.229   5.758   7.957 -1.6367  0.6874  2.1476
   56CHL1   C23 4129   3.269   5.955   8.037 -0.0444  0.3863  0.3987
   56CHL1  H23A 4130   3.378   5.938   8.046 -0.1764 -1.7023 -1.4143
   56CHL1  H23B 4131   3.269   6.061   8.004  1.2660  0.1515 -0.3879
   56CHL1   C24 4132   3.185   5.956   8.170  0.0346  0.0466 -0.0598
   56CHL1  H24A 4133   3.076   5.962   8.148  0.3844 -2.0050 -2.5981
   56CHL1  H24B 4134   3.206   5.865   8.229  1.6202  2.4100  3.1497
   56CHL1   C25 4135   3.211   6.067   8.262  0.2185 -0.5079 -0.5281
   56CHL1   H25 4136   3.173   6.160   8.215 -0.6674 -0.6608 -0.1324
   56CHL1   C26 4137   3.134   6.064   8.391  0.6376  0.2674 -0.1296
   56CHL1  H26A 4138   3.145   6.162   8.442  3.2412  2.0958 -3.9944
   56CHL1  H26B 4139   3.163   5.972   8.447 -1.1285  0.6645  1.5151
   56CHL1  H26C 4140   3.025   6.058   8.369  0.6772  0.8878 -0.4979
   56CHL1   C27 4141   3.368   6.097   8.287  0.5589  0.5103  0.5761
   56CHL1  H27A 4142   3.415   6.010   8.337  0.9302  0.6979  0.5543
   56CHL1  H27B 4143   3.425   6.108   8.192  0.5672  1.2200  0.6610
   56CHL1  H27C 4144   3.374   6.178   8.362  1.8644  2.0075 -1.0977
   57SAPC     N 4145   3.538   2.493  10.743 -0.2746 -0.3627  0.2293
   57SAPC   C12 4146   3.460   2.605  10.692  0.3692  0.1408 -0.0722
   57SAPC  H12A 4147   3.526   2.647  10.617  1.3323  0.5171  0.9647
   57SAPC  H12B 4148   3.441   2.682  10.765  0.8971  2.6075 -2.4629
   57SAPC   C13 4149   3.464   2.424  10.857 -0.4163 -0.0075  0.5612
   57SAPC  H13A 4150   3.362   2.399  10.834  0.1742 -1.3377 -0.7178
   57SAPC  H13B 4151   3.507   2.332  10.893 -2.9884 -0.2683  3.0789
   57SAPC  H13C 4152   3.462   2.494  10.939 -1.2124  1.6437 -0.8157
   57SAPC   C14 4153   3.561   2.398  10.635  0.2981 -0.2016  0.3746
   57SAPC  H14A 4154   3.603   2.457  10.556 -2.9543 -0.3559 -1.5688
   57SAPC  H14B 4155   3.626   2.317  10.665  0.9819  0.2997  0.2372
   57SAPC  H14C 4156   3.471   2.354  10.594  0.0858  1.7782 -1.3575
   57SAPC   C15 4157   3.674   2.536  10.793 -0.0013  0.1961 -0.6804
   57SAPC  H15A 4158   3.656   2.574  10.892 -0.1547 -0.3261 -0.5106
   57SAPC  H15B 4159   3.730   2.445  10.804 -0.2171  0.1191 -0.2029
   57SAPC  H15C 4160   3.719   2.614  10.734  3.0940  0.0625  1.4360
   57SAPC   C11 4161   3.316   2.583  10.631  0.0503 -0.9740  0.3497
   57SAPC  H11A 4162   3.320   2.518  10.541  0.4813  2.0533 -1.8952
   57SAPC  H11B 4163   3.289   2.682  10.588 -1.5295 -1.3843  0.3708
   57SAPC     P 4164   3.089   2.611  10.770  0.0024 -0.2738 -0.3510
   57SAPC   O13 4165   3.008   2.519  10.850 -0.1918  0.4399 -0.1856
   57SAPC   O14 4166   3.133   2.739  10.825  0.6183 -0.7882 -0.1402
   57SAPC   O12 4167   3.217   2.529  10.721 -0.0271  0.1784  0.0910
   57SAPC   O11 4168   2.993   2.644  10.646 -0.5723  0.4221 -0.3978
   57SAPC    C1 4169   2.895   2.745  10.661  0.0162 -0.7229  0.4655
   57SAPC    HA 4170   2.838   2.722  10.754 -1.3707  3.8497  0.8958
   57SAPC    HB 4171   2.947   2.843  10.667 -0.5191 -0.4059  0.0379
   57SAPC    C2 4172   2.797   2.767  10.541 -0.0112  0.0589  0.1212
   57SAPC    HS 4173   2.705   2.705  10.549  0.5528 -0.8767 -0.6370
   57SAPC   O21 4174   2.860   2.749  10.408 -0.2962  0.0237  0.5630
   57SAPC   C21 4175   2.882   2.620  10.377 -0.0137  0.5963  0.1017
   57SAPC   O22 4176   2.827   2.530  10.433 -0.2717  0.2192 -0.0278
   57SAPC   C22 4177   2.993   2.605  10.269 -0.0943  0.2666  0.1652
   57SAPC   H2R 4178   2.961   2.513  10.216 -0.8587  1.6711 -1.9038
   57SAPC   H2S 4179   2.968   2.683  10.193 -2.4216 -1.7308 -1.1888
   57SAPC    C3 4180   2.738   2.908  10.545  0.2336  0.8574 -0.1306
   57SAPC    HX 4181   2.814   2.987  10.531  1.1976 -0.1884 -0.8840
   57SAPC    HY 4182   2.690   2.932  10.642  0.5631 -0.1547  0.2816
   57SAPC   O31 4183   2.644   2.931  10.441 -0.1482  0.3042 -0.4171
   57SAPC   C31 4184   2.526   2.867  10.457  0.2845  1.1320 -0.5714
   57SAPC   O32 4185   2.492   2.795  10.551  0.1543  0.1239  1.1178
   57SAPC   C32 4186   2.429   2.899  10.337  0.1684 -0.0333 -0.3650
   57SAPC   H2X 4187   2.400   3.006  10.345 -1.8911 -0.5841 -0.1663
   57SAPC   H2Y 4188   2.340   2.839  10.368  0.3872  0.3232  0.9552
   57SAPC   C23 4189   3.136   2.586  10.323  0.2712  0.0925  0.4875
   57SAPC   H3R 4190   3.115   2.515  10.405  1.0912 -0.5031  0.1885
   57SAPC   H3S 4191   3.164   2.685  10.366  0.0305  0.0375  0.7674
   57SAPC   C24 4192   3.232   2.550  10.203  0.1280  0.0039 -0.7177
   57SAPC   H4R 4193   3.182   2.464  10.153  1.8043 -0.0001 -2.4130
   57SAPC   H4S 4194   3.328   2.514  10.245 -0.9405 -0.4317  1.4448
   57SAPC   C25 4195   3.238   2.655  10.106  0.5568 -0.2112  0.3707
   57SAPC   H5R 4196   3.281   2.753  10.132 -0.3987  0.3602 -0.1839
   57SAPC   C26 4197   3.194   2.643   9.982  0.6573  0.1731 -0.3932
   57SAPC   H6R 4198   3.207   2.732   9.918 -0.2845  0.3781 -0.3030
   57SAPC   C27 4199   3.125   2.528   9.913 -0.3451  0.4065  0.0420
   57SAPC   H7R 4200   3.155   2.431   9.960 -0.3314  0.3500 -0.0827
   57SAPC   H7S 4201   3.169   2.498   9.815  0.7122  3.1219 -0.3424
   57SAPC   C28 4202   2.976   2.543   9.904 -0.0575 -0.1577 -0.2765
   57SAPC   H8R 4203   2.933   2.605   9.984  3.0965 -0.0757  1.4356
   57SAPC   C29 4204   2.895   2.485   9.813  0.5181  0.1613 -0.2545
   57SAPC   H9R 4205   2.789   2.512   9.817  0.3108 -0.5961 -0.5617
   57SAPC  C210 4206   2.933   2.389   9.699  0.0171 -0.3111  0.4113
   57SAPC  H10R 4207   3.034   2.346   9.714 -0.3076 -0.0789  3.5618
   57SAPC  H10S 4208   2.940   2.439   9.600 -1.2798 -1.1391 -0.1235
   57SAPC  C211 4209   2.831   2.273   9.698 -0.7090 -0.4980 -0.6584
   57SAPC  H11R 4210   2.840   2.198   9.777  2.4107  1.4642  0.9286
   57SAPC  C212 4211   2.751   2.247   9.589 -0.0459 -0.3438  0.3306
   57SAPC  H12R 4212   2.685   2.159   9.602  1.5188 -1.3353  1.8543
   57SAPC  C213 4213   2.744   2.311   9.454  0.4380 -0.0657 -0.6960
   57SAPC  H13R 4214   2.803   2.247   9.386  4.6986  1.7626  1.0385
   57SAPC  H13S 4215   2.801   2.407   9.459  0.0716  0.2926 -2.9790
   57SAPC  C214 4216   2.606   2.336   9.403 -0.2001 -0.1108  0.2764
   57SAPC  H14R 4217   2.536   2.384   9.472  0.3898 -0.4876  1.1447
   57SAPC  C215 4218   2.566   2.335   9.275  0.1297 -0.0390  0.6851
   57SAPC  H15R 4219   2.463   2.351   9.239  0.7167 -0.0624 -1.0527
   57SAPC  C216 4220   2.648   2.301   9.153  0.2074 -0.3119 -0.1502
   57SAPC  H16R 4221   2.757   2.296   9.176  0.0803 -0.5661  0.4175
   57SAPC  H16S 4222   2.656   2.382   9.078  3.3177  0.7836  1.2676
   57SAPC  C217 4223   2.599   2.177   9.079 -0.2233 -0.3437  0.0848
   57SAPC  H17R 4224   2.489   2.187   9.066 -0.0709  1.4494  0.0050
   57SAPC  H17S 4225   2.613   2.084   9.139  0.8546 -0.9165 -1.0474
   57SAPC  C218 4226   2.683   2.150   8.952 -0.4405  0.2151 -0.4578
   57SAPC  H18R 4227   2.791   2.135   8.978 -0.3625 -0.0471 -0.9322
   57SAPC  H18S 4228   2.670   2.231   8.878  1.1302 -1.1902 -2.3214
   57SAPC  C219 4229   2.631   2.026   8.871  0.0544  0.5929  0.0977
   57SAPC  H19R 4230   2.521   2.041   8.872  0.1566  1.3002  1.0918
   57SAPC  H19S 4231   2.663   1.935   8.926  1.6519 -0.8324 -3.0372
   57SAPC  C220 4232   2.691   2.007   8.729 -0.2990 -0.3336 -0.0679
   57SAPC  H20R 4233   2.643   1.919   8.682  0.2779 -1.0500  0.6778
   57SAPC  H20S 4234   2.799   1.994   8.749 -0.3958  1.3660  1.7188
   57SAPC  H20T 4235   2.673   2.104   8.678  4.0176  0.7710  0.3577
   57SAPC   C33 4236   2.487   2.842  10.199 -0.3609 -0.2201  0.3380
   57SAPC   H3X 4237   2.524   2.738  10.202  2.0608  0.6358  2.3923
   57SAPC   H3Y 4238   2.579   2.902  10.184 -0.7238  0.6547  1.4503
   57SAPC   C34 4239   2.383   2.845  10.082  0.4473  0.1789  0.1530
   57SAPC   H4X 4240   2.334   2.944  10.096  0.8795  0.3954  0.1529
   57SAPC   H4Y 4241   2.304   2.767  10.091  2.6860 -1.7525  3.6708
   57SAPC   C35 4242   2.456   2.816   9.948 -0.5323 -0.0036  0.0387
   57SAPC   H5X 4243   2.507   2.718   9.956 -1.4166 -0.5968 -1.4868
   57SAPC   H5Y 4244   2.541   2.886   9.936 -0.7914  0.7056  1.9984
   57SAPC   C36 4245   2.371   2.831   9.819 -0.1092  0.1651  0.0922
   57SAPC   H6X 4246   2.336   2.935   9.803 -3.2273 -0.7550  0.6155
   57SAPC   H6Y 4247   2.281   2.768   9.838  1.2675 -1.4383  1.5216
   57SAPC   C37 4248   2.439   2.769   9.698 -0.2361 -0.5027 -0.3306
   57SAPC   H7X 4249   2.474   2.666   9.718  0.2441 -0.5948 -1.5676
   57SAPC   H7Y 4250   2.531   2.829   9.681 -0.5324  0.5243  1.5510
   57SAPC   C38 4251   2.371   2.779   9.560 -0.0738  0.2724 -0.6813
   57SAPC   H8X 4252   2.335   2.883   9.543 -0.5188 -0.1254 -2.2510
   57SAPC   H8Y 4253   2.279   2.717   9.565  0.1360 -0.0010 -0.1120
   57SAPC   C39 4254   2.453   2.731   9.439  0.8628 -1.0050  0.3030
   57SAPC   H9X 4255   2.490   2.630   9.466 -1.4762 -1.8890  0.2861
   57SAPC   H9Y 4256   2.539   2.802   9.432  0.0785 -0.3079 -2.9238
   57SAPC  C310 4257   2.374   2.740   9.302 -1.1762 -0.7464 -0.4328
   57SAPC  H10X 4258   2.344   2.847   9.295 -0.8517 -0.5622  0.8387
   57SAPC  H10Y 4259   2.281   2.680   9.312 -0.3136 -1.9534  0.4618
   57SAPC  C311 4260   2.446   2.704   9.172  0.2000  0.3018  0.1763
   57SAPC  H11X 4261   2.477   2.597   9.175 -0.6278  0.0504  0.0302
   57SAPC  H11Y 4262   2.542   2.759   9.167  1.1426 -1.2579  0.5437
   57SAPC  C312 4263   2.369   2.732   9.033  0.4238 -0.1361 -0.2437
   57SAPC  H12X 4264   2.349   2.841   9.023  1.7762  0.2333  1.0044
   57SAPC  H12Y 4265   2.269   2.684   9.024  0.3939  0.1645 -1.7073
   57SAPC  C313 4266   2.454   2.693   8.912 -0.0022 -0.6681  0.0967
   57SAPC  H13X 4267   2.557   2.731   8.932 -1.0619  1.5723  1.4356
   57SAPC  H13Y 4268   2.403   2.754   8.834 -0.1814 -1.8954 -0.7603
   57SAPC  C314 4269   2.468   2.547   8.869  0.1030  0.8961  0.7054
   57SAPC  H14X 4270   2.370   2.503   8.899  0.9292 -0.9008  0.8519
   57SAPC  H14Y 4271   2.549   2.505   8.934 -1.5365 -2.9335  0.4384
   57SAPC  C315 4272   2.505   2.518   8.725 -0.2103 -0.0731  0.0641
   57SAPC  H15X 4273   2.510   2.407   8.723 -1.2798 -0.0913 -2.5101
   57SAPC  H15Y 4274   2.607   2.564   8.723 -0.0091 -0.5735 -2.3953
   57SAPC  C316 4275   2.397   2.559   8.622  0.1644 -0.6168 -0.3977
   57SAPC  H16X 4276   2.375   2.667   8.635 -0.3419 -0.6122 -1.2626
   57SAPC  H16Y 4277   2.310   2.496   8.649 -0.4594 -0.6074 -2.3262
   57SAPC  C317 4278   2.423   2.543   8.470 -0.0595 -0.8144 -0.9319
   57SAPC  H17X 4279   2.437   2.434   8.449 -0.9560 -0.6373 -2.4440
   57SAPC  H17Y 4280   2.521   2.588   8.442 -0.6979 -1.2363 -3.9685
   57SAPC  C318 4281   2.305   2.593   8.382  0.2302 -0.0748 -0.0311
   57SAPC  H18X 4282   2.329   2.595   8.274 -1.8625 -2.4259 -0.6008
   57SAPC  H18Y 4283   2.272   2.695   8.412  1.2126  1.4902 -3.9250
   57SAPC  H18Z 4284   2.213   2.532   8.393  1.2141 -2.2165 -2.9503
   58SAPC     N 4285   5.643   6.622  10.425 -0.7511 -0.3693 -0.2548
   58SAPC   C12 4286   5.513   6.702  10.425 -0.1683 -0.3497  0.2800
   58SAPC  H12A 4287   5.449   6.653  10.354  1.9204 -0.4816 -1.5876
   58SAPC  H12B 4288   5.528   6.798  10.376 -1.0386 -1.1108 -1.5230
   58SAPC   C13 4289   5.621   6.478  10.463 -0.8925 -0.5840  0.4345
   58SAPC  H13A 4290   5.563   6.418  10.394 -0.5956 -1.6662  1.1148
   58SAPC  H13B 4291   5.717   6.432  10.481 -0.5570  0.2671  0.8439
   58SAPC  H13C 4292   5.567   6.476  10.557 -0.4344  1.6906  0.7805
   58SAPC   C14 4293   5.704   6.630  10.291 -0.6537 -0.0727  0.4659
   58SAPC  H14A 4294   5.707   6.728  10.247  0.0754 -0.4697 -0.3781
   58SAPC  H14B 4295   5.806   6.594  10.293  0.3357  2.5875  0.1000
   58SAPC  H14C 4296   5.651   6.561  10.228  0.6897  0.1592 -0.9327
   58SAPC   C15 4297   5.742   6.668  10.523 -0.1480  0.1026 -0.1581
   58SAPC  H15A 4298   5.760   6.773  10.508 -0.5844  0.2689  0.4709
   58SAPC  H15B 4299   5.704   6.657  10.623 -0.0347  1.4744  0.0499
   58SAPC  H15C 4300   5.831   6.608  10.516 -0.1172  0.1043  0.2300
   58SAPC   C11 4301   5.447   6.729  10.561 -0.4245  0.2459 -0.3968
   58SAPC  H11A 4302   5.379   6.812  10.532  1.3519  1.2466 -1.8470
   58SAPC  H11B 4303   5.528   6.769  10.625  1.5615  0.7759 -3.1102
   58SAPC     P 4304   5.303   6.623  10.755  0.0825 -0.0060 -0.3647
   58SAPC   O13 4305   5.269   6.485  10.785  0.0347 -0.6453  0.0852
   58SAPC   O14 4306   5.400   6.683  10.851 -0.0124 -0.4955  0.2579
   58SAPC   O12 4307   5.370   6.623  10.613  0.0687 -0.9887  0.0386
   58SAPC   O11 4308   5.174   6.712  10.734 -0.0603  0.0148 -0.0897
   58SAPC    C1 4309   5.061   6.668  10.652  0.1314  0.0041 -1.0912
   58SAPC    HA 4310   5.048   6.559  10.669  1.9994 -0.5252 -2.8721
   58SAPC    HB 4311   4.971   6.715  10.697 -1.0837 -1.5222 -1.8865
   58SAPC    C2 4312   5.084   6.697  10.504 -0.4781 -0.0854 -0.6697
   58SAPC    HS 4313   5.164   6.630  10.466  0.1268  0.2153  0.0767
   58SAPC   O21 4314   5.111   6.836  10.489  0.1770  0.0512  0.0260
   58SAPC   C21 4315   5.172   6.871  10.373 -0.7128 -0.0112  0.0722
   58SAPC   O22 4316   5.239   6.789  10.310 -0.8421 -1.0986  0.5218
   58SAPC   C22 4317   5.149   7.011  10.325 -0.1787 -0.4047  0.0626
   58SAPC   H2R 4318   5.045   7.038  10.298  0.9680  3.4166 -0.9309
   58SAPC   H2S 4319   5.181   7.071  10.413 -1.4614 -1.3085  1.1563
   58SAPC    C3 4320   4.956   6.658  10.425  0.0505 -0.1209 -0.0217
   58SAPC    HX 4321   4.870   6.714  10.466  1.1620  1.8609 -0.3118
   58SAPC    HY 4322   4.943   6.548  10.435 -0.3703 -0.0809 -0.1256
   58SAPC   O31 4323   4.964   6.700  10.284  0.3022 -0.1290 -0.5836
   58SAPC   C31 4324   5.019   6.618  10.198 -0.4453 -0.2115  0.3260
   58SAPC   O32 4325   5.057   6.504  10.227 -0.2054  0.3331  0.3612
   58SAPC   C32 4326   5.024   6.692  10.066  0.2761 -0.1067 -0.2166
   58SAPC   H2X 4327   5.071   6.789  10.094 -0.4472  0.1816  0.0032
   58SAPC   H2Y 4328   4.925   6.718  10.022  0.9432 -0.3073 -1.8903
   58SAPC   C23 4329   5.246   7.061  10.208  0.2308  0.7673 -0.0340
   58SAPC   H3R 4330   5.179   7.068  10.119 -0.4268  0.0673  0.3967
   58SAPC   H3S 4331   5.319   6.986  10.172  0.6742  1.7441 -1.2223
   58SAPC   C24 4332   5.324   7.190  10.233 -0.1456  0.4406 -0.3409
   58SAPC   H4R 4333   5.386   7.220  10.146  0.1986 -2.7422 -1.2539
   58SAPC   H4S 4334   5.393   7.183  10.319 -0.5825  2.2642  0.1743
   58SAPC   C25 4335   5.224   7.296  10.254 -0.4391 -0.5539 -0.2941
   58SAPC   H5R 4336   5.218   7.332  10.358 -3.0260  2.0564 -1.2794
   58SAPC   C26 4337   5.149   7.366  10.164  0.4196  0.0383 -0.1432
   58SAPC   H6R 4338   5.087   7.447  10.205  2.1259  0.7081  1.1698
   58SAPC   C27 4339   5.141   7.333  10.024  0.9498 -0.0688 -0.4356
   58SAPC   H7R 4340   5.054   7.268   9.999  0.9523 -0.0797 -0.4142
   58SAPC   H7S 4341   5.225   7.268   9.992 -0.8463 -1.6721 -2.0364
   58SAPC   C28 4342   5.146   7.463   9.947 -0.1144 -0.3404 -0.0582
   58SAPC   H8R 4343   5.140   7.556  10.005 -1.6516  0.0137 -0.7713
   58SAPC   C29 4344   5.154   7.479   9.812 -0.1557  0.5751 -0.3635
   58SAPC   H9R 4345   5.151   7.575   9.758  0.0613  1.8294  1.7544
   58SAPC  C210 4346   5.162   7.357   9.725  0.5729  0.4405  0.1848
   58SAPC  H10R 4347   5.060   7.352   9.681 -1.8023  1.8026  5.1972
   58SAPC  H10S 4348   5.170   7.256   9.770 -0.4310 -0.5154 -1.7284
   58SAPC  C211 4349   5.279   7.376   9.630 -0.0761 -0.1243 -0.0277
   58SAPC  H11R 4350   5.375   7.363   9.681  0.2602 -0.2602 -0.6792
   58SAPC  C212 4351   5.269   7.401   9.497 -0.1630  0.2915  0.4414
   58SAPC  H12R 4352   5.361   7.424   9.442 -0.9681 -0.5590 -1.2960
   58SAPC  C213 4353   5.154   7.414   9.403 -0.0505  0.2783  0.3402
   58SAPC  H13R 4354   5.136   7.523   9.391  1.0392  0.4989  0.6294
   58SAPC  H13S 4355   5.062   7.386   9.458 -1.6274  1.8733 -1.3994
   58SAPC  C214 4356   5.170   7.339   9.277 -0.1036  0.2994 -0.1712
   58SAPC  H14R 4357   5.177   7.230   9.291  1.5077  0.1974 -1.6777
   58SAPC  C215 4358   5.186   7.387   9.155  0.3344 -0.0085 -0.6853
   58SAPC  H15R 4359   5.221   7.311   9.083  1.6038 -0.4108  0.3370
   58SAPC  C216 4360   5.188   7.534   9.109  0.9546  0.0243 -0.3291
   58SAPC  H16R 4361   5.127   7.598   9.175  1.6977  0.7715 -0.3573
   58SAPC  H16S 4362   5.143   7.537   9.007 -0.9609  0.7756  0.5342
   58SAPC  C217 4363   5.333   7.579   9.087  0.3598 -0.6921 -0.0514
   58SAPC  H17R 4364   5.372   7.530   8.996 -0.7427 -0.0452 -0.8842
   58SAPC  H17S 4365   5.402   7.566   9.174  1.0101 -0.2559 -0.4953
   58SAPC  C218 4366   5.336   7.735   9.046 -0.2909 -0.3983  0.6745
   58SAPC  H18R 4367   5.299   7.806   9.123 -2.5202  0.2842 -0.9726
   58SAPC  H18S 4368   5.267   7.747   8.960  0.0032 -3.3990 -0.0443
   58SAPC  C219 4369   5.475   7.771   8.994  0.0303 -0.5797  0.3633
   58SAPC  H19R 4370   5.485   7.699   8.910  0.2869  0.2012 -0.2742
   58SAPC  H19S 4371   5.544   7.732   9.071  0.6680  0.8155  0.5137
   58SAPC  C220 4372   5.477   7.916   8.965 -0.5887  0.1171 -0.3228
   58SAPC  H20R 4373   5.385   7.943   8.910  0.6780  0.3551 -2.3989
   58SAPC  H20S 4374   5.570   7.950   8.914 -0.0813  0.2875  0.6857
   58SAPC  H20T 4375   5.475   7.988   9.050  0.8594  0.1219 -0.2821
   58SAPC   C33 4376   5.109   6.631   9.956  0.4597 -0.7539  0.2760
   58SAPC   H3X 4377   5.077   6.525   9.942 -0.6586 -0.6506  1.8728
   58SAPC   H3Y 4378   5.215   6.629   9.990  0.4853 -1.2615  0.1726
   58SAPC   C34 4379   5.114   6.701   9.820 -0.3847  0.9885 -0.2065
   58SAPC   H4X 4380   5.161   6.801   9.832  1.1784  0.3182 -0.6615
   58SAPC   H4Y 4381   5.007   6.714   9.792 -1.1464 -4.8322 -0.5681
   58SAPC   C35 4382   5.196   6.641   9.703  0.7317 -0.2545 -0.4119
   58SAPC   H5X 4383   5.199   6.530   9.710 -1.5439 -0.3690 -0.9901
   58SAPC   H5Y 4384   5.298   6.685   9.706 -0.1031  1.6137  2.0501
   58SAPC   C36 4385   5.143   6.691   9.571 -0.2954  0.2914 -0.1390
   58SAPC   H6X 4386   5.149   6.802   9.572 -0.7295  0.3065  1.3614
   58SAPC   H6Y 4387   5.037   6.659   9.573  0.1948 -1.3000  1.4309
   58SAPC   C37 4388   5.216   6.636   9.440  0.3130 -0.3332  0.0825
   58SAPC   H7X 4389   5.217   6.525   9.440  1.5510 -0.3453  1.6672
   58SAPC   H7Y 4390   5.323   6.668   9.444  1.0813 -2.7610 -0.2088
   58SAPC   C38 4391   5.149   6.674   9.310 -0.2963 -0.2624  0.3689
   58SAPC   H8X 4392   5.152   6.784   9.296 -2.3861 -0.3942 -1.3729
   58SAPC   H8Y 4393   5.050   6.624   9.300  0.9365 -2.8811  0.7338
   58SAPC   C39 4394   5.229   6.626   9.187 -0.2716 -0.0906  0.9763
   58SAPC   H9X 4395   5.223   6.515   9.180 -0.7345 -0.1156  1.7041
   58SAPC   H9Y 4396   5.335   6.655   9.203 -0.1499  0.0799 -0.1169
   58SAPC  C310 4397   5.180   6.681   9.051  0.3893 -0.0946  0.0452
   58SAPC  H10X 4398   5.202   6.788   9.033  0.3784 -0.3166 -1.3604
   58SAPC  H10Y 4399   5.071   6.665   9.040  0.5679  0.3030 -2.6684
   58SAPC  C311 4400   5.254   6.594   8.940 -0.3889  0.0186 -0.4279
   58SAPC  H11X 4401   5.247   6.485   8.961 -0.4623 -0.1339 -1.2454
   58SAPC  H11Y 4402   5.358   6.629   8.927 -0.4276  0.7813  1.1653
   58SAPC  C312 4403   5.172   6.608   8.809  0.6894 -0.0532  0.9543
   58SAPC  H12X 4404   5.163   6.714   8.777 -1.1127 -0.8311 -1.2782
   58SAPC  H12Y 4405   5.067   6.595   8.842  0.2677  0.6724 -0.0523
   58SAPC  C313 4406   5.215   6.513   8.701  0.0384  0.3882  0.0391
   58SAPC  H13X 4407   5.171   6.545   8.604  3.6352 -0.0316 -1.7911
   58SAPC  H13Y 4408   5.193   6.408   8.727 -0.6334  0.8208  1.2826
   58SAPC  C314 4409   5.366   6.520   8.674 -0.6758  0.3674  0.7795
   58SAPC  H14X 4410   5.414   6.492   8.770  0.0237 -1.7439 -0.1565
   58SAPC  H14Y 4411   5.399   6.624   8.652 -0.4776  0.4798  1.6045
   58SAPC  C315 4412   5.427   6.425   8.569  0.3201 -0.4644 -0.3270
   58SAPC  H15X 4413   5.372   6.457   8.478 -2.0142  0.3644  1.3282
   58SAPC  H15Y 4414   5.411   6.317   8.592  0.1602 -0.4962 -0.5804
   58SAPC  C316 4415   5.579   6.435   8.545 -0.1285 -0.0446  0.4622
   58SAPC  H16X 4416   5.625   6.409   8.642 -2.6586  0.0257  1.7289
   58SAPC  H16Y 4417   5.591   6.544   8.524  1.7221 -0.2101  0.5852
   58SAPC  C317 4418   5.628   6.344   8.428  0.0980  0.5664 -0.3237
   58SAPC  H17X 4419   5.600   6.406   8.339 -1.5830  0.8598  0.3766
   58SAPC  H17Y 4420   5.571   6.249   8.435 -0.4992  0.8878 -0.6811
   58SAPC  C318 4421   5.779   6.304   8.421  0.7193 -0.1275  0.5032
   58SAPC  H18X 4422   5.796   6.214   8.359 -0.0963  0.0770 -0.0238
   58SAPC  H18Y 4423   5.816   6.286   8.524 -1.1747 -0.2348  1.1835
   58SAPC  H18Z 4424   5.837   6.387   8.374  3.6926 -2.5080 -0.2297
   59SAPC     N 4425   0.693   2.199  11.118  0.4813 -0.0043 -0.6661
   59SAPC   C12 4426   0.659   2.073  11.034 -0.3420  1.3112  0.1402
   59SAPC  H12A 4427   0.688   1.979  11.080 -0.4873  0.9277 -0.5406
   59SAPC  H12B 4428   0.736   2.077  10.958  0.5995  1.0159  1.0686
   59SAPC   C13 4429   0.826   2.182  11.185 -0.2656  0.8733 -0.7645
   59SAPC  H13A 4430   0.816   2.100  11.255  2.7748  0.2973 -0.9215
   59SAPC  H13B 4431   0.900   2.161  11.110  3.0321 -0.2486  2.6190
   59SAPC  H13C 4432   0.860   2.267  11.243 -0.8428  1.1811 -0.8687
   59SAPC   C14 4433   0.699   2.326  11.035  0.2674  0.4580  0.6232
   59SAPC  H14A 4434   0.603   2.333  10.987  0.3874 -1.4046  0.0310
   59SAPC  H14B 4435   0.712   2.416  11.093  3.0138 -0.3204  1.3218
   59SAPC  H14C 4436   0.782   2.323  10.966  1.3053 -0.2403  1.8748
   59SAPC   C15 4437   0.599   2.228  11.223 -0.2651  0.3818 -0.0502
   59SAPC  H15A 4438   0.500   2.253  11.187 -0.5985  0.4692  0.9087
   59SAPC  H15B 4439   0.573   2.146  11.287  2.1880  0.2060  0.7875
   59SAPC  H15C 4440   0.633   2.300  11.296 -0.1125 -0.8107  1.0561
   59SAPC   C11 4441   0.523   2.068  10.968 -0.0560 -0.5668 -0.1972
   59SAPC  H11A 4442   0.528   1.975  10.906 -2.0942 -0.2193 -0.9460
   59SAPC  H11B 4443   0.505   2.157  10.904  1.0870  1.1516  1.8393
   59SAPC     P 4444   0.371   1.914  11.122  0.0283 -0.0142 -0.4843
   59SAPC   O13 4445   0.490   1.828  11.162  0.5091  0.7798  0.2805
   59SAPC   O14 4446   0.278   1.947  11.239  0.2598  0.5913 -0.0866
   59SAPC   O12 4447   0.421   2.051  11.066  0.2648 -0.2952  0.2937
   59SAPC   O11 4448   0.292   1.841  11.009 -0.1133 -0.0723 -0.3737
   59SAPC    C1 4449   0.206   1.920  10.924  0.0853  0.1630 -0.2422
   59SAPC    HA 4450   0.108   1.924  10.975  0.9540 -0.6886  1.5206
   59SAPC    HB 4451   0.244   2.025  10.915  0.5891  0.2237  2.2406
   59SAPC    C2 4452   0.201   1.864  10.777  0.1730 -0.3559  0.4849
   59SAPC    HS 4453   0.157   1.763  10.780 -0.2089 -0.3179 -2.4603
   59SAPC   O21 4454   0.333   1.871  10.712  0.0802  0.0069  0.5573
   59SAPC   C21 4455   0.382   1.754  10.669  0.1697 -0.2626  0.5274
   59SAPC   O22 4456   0.337   1.645  10.694 -0.1357  0.6043  0.5702
   59SAPC   C22 4457   0.499   1.779  10.576  0.0766  0.0419 -0.6971
   59SAPC   H2R 4458   0.467   1.839  10.488 -2.3444 -1.1399 -0.6763
   59SAPC   H2S 4459   0.584   1.819  10.635 -0.3031  1.8713 -1.3561
   59SAPC    C3 4460   0.097   1.944  10.693 -0.2993 -0.8384  0.0123
   59SAPC    HX 4461   0.153   2.037  10.670  0.6458 -0.5347  3.2538
   59SAPC    HY 4462  -0.005   1.968  10.731 -0.4060 -1.6790  0.2554
   59SAPC   O31 4463   0.082   1.874  10.569  0.2783  0.4054 -0.1721
   59SAPC   C31 4464   0.009   1.758  10.573  0.3366 -0.2307  1.3695
   59SAPC   O32 4465  -0.067   1.723  10.668 -0.0615 -0.0991 -0.5513
   59SAPC   C32 4466   0.056   1.670  10.456 -0.7679 -0.0040 -0.0784
   59SAPC   H2X 4467   0.154   1.631  10.489  0.3951  2.1100 -0.9556
   59SAPC   H2Y 4468   0.078   1.740  10.372 -0.4483  0.9155  0.7677
   59SAPC   C23 4469   0.568   1.647  10.529  0.5726 -0.4190  0.0796
   59SAPC   H3R 4470   0.599   1.592  10.621  0.3053 -2.4576 -1.0112
   59SAPC   H3S 4471   0.664   1.660  10.475 -0.5061  1.2551 -1.4707
   59SAPC   C24 4472   0.476   1.564  10.425  0.2740 -0.3327 -0.1707
   59SAPC   H4R 4473   0.448   1.621  10.333 -1.5622 -1.4264 -0.3064
   59SAPC   H4S 4474   0.382   1.541  10.481  1.9656  1.3714  3.5090
   59SAPC   C25 4475   0.526   1.428  10.391 -0.1218 -0.2230 -0.3076
   59SAPC   H5R 4476   0.523   1.349  10.467  2.1346 -0.8188 -0.8006
   59SAPC   C26 4477   0.575   1.392  10.275 -0.7755 -0.1594  0.1338
   59SAPC   H6R 4478   0.600   1.285  10.265 -3.7986 -0.8767 -0.1190
   59SAPC   C27 4479   0.587   1.471  10.152 -0.3380  0.0571 -0.2378
   59SAPC   H7R 4480   0.643   1.561  10.185  1.1155 -0.6387 -0.7647
   59SAPC   H7S 4481   0.484   1.503  10.125 -0.3153  0.2975 -0.0359
   59SAPC   C28 4482   0.657   1.394  10.036 -0.3157 -0.1902 -0.1555
   59SAPC   H8R 4483   0.642   1.285  10.033  1.3923 -0.4000 -2.6121
   59SAPC   C29 4484   0.728   1.458   9.943 -0.2138  0.0278 -0.3608
   59SAPC   H9R 4485   0.769   1.394   9.863  0.5547 -2.6407  2.0747
   59SAPC  C210 4486   0.750   1.609   9.931  0.3869  0.3540 -0.0212
   59SAPC  H10R 4487   0.840   1.632   9.870  1.0530  0.2933  0.9131
   59SAPC  H10S 4488   0.776   1.645  10.033  1.7525  1.9285 -0.8939
   59SAPC  C211 4489   0.628   1.673   9.879  0.1906  0.1577 -0.1105
   59SAPC  H11R 4490   0.565   1.704   9.963  0.2269 -0.3394  0.1059
   59SAPC  C212 4491   0.588   1.676   9.754 -0.2059  0.2712 -0.0953
   59SAPC  H12R 4492   0.487   1.717   9.738 -0.7601 -0.7942  0.6640
   59SAPC  C213 4493   0.649   1.594   9.638  0.0173  0.8699  0.7124
   59SAPC  H13R 4494   0.735   1.541   9.684  0.0865  0.1177 -0.2622
   59SAPC  H13S 4495   0.686   1.665   9.561 -0.6352  0.4057 -0.0358
   59SAPC  C214 4496   0.537   1.502   9.587  0.6010 -0.0084 -0.3683
   59SAPC  H14R 4497   0.475   1.460   9.667  1.9520  0.7848  1.1326
   59SAPC  C215 4498   0.504   1.470   9.462 -0.2368 -0.3854 -0.4793
   59SAPC  H15R 4499   0.420   1.400   9.449 -0.9559 -0.2990  3.1942
   59SAPC  C216 4500   0.575   1.513   9.340 -0.4633  0.1264  0.0827
   59SAPC  H16R 4501   0.562   1.431   9.266  1.6053 -0.2562  0.1184
   59SAPC  H16S 4502   0.683   1.535   9.356  0.0772 -0.5771 -2.3394
   59SAPC  C217 4503   0.506   1.639   9.274  0.4364 -0.0704 -0.2235
   59SAPC  H17R 4504   0.496   1.724   9.344  0.3367  2.1712 -2.8556
   59SAPC  H17S 4505   0.407   1.597   9.246  0.4992 -2.3285  2.7044
   59SAPC  C218 4506   0.590   1.681   9.153 -0.2761 -0.7936 -0.3398
   59SAPC  H18R 4507   0.590   1.601   9.076 -0.5092 -1.2716  0.1576
   59SAPC  H18S 4508   0.693   1.716   9.180 -0.3079 -0.3781 -0.7368
   59SAPC  C219 4509   0.523   1.803   9.093  0.6837  0.2762 -0.1892
   59SAPC  H19R 4510   0.504   1.875   9.176  0.8406 -1.0568  1.0293
   59SAPC  H19S 4511   0.423   1.773   9.054  1.0915  1.2689 -2.0499
   59SAPC  C220 4512   0.601   1.871   8.970 -0.5390  0.9628 -0.3719
   59SAPC  H20R 4513   0.640   1.786   8.911  1.4513  0.0792  2.1046
   59SAPC  H20S 4514   0.683   1.932   9.014  2.3144 -2.3599 -0.8531
   59SAPC  H20T 4515   0.528   1.931   8.912  0.9013  1.7278 -1.4299
   59SAPC   C33 4516  -0.031   1.545  10.423 -0.0588  0.0304 -0.8729
   59SAPC   H3X 4517  -0.068   1.503  10.519  1.3017 -2.4320 -1.4083
   59SAPC   H3Y 4518   0.045   1.478  10.378  1.0294 -1.6165  3.1843
   59SAPC   C34 4519  -0.153   1.566  10.334  0.0703  0.6930 -0.4299
   59SAPC   H4X 4520  -0.121   1.639  10.257  1.3330 -0.6273 -1.1823
   59SAPC   H4Y 4521  -0.237   1.608  10.392 -1.2329 -0.0343 -1.7738
   59SAPC   C35 4522  -0.203   1.438  10.266  0.2870  0.1544  0.1787
   59SAPC   H5X 4523  -0.314   1.438  10.256  0.3178 -2.1739 -0.5714
   59SAPC   H5Y 4524  -0.175   1.353  10.332 -0.6059  0.4327  0.9393
   59SAPC   C36 4525  -0.156   1.420  10.123 -0.0012 -0.2708  0.0196
   59SAPC   H6X 4526  -0.170   1.313  10.096 -0.4143 -0.3345  0.4840
   59SAPC   H6Y 4527  -0.047   1.441  10.125 -0.3706  1.7818  3.8326
   59SAPC   C37 4528  -0.228   1.501  10.020  0.2928  0.0863  0.1445
   59SAPC   H7X 4529  -0.203   1.605  10.051  0.9545 -0.7984  2.7167
   59SAPC   H7Y 4530  -0.339   1.494  10.027  0.2921 -1.1088 -1.0767
   59SAPC   C38 4531  -0.175   1.477   9.872  0.4494 -0.3758 -0.2700
   59SAPC   H8X 4532  -0.200   1.377   9.830 -1.8422  0.7872 -1.7691
   59SAPC   H8Y 4533  -0.066   1.498   9.875  0.4665 -0.6425  1.0731
   59SAPC   C39 4534  -0.237   1.567   9.761 -0.6466  0.0653  0.0248
   59SAPC   H9X 4535  -0.208   1.673   9.779  0.3852 -0.3096  0.5848
   59SAPC   H9Y 4536  -0.345   1.550   9.781 -0.0387 -0.6215  2.9477
   59SAPC  C310 4537  -0.212   1.526   9.615  0.2047  1.1845 -0.0843
   59SAPC  H10X 4538  -0.222   1.417   9.599  3.9450  0.9630 -1.4073
   59SAPC  H10Y 4539  -0.102   1.539   9.608  1.0478 -4.2900  1.0776
   59SAPC  C311 4540  -0.295   1.602   9.511 -0.3589 -0.3842  0.3339
   59SAPC  H11X 4541  -0.281   1.712   9.508 -0.3881 -0.4009 -0.8402
   59SAPC  H11Y 4542  -0.400   1.577   9.535 -0.1512 -1.5056  0.1073
   59SAPC  C312 4543  -0.270   1.550   9.369 -0.1504 -0.5827  0.3053
   59SAPC  H12X 4544  -0.286   1.440   9.377  1.4590 -0.6302  3.9433
   59SAPC  H12Y 4545  -0.163   1.575   9.351 -0.0234 -2.2206 -1.4518
   59SAPC  C313 4546  -0.387   1.604   9.289 -0.2165  0.5153 -0.1733
   59SAPC  H13X 4547  -0.389   1.715   9.288  1.7609  0.5546  0.0101
   59SAPC  H13Y 4548  -0.486   1.575   9.330 -1.0427  2.4572 -0.7261
   59SAPC  C314 4549  -0.369   1.569   9.138  0.5879 -0.4409  0.0782
   59SAPC  H14X 4550  -0.367   1.458   9.133  0.8284 -0.5302  1.8326
   59SAPC  H14Y 4551  -0.273   1.612   9.103  0.2770 -0.1933 -0.4731
   59SAPC  C315 4552  -0.491   1.603   9.042 -0.2327  0.6358  0.1841
   59SAPC  H15X 4553  -0.499   1.713   9.051  0.5829  1.0338 -3.2878
   59SAPC  H15Y 4554  -0.588   1.567   9.082 -0.8161  1.5956 -0.3621
   59SAPC  C316 4555  -0.472   1.570   8.892 -0.0525 -0.1088 -0.0879
   59SAPC  H16X 4556  -0.501   1.468   8.856  1.1177 -0.3668 -0.3165
   59SAPC  H16Y 4557  -0.362   1.567   8.878 -0.2744  1.0465 -2.3079
   59SAPC  C317 4558  -0.547   1.674   8.810 -0.0001  0.2550 -0.1207
   59SAPC  H17X 4559  -0.486   1.766   8.801 -1.4796  1.0218 -3.0053
   59SAPC  H17Y 4560  -0.645   1.692   8.859  0.4807  1.5915  0.3869
   59SAPC  C318 4561  -0.575   1.628   8.657 -0.3757 -1.0259 -0.0431
   59SAPC  H18X 4562  -0.480   1.637   8.600 -0.1374 -0.2714  0.4707
   59SAPC  H18Y 4563  -0.644   1.701   8.611 -0.5850 -1.1800  0.0247
   59SAPC  H18Z 4564  -0.620   1.528   8.643  0.4891 -1.3632 -0.4790
   60SAPC     N 4565   1.449   0.104  11.013  0.1918 -0.6387  0.4371
   60SAPC   C12 4566   1.491   0.243  10.957 -0.3368  0.2832 -0.1409
   60SAPC  H12A 4567   1.594   0.229  10.928 -1.1149 -2.4440 -1.8090
   60SAPC  H12B 4568   1.489   0.310  11.041  1.5488 -0.5061  0.5406
   60SAPC   C13 4569   1.464  -0.004  10.909 -0.2548  0.4423 -0.7806
   60SAPC  H13A 4570   1.415  -0.094  10.941 -2.1977  1.2419 -1.4038
   60SAPC  H13B 4571   1.418   0.024  10.815 -2.1416  0.4610  0.1066
   60SAPC  H13C 4572   1.564  -0.039  10.892 -0.3023  0.4603 -1.0985
   60SAPC   C14 4573   1.527   0.056  11.133 -0.4217  0.4242 -0.3819
   60SAPC  H14A 4574   1.489  -0.030  11.185  0.8254  0.3851  0.5102
   60SAPC  H14B 4575   1.610   0.007  11.083 -0.8486  0.2770 -0.9552
   60SAPC  H14C 4576   1.556   0.130  11.206  0.1138 -0.0930 -0.0625
   60SAPC   C15 4577   1.302   0.111  11.057 -0.2680  0.0320 -0.1176
   60SAPC  H15A 4578   1.284   0.193  11.126  1.4829  0.7908 -0.5507
   60SAPC  H15B 4579   1.237   0.143  10.976 -1.3222  0.4924  0.8882
   60SAPC  H15C 4580   1.268   0.021  11.105  0.7024 -1.3030 -1.8958
   60SAPC   C11 4581   1.413   0.298  10.838  0.6046 -0.0414  0.1490
   60SAPC  H11A 4582   1.439   0.404  10.820  0.4085 -0.2510 -1.4180
   60SAPC  H11B 4583   1.306   0.292  10.867  0.5294 -0.3142 -0.1767
   60SAPC     P 4584   1.575   0.228  10.634  0.1476 -0.1210  0.3040
   60SAPC   O13 4585   1.674   0.271  10.733  0.1185  0.2585 -0.0029
   60SAPC   O14 4586   1.602   0.096  10.569  0.1172  0.1173 -0.0109
   60SAPC   O12 4587   1.439   0.223  10.716 -0.1133 -0.1567 -0.3562
   60SAPC   O11 4588   1.550   0.337  10.522  0.2000 -0.1666  0.4182
   60SAPC    C1 4589   1.415   0.381  10.482 -0.2287 -0.7480  0.2187
   60SAPC    HA 4590   1.333   0.360  10.555  0.6458 -0.7798  1.1987
   60SAPC    HB 4591   1.414   0.492  10.483  0.4757 -0.7164 -0.8865
   60SAPC    C2 4592   1.367   0.338  10.340 -0.4358 -1.3166 -0.0083
   60SAPC    HS 4593   1.264   0.373  10.319 -0.1771 -0.1831  0.5902
   60SAPC   O21 4594   1.385   0.201  10.325  0.2179  0.1477 -0.2549
   60SAPC   C21 4595   1.284   0.128  10.381 -0.4057 -0.0153  1.0646
   60SAPC   O22 4596   1.189   0.180  10.441 -0.2211  0.6348 -0.0761
   60SAPC   C22 4597   1.291  -0.016  10.321  0.1734  0.0988  0.1616
   60SAPC   H2R 4598   1.306  -0.003  10.212 -0.1590  0.8865  0.2060
   60SAPC   H2S 4599   1.375  -0.070  10.369  0.0156  0.4529  0.8318
   60SAPC    C3 4600   1.453   0.422  10.240  0.1414  0.5859  0.5753
   60SAPC    HX 4601   1.562   0.403  10.250 -0.0480 -1.4659 -0.8728
   60SAPC    HY 4602   1.446   0.528  10.271 -2.0165  1.0561 -1.3948
   60SAPC   O31 4603   1.397   0.409  10.104  0.2569  0.0813  0.3124
   60SAPC   C31 4604   1.446   0.311  10.034 -0.1508 -0.8022  0.3970
   60SAPC   O32 4605   1.532   0.236  10.071 -0.1436 -0.0978  0.3984
   60SAPC   C32 4606   1.368   0.303   9.910  0.1457  0.1920 -0.0689
   60SAPC   H2X 4607   1.387   0.390   9.843  0.1020 -0.4160 -0.8917
   60SAPC   H2Y 4608   1.260   0.301   9.936  0.3637  1.1512  0.9323
   60SAPC   C23 4609   1.163  -0.098  10.355 -0.5190  0.0942  0.4086
   60SAPC   H3R 4610   1.083  -0.029  10.390 -1.8484 -1.0633 -0.3040
   60SAPC   H3S 4611   1.190  -0.155  10.446 -0.4373 -1.3583 -0.5064
   60SAPC   C24 4612   1.117  -0.194  10.246 -0.5082  0.3776 -0.3842
   60SAPC   H4R 4613   1.047  -0.272  10.283  0.5439 -1.1865 -1.6172
   60SAPC   H4S 4614   1.202  -0.258  10.214  0.9016  1.6804  0.6596
   60SAPC   C25 4615   1.061  -0.115  10.127  0.1638 -0.3281  0.1067
   60SAPC   H5R 4616   0.983  -0.042  10.154  0.0109 -0.3862 -0.1818
   60SAPC   C26 4617   1.070  -0.146   9.997  0.4990  0.2801  0.3589
   60SAPC   H6R 4618   1.018  -0.082   9.924  1.0394 -1.0234 -1.1931
   60SAPC   C27 4619   1.143  -0.260   9.930  0.2867 -0.6396  0.7089
   60SAPC   H7R 4620   1.071  -0.339   9.896 -0.6111  0.0315  1.0238
   60SAPC   H7S 4621   1.187  -0.309  10.019  1.0366 -0.4487  0.4424
   60SAPC   C28 4622   1.250  -0.224   9.825  1.0130 -0.8599  0.2090
   60SAPC   H8R 4623   1.321  -0.146   9.857  1.4972 -1.7520  1.3731
   60SAPC   C29 4624   1.253  -0.273   9.700  0.0039  0.4877 -0.4313
   60SAPC   H9R 4625   1.330  -0.235   9.630 -0.0299  2.9284  0.8254
   60SAPC  C210 4626   1.164  -0.373   9.630 -0.6466 -0.5682 -0.6917
   60SAPC  H10R 4627   1.087  -0.315   9.574  1.4003  0.3625 -2.6386
   60SAPC  H10S 4628   1.113  -0.443   9.699 -0.2264 -0.0010  0.1957
   60SAPC  C211 4629   1.250  -0.457   9.538  0.6644 -0.0501  0.1439
   60SAPC  H11R 4630   1.289  -0.547   9.587  0.1505 -0.8206 -0.8446
   60SAPC  C212 4631   1.283  -0.430   9.409  0.2038 -0.1875 -0.1580
   60SAPC  H12R 4632   1.339  -0.507   9.354  0.1710 -1.1756  1.1392
   60SAPC  C213 4633   1.241  -0.305   9.334  0.1247  0.0532 -0.2261
   60SAPC  H13R 4634   1.226  -0.215   9.397 -1.5652 -1.1477  1.1279
   60SAPC  H13S 4635   1.137  -0.328   9.303  0.6602 -1.1031 -1.2125
   60SAPC  C214 4636   1.318  -0.286   9.201 -0.1054  0.0946 -0.0017
   60SAPC  H14R 4637   1.391  -0.203   9.200  0.6011 -0.4587  1.8288
   60SAPC  C215 4638   1.297  -0.352   9.086 -0.4668 -0.0972 -0.2565
   60SAPC  H15R 4639   1.348  -0.313   8.997  1.1073 -0.4536  0.4706
   60SAPC  C216 4640   1.201  -0.463   9.066  0.3201 -0.4868 -0.5924
   60SAPC  H16R 4641   1.155  -0.511   9.155  0.1044  1.6298  0.4541
   60SAPC  H16S 4642   1.263  -0.549   9.031  0.7983 -0.4382  0.1223
   60SAPC  C217 4643   1.098  -0.426   8.953 -0.5569 -0.4054 -0.4908
   60SAPC  H17R 4644   1.061  -0.323   8.977 -2.5330 -1.2391  0.1590
   60SAPC  H17S 4645   1.014  -0.498   8.962 -1.6667  0.8348 -0.8158
   60SAPC  C218 4646   1.167  -0.424   8.812  0.4029  0.5835  0.1190
   60SAPC  H18R 4647   1.204  -0.528   8.798  0.8350  0.6906  0.4559
   60SAPC  H18S 4648   1.257  -0.361   8.803  2.1644 -1.9632 -0.5872
   60SAPC  C219 4649   1.067  -0.397   8.699  0.5641 -0.2339 -0.3977
   60SAPC  H19R 4650   1.127  -0.406   8.606  0.3243 -0.9909 -0.4825
   60SAPC  H19S 4651   1.015  -0.299   8.698  0.3423 -0.3353  0.6263
   60SAPC  C220 4652   0.950  -0.496   8.697  0.6160  0.2672 -0.0006
   60SAPC  H20R 4653   0.994  -0.598   8.707 -0.4742 -0.3448 -1.3834
   60SAPC  H20S 4654   0.894  -0.495   8.602 -0.4660  1.2227  0.6398
   60SAPC  H20T 4655   0.880  -0.483   8.782  0.3293  3.1515 -0.6481
   60SAPC   C33 4656   1.406   0.185   9.814  0.4490  0.3275 -0.0304
   60SAPC   H3X 4657   1.349   0.098   9.854  1.8614 -1.3021 -1.4926
   60SAPC   H3Y 4658   1.513   0.157   9.826  0.3273  0.1224  0.6396
   60SAPC   C34 4659   1.366   0.210   9.671  0.0674 -0.1441 -0.1185
   60SAPC   H4X 4660   1.412   0.302   9.627 -1.8237  0.2645 -1.2831
   60SAPC   H4Y 4661   1.256   0.225   9.670  0.0319 -0.3803  0.4902
   60SAPC   C35 4662   1.402   0.104   9.561 -0.4450  0.3062 -0.3536
   60SAPC   H5X 4663   1.357   0.006   9.587 -0.6484  0.4533 -0.1553
   60SAPC   H5Y 4664   1.511   0.080   9.563 -0.2004  1.3405 -0.9915
   60SAPC   C36 4665   1.367   0.166   9.428  0.2210  0.4525  0.3893
   60SAPC   H6X 4666   1.423   0.259   9.404  0.0712  0.5207  0.3063
   60SAPC   H6Y 4667   1.259   0.192   9.437  0.0205 -0.6614  1.5201
   60SAPC   C37 4668   1.384   0.063   9.310  0.1250 -0.0265  0.8105
   60SAPC   H7X 4669   1.310  -0.017   9.333  0.9068 -0.7108  0.9592
   60SAPC   H7Y 4670   1.489   0.025   9.309  0.6232  1.3270 -0.7002
   60SAPC   C38 4671   1.361   0.129   9.169  0.0936 -0.1700 -0.1359
   60SAPC   H8X 4672   1.430   0.215   9.152  0.5799 -0.4219  0.5156
   60SAPC   H8Y 4673   1.258   0.169   9.167 -0.3629 -1.3366  0.0173
   60SAPC   C39 4674   1.354   0.043   9.041  0.1324 -0.4349  0.0212
   60SAPC   H9X 4675   1.295  -0.049   9.063 -3.6928  1.0200 -3.5184
   60SAPC   H9Y 4676   1.462   0.019   9.030  1.2056  2.4250  3.4502
   60SAPC  C310 4677   1.311   0.111   8.916  0.2549 -0.2529  0.4321
   60SAPC  H10X 4678   1.353   0.214   8.912  0.2278 -0.2017  1.3382
   60SAPC  H10Y 4679   1.200   0.106   8.917  0.2812 -0.7393  1.6907
   60SAPC  C311 4680   1.350   0.033   8.789  0.2052 -0.3192  0.0000
   60SAPC  H11X 4681   1.332  -0.075   8.809  1.8083  0.2437  4.9782
   60SAPC  H11Y 4682   1.458   0.044   8.766  0.4133  0.1090  1.1569
   60SAPC  C312 4683   1.277   0.068   8.656  0.0668  0.1026 -1.0540
   60SAPC  H12X 4684   1.280   0.179   8.648 -0.9693  0.3872  1.9995
   60SAPC  H12Y 4685   1.173   0.032   8.665 -0.2590  1.3744  0.3791
   60SAPC  C313 4686   1.338  -0.002   8.534 -0.5516 -0.0798 -0.2220
   60SAPC  H13X 4687   1.347  -0.110   8.558  0.8748  0.4455  1.7494
   60SAPC  H13Y 4688   1.440   0.032   8.507 -0.4100 -0.5258 -0.2495
   60SAPC  C314 4689   1.256   0.022   8.405 -0.5900 -0.3129 -0.2129
   60SAPC  H14X 4690   1.223   0.127   8.389 -2.5993 -0.6020  1.8083
   60SAPC  H14Y 4691   1.157  -0.028   8.402 -0.9183  0.3653 -0.8435
   60SAPC  C315 4692   1.327  -0.020   8.280  0.3723  0.2534 -0.4037
   60SAPC  H15X 4693   1.337  -0.130   8.294  1.9103  0.5596  1.1446
   60SAPC  H15Y 4694   1.433   0.009   8.262  0.9972 -1.7817 -0.1727
   60SAPC  C316 4695   1.244   0.015   8.153  0.2161 -0.4722  0.4413
   60SAPC  H16X 4696   1.236   0.123   8.130 -0.9168 -0.8168 -0.8789
   60SAPC  H16Y 4697   1.146  -0.033   8.173 -0.2296  1.3602  2.7530
   60SAPC  C317 4698   1.316  -0.043   8.035  0.2529  0.1335  0.0236
   60SAPC  H17X 4699   1.306  -0.154   8.036  1.0322  0.0370 -1.4989
   60SAPC  H17Y 4700   1.425  -0.028   8.046  0.0383  0.5717  1.5622
   60SAPC  C318 4701   1.262   0.003   7.902  0.6650 -0.1065 -0.2018
   60SAPC  H18X 4702   1.158  -0.031   7.882  0.3455 -0.7933  2.3768
   60SAPC  H18Y 4703   1.326  -0.037   7.820  0.0053 -2.2167  0.2793
   60SAPC  H18Z 4704   1.271   0.114   7.897  2.0896 -0.2582 -1.3466
   61SAPC     N 4705   3.063   5.611  11.042  0.4241  1.1833  0.6026
   61SAPC   C12 4706   3.004   5.586  10.906  0.4866  0.3782  0.2239
   61SAPC  H12A 4707   2.905   5.543  10.911  1.2520 -1.6663 -1.3504
   61SAPC  H12B 4708   3.071   5.516  10.858  1.0862 -0.4464  2.2234
   61SAPC   C13 4709   3.000   5.720  11.118  0.4759 -0.5219  0.5169
   61SAPC  H13A 4710   2.899   5.695  11.147 -0.2285 -0.6819 -1.9092
   61SAPC  H13B 4711   3.046   5.734  11.215  0.3887  1.1187  0.3390
   61SAPC  H13C 4712   2.997   5.820  11.077 -0.0169 -0.5278  0.5364
   61SAPC   C14 4713   3.080   5.487  11.120  0.7684 -0.0603  0.2920
   61SAPC  H14A 4714   3.105   5.506  11.224 -1.5297 -0.1000  0.8806
   61SAPC  H14B 4715   2.989   5.431  11.136  1.2697 -0.7747  0.7263
   61SAPC  H14C 4716   3.152   5.418  11.078  0.6402 -0.8360  1.3110
   61SAPC   C15 4717   3.196   5.678  11.034  0.0615  0.3451  0.1081
   61SAPC  H15A 4718   3.272   5.633  10.972  0.2954  0.4868  0.2902
   61SAPC  H15B 4719   3.181   5.782  11.008 -1.7654  0.4167  1.3676
   61SAPC  H15C 4720   3.234   5.688  11.135 -0.0399  1.4702  0.0398
   61SAPC   C11 4721   3.001   5.705  10.810 -0.0671 -0.0324  0.6830
   61SAPC  H11A 4722   2.954   5.679  10.712 -0.5281 -0.5164  1.0299
   61SAPC  H11B 4723   3.101   5.746  10.788  0.8674 -1.7021  1.7164
   61SAPC     P 4724   2.768   5.822  10.850 -0.0131  0.5230 -0.3880
   61SAPC   O13 4725   2.708   5.707  10.912 -0.0418  0.5043  0.0756
   61SAPC   O14 4726   2.713   5.948  10.902  0.0550  0.6156 -0.4107
   61SAPC   O12 4727   2.930   5.817  10.858 -0.1090 -0.2562  0.6145
   61SAPC   O11 4728   2.739   5.822  10.694 -0.3036  0.3654 -0.5965
   61SAPC    C1 4729   2.798   5.920  10.610 -0.3731 -0.6949  0.0463
   61SAPC    HA 4730   2.826   6.008  10.673  0.9212 -0.6954 -0.5198
   61SAPC    HB 4731   2.891   5.882  10.565 -0.6971  1.9880 -3.0679
   61SAPC    C2 4732   2.703   5.958  10.492 -0.5912 -0.4498  0.3538
   61SAPC    HS 4733   2.612   5.992  10.544 -0.5422 -0.5263  0.4880
   61SAPC   O21 4734   2.669   5.833  10.416  0.0400 -0.2297 -0.0010
   61SAPC   C21 4735   2.562   5.837  10.347 -1.0342 -0.0650  0.8525
   61SAPC   O22 4736   2.491   5.934  10.330 -0.5214 -0.1022 -0.2380
   61SAPC   C22 4737   2.545   5.702  10.280  0.6071  0.6047  0.0461
   61SAPC   H2R 4738   2.609   5.696  10.189  1.0732 -0.1516  0.4214
   61SAPC   H2S 4739   2.593   5.621  10.339  0.3151  0.0710 -0.4326
   61SAPC    C3 4740   2.769   6.061  10.397  0.2391 -0.1081 -0.1559
   61SAPC    HX 4741   2.765   6.158  10.451  1.6768 -0.8864  1.3823
   61SAPC    HY 4742   2.707   6.085  10.308 -0.2407  0.6091  0.3675
   61SAPC   O31 4743   2.903   6.022  10.362  0.3107  0.6729 -0.1126
   61SAPC   C31 4744   2.919   5.965  10.240 -0.6758 -0.1379  0.0732
   61SAPC   O32 4745   2.827   5.931  10.167 -0.3990 -0.1332  0.2769
   61SAPC   C32 4746   3.072   5.956  10.216 -1.0986 -0.2295  0.2212
   61SAPC   H2X 4747   3.119   5.910  10.306  0.2040  1.1824  0.2759
   61SAPC   H2Y 4748   3.117   6.057  10.225 -1.4769 -0.1057  0.8050
   61SAPC   C23 4749   2.390   5.679  10.249 -0.2959 -0.5057  0.0937
   61SAPC   H3R 4750   2.352   5.774  10.206  0.9533 -0.1780 -0.3053
   61SAPC   H3S 4751   2.333   5.675  10.344  0.6811 -0.4243  0.6874
   61SAPC   C24 4752   2.373   5.564  10.148 -0.8167  0.7674  0.3604
   61SAPC   H4R 4753   2.265   5.546  10.125  0.0693  0.1082 -3.5546
   61SAPC   H4S 4754   2.410   5.469  10.193 -2.6298  0.8170  2.0552
   61SAPC   C25 4755   2.432   5.600  10.013  0.5469  0.6108 -0.3390
   61SAPC   H5R 4756   2.541   5.585  10.002  0.0859 -2.1977 -1.7160
   61SAPC   C26 4757   2.368   5.647   9.900 -0.3761  0.6762  0.2721
   61SAPC   H6R 4758   2.433   5.686   9.820  0.0218  0.4710  0.4945
   61SAPC   C27 4759   2.215   5.660   9.879 -0.5679  0.4521 -0.0846
   61SAPC   H7R 4760   2.187   5.736   9.803 -1.2140  0.0296 -0.2700
   61SAPC   H7S 4761   2.161   5.694   9.971  1.0907  0.1591  1.0327
   61SAPC   C28 4762   2.159   5.525   9.838  0.4259  0.2598  0.3830
   61SAPC   H8R 4763   2.223   5.441   9.870 -1.2941 -0.9841  0.6576
   61SAPC   C29 4764   2.047   5.491   9.774  0.0969 -0.2063 -0.2734
   61SAPC   H9R 4765   2.030   5.385   9.753 -2.2243  0.6137 -2.9303
   61SAPC  C210 4766   1.940   5.592   9.717  0.7393 -0.6829 -0.0020
   61SAPC  H10R 4767   1.967   5.695   9.750 -2.2652 -0.3088  1.5145
   61SAPC  H10S 4768   1.845   5.569   9.771 -0.8178  0.7649 -2.0767
   61SAPC  C211 4769   1.903   5.585   9.570 -0.2108  0.0415 -0.7022
   61SAPC  H11R 4770   1.802   5.546   9.548 -0.1756  0.1015 -0.9611
   61SAPC  C212 4771   1.992   5.596   9.465 -0.3375 -0.3304  0.3162
   61SAPC  H12R 4772   1.954   5.588   9.362  4.4632 -0.8903 -1.5147
   61SAPC  C213 4773   2.142   5.626   9.473  0.0339 -1.2836 -1.1399
   61SAPC  H13R 4774   2.169   5.675   9.569 -1.0507 -2.2908 -0.3060
   61SAPC  H13S 4775   2.162   5.710   9.404 -0.5452 -0.9224 -0.8646
   61SAPC  C214 4776   2.240   5.513   9.439 -0.3805  0.0175  1.4864
   61SAPC  H14R 4777   2.284   5.470   9.531 -0.3416 -1.1923  0.9104
   61SAPC  C215 4778   2.285   5.466   9.321  0.6192 -0.1742  0.2274
   61SAPC  H15R 4779   2.367   5.393   9.325  0.0889 -0.7454  0.6955
   61SAPC  C216 4780   2.238   5.509   9.190 -0.2221  0.2631  0.3653
   61SAPC  H16R 4781   2.319   5.559   9.132  1.4862  0.6361  3.0143
   61SAPC  H16S 4782   2.156   5.584   9.195  0.9057  1.6163 -0.6896
   61SAPC  C217 4783   2.176   5.398   9.103  0.3771 -0.4389 -0.6623
   61SAPC  H17R 4784   2.098   5.343   9.159 -0.7430  2.3857  0.6556
   61SAPC  H17S 4785   2.257   5.331   9.067 -0.3482 -1.1843 -0.9125
   61SAPC  C218 4786   2.090   5.447   8.983 -0.2291 -0.2101 -0.2497
   61SAPC  H18R 4787   2.169   5.496   8.922  1.0468 -1.1583  0.5907
   61SAPC  H18S 4788   2.019   5.528   9.006 -0.5054 -0.8982  1.3976
   61SAPC  C219 4789   2.029   5.331   8.903 -0.4340  0.2997 -0.4839
   61SAPC  H19R 4790   2.111   5.260   8.883 -0.3764 -0.3713  2.0128
   61SAPC  H19S 4791   1.988   5.384   8.814 -1.5719 -0.0623 -0.1842
   61SAPC  C220 4792   1.923   5.257   8.977  0.9447 -0.6735  0.0023
   61SAPC  H20R 4793   1.838   5.318   9.014  0.2589 -1.8562  0.4148
   61SAPC  H20S 4794   1.962   5.188   9.055 -0.5739 -0.8795  0.5867
   61SAPC  H20T 4795   1.886   5.184   8.902  2.4996  0.0715 -1.5167
   61SAPC   C33 4796   3.115   5.877  10.090 -0.0668  0.5513  1.0574
   61SAPC   H3X 4797   3.040   5.798  10.069  2.3980 -1.3049 -1.0656
   61SAPC   H3Y 4798   3.211   5.824  10.107  1.8101  2.9550 -1.5624
   61SAPC   C34 4799   3.127   5.960   9.958  0.1636  0.1689 -0.3243
   61SAPC   H4X 4800   3.222   6.017   9.957 -0.8148  1.8398 -2.9950
   61SAPC   H4Y 4801   3.037   6.024   9.945 -1.6426 -1.8826  1.4791
   61SAPC   C35 4802   3.147   5.865   9.834  0.1386  0.0532 -0.1402
   61SAPC   H5X 4803   3.066   5.789   9.832  2.0865 -2.0994  1.2770
   61SAPC   H5Y 4804   3.235   5.809   9.872  0.0613  0.2547  0.3476
   61SAPC   C36 4805   3.190   5.938   9.704 -0.0469  0.1417 -0.0289
   61SAPC   H6X 4806   3.258   6.023   9.727  0.6604 -0.2983 -0.4904
   61SAPC   H6Y 4807   3.100   5.984   9.657 -1.0797  0.6644  2.4052
   61SAPC   C37 4808   3.256   5.841   9.610 -0.0353  0.3459  0.2891
   61SAPC   H7X 4809   3.194   5.748   9.610  0.0534  0.2862  0.1627
   61SAPC   H7Y 4810   3.362   5.816   9.632  0.5911  2.8965  0.2339
   61SAPC   C38 4811   3.247   5.879   9.461 -0.0915  0.7862 -0.6267
   61SAPC   H8X 4812   3.284   5.982   9.446  1.0085  0.7715  1.7811
   61SAPC   H8Y 4813   3.144   5.875   9.418 -0.7597 -0.3191  1.0363
   61SAPC   C39 4814   3.322   5.783   9.370  0.0904 -0.0317  0.6459
   61SAPC   H9X 4815   3.295   5.680   9.400  0.7412 -0.2447  0.5047
   61SAPC   H9Y 4816   3.432   5.787   9.384  0.5943 -1.3114 -2.4916
   61SAPC  C310 4817   3.285   5.818   9.225  0.4866  0.6616 -0.0093
   61SAPC  H10X 4818   3.334   5.914   9.200  2.9382 -0.4834  0.1938
   61SAPC  H10Y 4819   3.176   5.826   9.207  0.1235  1.5011  2.3808
   61SAPC  C311 4820   3.349   5.727   9.126  0.5121  0.3451  0.3575
   61SAPC  H11X 4821   3.339   5.617   9.143  1.7117 -0.2306 -2.3601
   61SAPC  H11Y 4822   3.459   5.735   9.140  0.7465 -2.1980  0.3225
   61SAPC  C312 4823   3.323   5.765   8.977  0.2885  0.1895 -0.1190
   61SAPC  H12X 4824   3.324   5.876   8.977  0.4732  0.1895  0.3345
   61SAPC  H12Y 4825   3.217   5.737   8.960  0.4931  0.0339 -1.1801
   61SAPC  C313 4826   3.422   5.698   8.879 -0.5116  0.2256 -0.2425
   61SAPC  H13X 4827   3.416   5.587   8.888  4.1946  0.0005  1.5569
   61SAPC  H13Y 4828   3.521   5.740   8.906 -1.5918  0.3660  3.7807
   61SAPC  C314 4829   3.398   5.740   8.737  0.6872  0.4913 -0.5759
   61SAPC  H14X 4830   3.364   5.845   8.746  1.2612  0.6620 -0.3390
   61SAPC  H14Y 4831   3.306   5.694   8.694  0.6014 -0.3335  0.4438
   61SAPC  C315 4832   3.523   5.713   8.646  0.7950 -0.0996 -0.0287
   61SAPC  H15X 4833   3.556   5.612   8.678  0.3101 -0.0962  0.4991
   61SAPC  H15Y 4834   3.601   5.789   8.669 -0.3795  1.4463 -1.0854
   61SAPC  C316 4835   3.492   5.738   8.495  0.1316 -0.0478 -0.3912
   61SAPC  H16X 4836   3.476   5.847   8.483 -0.5882 -0.1292 -0.1830
   61SAPC  H16Y 4837   3.410   5.671   8.463 -0.0169  0.6978 -1.6048
   61SAPC  C317 4838   3.619   5.702   8.407  0.0199 -0.3147 -0.0415
   61SAPC  H17X 4839   3.635   5.596   8.436  0.9224 -1.0112 -2.9458
   61SAPC  H17Y 4840   3.706   5.767   8.430  0.0799 -0.5267  0.3312
   61SAPC  C318 4841   3.590   5.704   8.253  0.3109 -0.6871  0.1638
   61SAPC  H18X 4842   3.496   5.653   8.222 -0.3766  0.4867  0.2828
   61SAPC  H18Y 4843   3.674   5.669   8.190 -1.4930 -1.2654 -2.0162
   61SAPC  H18Z 4844   3.570   5.807   8.214 -1.8892 -0.9984  0.3999
   62SAPC     N 4845   1.771   5.099  10.941 -0.0939 -0.1752  0.6256
   62SAPC   C12 4846   1.810   5.099  10.790 -0.4204 -0.2670  0.0931
   62SAPC  H12A 4847   1.735   5.044  10.736  0.5444 -0.8829 -0.6230
   62SAPC  H12B 4848   1.902   5.044  10.785  0.4870  1.2733 -0.5009
   62SAPC   C13 4849   1.822   5.213  11.017  0.0399 -0.3301  0.0248
   62SAPC  H13A 4850   1.811   5.199  11.123 -0.6510 -2.4526 -0.3041
   62SAPC  H13B 4851   1.928   5.224  10.997 -0.1831 -1.4272 -2.0016
   62SAPC  H13C 4852   1.774   5.305  10.986 -1.6631  0.0699  3.6681
   62SAPC   C14 4853   1.618   5.117  10.957 -0.2010 -0.9657  0.5729
   62SAPC  H14A 4854   1.565   5.053  10.888  0.0318  1.7702 -2.2408
   62SAPC  H14B 4855   1.598   5.105  11.063 -0.1815 -2.5964  0.4011
   62SAPC  H14C 4856   1.587   5.214  10.922 -1.6297 -1.7651 -0.4491
   62SAPC   C15 4857   1.808   4.965  10.999  0.4344 -0.2861 -0.0222
   62SAPC  H15A 4858   1.914   4.965  11.022  0.0950 -0.8648  1.6425
   62SAPC  H15B 4859   1.763   4.957  11.097  0.3754  2.1386  0.1775
   62SAPC  H15C 4860   1.775   4.890  10.930 -1.6021 -0.9411  1.6224
   62SAPC   C11 4861   1.834   5.222  10.707  0.8893 -0.0711  0.5768
   62SAPC  H11A 4862   1.846   5.189  10.602  1.7792  0.4041  0.5272
   62SAPC  H11B 4863   1.930   5.272  10.731 -0.1588  0.9611  2.7904
   62SAPC     P 4864   1.589   5.306  10.633 -0.2001  0.2409  0.0257
   62SAPC   O13 4865   1.592   5.195  10.535 -0.2550  0.3205 -0.7345
   62SAPC   O14 4866   1.475   5.318  10.723 -0.0831  0.4774  0.5344
   62SAPC   O12 4867   1.721   5.306  10.720  0.1810  0.0783  0.1549
   62SAPC   O11 4868   1.598   5.447  10.555  0.2439  0.1168 -0.0345
   62SAPC    C1 4869   1.720   5.474  10.476  0.8561  0.5450  0.7292
   62SAPC    HA 4870   1.763   5.575  10.490 -1.2467  1.5156  0.3696
   62SAPC    HB 4871   1.808   5.413  10.505 -2.1617 -2.2217  4.6418
   62SAPC    C2 4872   1.689   5.479  10.324  0.3609 -0.0740  0.0168
   62SAPC    HS 4873   1.779   5.513  10.269 -1.3486  0.7180 -2.4273
   62SAPC   O21 4874   1.577   5.574  10.290 -0.3741 -0.1094 -0.1123
   62SAPC   C21 4875   1.620   5.694  10.268  0.7252 -0.5619  0.8762
   62SAPC   O22 4876   1.734   5.738  10.276  0.2689 -0.3773  0.3822
   62SAPC   C22 4877   1.503   5.786  10.229  0.2870 -0.1182  0.3531
   62SAPC   H2R 4878   1.419   5.735  10.178  2.4937 -2.7664 -0.8117
   62SAPC   H2S 4879   1.465   5.835  10.321 -0.4526 -2.0512  1.1138
   62SAPC    C3 4880   1.655   5.342  10.264 -0.2234  0.8471  0.8898
   62SAPC    HX 4881   1.557   5.316  10.308 -0.6170  1.8033  0.6100
   62SAPC    HY 4882   1.728   5.266  10.297 -0.6050  0.0031 -0.1545
   62SAPC   O31 4883   1.650   5.356  10.120 -0.0894  0.4525 -0.2272
   62SAPC   C31 4884   1.595   5.251  10.060  0.4259  0.5074  0.3201
   62SAPC   O32 4885   1.566   5.139  10.104 -0.3311  0.1533  0.6497
   62SAPC   C32 4886   1.607   5.293   9.913 -0.0565  0.2992 -0.1367
   62SAPC   H2X 4887   1.712   5.327   9.898  0.2577 -0.5757  0.0532
   62SAPC   H2Y 4888   1.548   5.386   9.898  1.5022  1.5005  0.9927
   62SAPC   C23 4889   1.542   5.903  10.132 -0.4863 -0.0657 -0.3735
   62SAPC   H3R 4890   1.610   5.861  10.055 -0.9068  0.7429 -1.1982
   62SAPC   H3S 4891   1.596   5.982  10.188 -0.7809 -0.0653 -0.0884
   62SAPC   C24 4892   1.418   5.969  10.063  0.0655 -0.2513  0.5519
   62SAPC   H4R 4893   1.369   6.037  10.137  0.1210  0.5918 -0.1677
   62SAPC   H4S 4894   1.358   5.883  10.027 -0.2889  0.5532 -0.8489
   62SAPC   C25 4895   1.452   6.060   9.944 -0.4360  0.2153  0.1694
   62SAPC   H5R 4896   1.482   6.162   9.971 -0.8782  0.1769  0.8271
   62SAPC   C26 4897   1.459   6.019   9.815  0.1299  1.4264 -0.1927
   62SAPC   H6R 4898   1.491   6.094   9.741 -0.4364  0.1634 -1.7564
   62SAPC   C27 4899   1.448   5.870   9.774 -0.6352  0.2207  0.1977
   62SAPC   H7R 4900   1.340   5.849   9.756 -0.9198  0.3718  1.6808
   62SAPC   H7S 4901   1.477   5.804   9.859 -1.6972 -1.1168 -0.4666
   62SAPC   C28 4902   1.526   5.838   9.651 -0.5182 -0.7046  0.7174
   62SAPC   H8R 4903   1.625   5.793   9.668 -1.2836 -2.2314  1.2452
   62SAPC   C29 4904   1.494   5.855   9.523 -0.2670 -0.4256 -0.0529
   62SAPC   H9R 4905   1.561   5.812   9.447  1.6952  0.0022  1.3856
   62SAPC  C210 4906   1.358   5.906   9.470 -0.3588  0.3555 -0.0321
   62SAPC  H10R 4907   1.364   6.004   9.419 -0.2640  0.4648  0.1877
   62SAPC  H10S 4908   1.287   5.932   9.552 -0.6001  0.1760 -0.1815
   62SAPC  C211 4909   1.294   5.796   9.385 -0.5192  0.1435 -0.0663
   62SAPC  H11R 4910   1.247   5.713   9.441  0.1813  0.4919  1.0717
   62SAPC  C212 4911   1.297   5.798   9.251  0.1120  0.9480 -0.5026
   62SAPC  H12R 4912   1.244   5.722   9.192 -0.2168  1.2381 -0.5794
   62SAPC  C213 4913   1.361   5.906   9.164  0.2745  0.1754  0.1333
   62SAPC  H13R 4914   1.471   5.893   9.167  0.5513  2.5643  2.9524
   62SAPC  H13S 4915   1.343   6.000   9.220 -1.3227 -0.9460  1.5534
   62SAPC  C214 4916   1.288   5.911   9.035 -0.4322  0.6195  0.1713
   62SAPC  H14R 4917   1.199   5.976   9.036 -0.0805  1.1985 -2.4957
   62SAPC  C215 4918   1.333   5.863   8.918 -0.3650  0.0622 -0.5699
   62SAPC  H15R 4919   1.279   5.877   8.823  0.6374  0.4614 -1.0804
   62SAPC  C216 4920   1.460   5.782   8.900 -0.5458  0.4370  0.6827
   62SAPC  H16R 4921   1.463   5.705   8.980 -0.8057 -0.6352 -0.3389
   62SAPC  H16S 4922   1.553   5.843   8.893 -0.4769  0.1993 -0.4658
   62SAPC  C217 4923   1.466   5.702   8.766  0.1326  0.3929  0.0925
   62SAPC  H17R 4924   1.547   5.626   8.777 -1.5335 -1.4420 -0.0331
   62SAPC  H17S 4925   1.494   5.772   8.684  0.4741  0.1905  0.0324
   62SAPC  C218 4926   1.340   5.623   8.727  0.8327 -0.1068 -0.1145
   62SAPC  H18R 4927   1.258   5.692   8.700 -0.0626 -0.2759  2.0668
   62SAPC  H18S 4928   1.298   5.563   8.811  3.2810 -2.7367 -0.6559
   62SAPC  C219 4929   1.371   5.527   8.612  0.3830 -0.5132 -0.4654
   62SAPC  H19R 4930   1.445   5.455   8.653 -0.6718 -0.7856  0.9734
   62SAPC  H19S 4931   1.421   5.580   8.528 -1.6535  0.9073 -0.8321
   62SAPC  C220 4932   1.246   5.449   8.576  0.0272 -0.2592 -0.4931
   62SAPC  H20R 4933   1.193   5.473   8.482  0.8684 -1.7766 -1.3743
   62SAPC  H20S 4934   1.174   5.453   8.661 -0.3667  0.9878 -0.8726
   62SAPC  H20T 4935   1.278   5.343   8.569 -0.7772 -0.5073 -0.4922
   62SAPC   C33 4936   1.568   5.180   9.820  0.9358 -0.2254  0.1286
   62SAPC   H3X 4937   1.475   5.130   9.854  1.2540 -0.1090  1.1659
   62SAPC   H3Y 4938   1.645   5.100   9.810  1.4269  0.4264 -1.5509
   62SAPC   C34 4939   1.542   5.240   9.678 -0.2560  0.4900  0.7959
   62SAPC   H4X 4940   1.493   5.338   9.693 -0.2487  0.8987 -1.6579
   62SAPC   H4Y 4941   1.469   5.174   9.626 -0.8387  1.3107  0.5779
   62SAPC   C35 4942   1.662   5.261   9.590  0.8649  0.2814  0.1692
   62SAPC   H5X 4943   1.700   5.159   9.565 -2.8488 -2.1269  3.5989
   62SAPC   H5Y 4944   1.734   5.326   9.643  2.8945 -0.2096 -1.9312
   62SAPC   C36 4945   1.619   5.334   9.459 -0.6375 -0.7159 -0.2718
   62SAPC   H6X 4946   1.595   5.436   9.495 -1.6049 -1.3079  0.7892
   62SAPC   H6Y 4947   1.538   5.282   9.404  0.9050 -0.7642 -2.6278
   62SAPC   C37 4948   1.742   5.348   9.367  0.2958 -0.1046 -0.6815
   62SAPC   H7X 4949   1.756   5.243   9.333  0.6310 -0.1718 -0.3392
   62SAPC   H7Y 4950   1.836   5.378   9.418 -1.3384  2.3795  0.9238
   62SAPC   C38 4951   1.722   5.442   9.246  0.0685  0.1340 -0.2369
   62SAPC   H8X 4952   1.812   5.444   9.181  0.1043 -0.8012 -0.2295
   62SAPC   H8Y 4953   1.695   5.540   9.292  2.8451  1.3631 -1.1629
   62SAPC   C39 4954   1.602   5.389   9.160 -0.9874  0.0390  0.3042
   62SAPC   H9X 4955   1.592   5.278   9.168  0.3291  0.0412  2.2599
   62SAPC   H9Y 4956   1.619   5.426   9.057 -0.0526  0.4775  0.6099
   62SAPC  C310 4957   1.471   5.470   9.190 -0.1881 -0.2810  0.0697
   62SAPC  H10X 4958   1.495   5.579   9.179 -2.6367  0.3463  0.8138
   62SAPC  H10Y 4959   1.433   5.446   9.291  0.8843 -1.0583  0.3047
   62SAPC  C311 4960   1.352   5.431   9.098 -0.3570 -0.4130 -0.4568
   62SAPC  H11X 4961   1.382   5.444   8.992  0.5464  0.8127 -0.0693
   62SAPC  H11Y 4962   1.266   5.498   9.121  0.0930 -0.3594  1.1591
   62SAPC  C312 4963   1.309   5.285   9.114  0.3330  0.8079  0.1580
   62SAPC  H12X 4964   1.273   5.266   9.218  2.2108  0.6807  0.8008
   62SAPC  H12Y 4965   1.392   5.211   9.105 -0.1773  0.0633  1.3604
   62SAPC  C313 4966   1.190   5.246   9.027  0.3620  0.4289  0.6889
   62SAPC  H13X 4967   1.156   5.143   9.049 -1.4877  0.3631 -2.2089
   62SAPC  H13Y 4968   1.224   5.243   8.921 -0.3927 -1.2433  0.4757
   62SAPC  C314 4969   1.063   5.332   9.038 -0.3249 -0.2394  0.1430
   62SAPC  H14X 4970   1.096   5.428   8.992 -0.8254 -0.4810 -0.7313
   62SAPC  H14Y 4971   1.028   5.347   9.142 -0.6536 -0.1223  0.0169
   62SAPC  C315 4972   0.949   5.262   8.956  0.0814  0.1013  0.6574
   62SAPC  H15X 4973   0.933   5.168   9.014  0.9300  1.0080  2.4115
   62SAPC  H15Y 4974   0.988   5.241   8.855 -2.9924 -2.2139 -0.1376
   62SAPC  C316 4975   0.816   5.337   8.955 -0.7561 -0.3695 -0.1309
   62SAPC  H16X 4976   0.772   5.358   9.055  4.2343 -0.6846  2.2750
   62SAPC  H16Y 4977   0.747   5.277   8.892 -1.8004  1.8021 -1.1226
   62SAPC  C317 4978   0.825   5.478   8.889  0.1997  0.4250 -0.2565
   62SAPC  H17X 4979   0.905   5.535   8.943  0.2261  0.6341 -0.5157
   62SAPC  H17Y 4980   0.730   5.533   8.909 -0.0254  0.1588 -0.6068
   62SAPC  C318 4981   0.850   5.465   8.740  0.3147  0.2391 -0.1026
   62SAPC  H18X 4982   0.881   5.564   8.701 -3.2336  1.0368 -1.0527
   62SAPC  H18Y 4983   0.760   5.432   8.685 -0.7841  1.5764  0.8521
   62SAPC  H18Z 4984   0.927   5.387   8.721 -1.1626 -1.3697  0.3502
   63SAPC     N 4985   5.249   3.601   6.321 -0.0824  0.3089  0.1512
   63SAPC   C12 4986   5.318   3.736   6.309  0.4609 -0.2181 -0.5896
   63SAPC  H12A 4987   5.248   3.802   6.259  0.8247 -1.2031 -2.4585
   63SAPC  H12B 4988   5.401   3.737   6.240  1.4295 -0.5716  0.5467
   63SAPC   C13 4989   5.143   3.613   6.422 -0.6889 -0.1424 -0.5649
   63SAPC  H13A 4990   5.089   3.521   6.434  1.8860 -1.8214 -1.6054
   63SAPC  H13B 4991   5.180   3.646   6.518 -0.0728 -3.7361  0.4827
   63SAPC  H13C 4992   5.060   3.680   6.404 -1.8453 -1.2234  0.6384
   63SAPC   C14 4993   5.183   3.556   6.187  0.5989 -0.0677 -0.1273
   63SAPC  H14A 4994   5.096   3.616   6.163 -0.6115 -1.2496  1.1684
   63SAPC  H14B 4995   5.257   3.562   6.108  2.4176 -0.7760  1.4910
   63SAPC  H14C 4996   5.156   3.451   6.179  3.0141 -1.1580  4.5922
   63SAPC   C15 4997   5.350   3.491   6.363  0.0908 -0.5889  0.1320
   63SAPC  H15A 4998   5.371   3.499   6.469 -3.2303 -0.8980  0.8671
   63SAPC  H15B 4999   5.310   3.392   6.347  0.4479 -0.5468 -1.0094
   63SAPC  H15C 5000   5.445   3.491   6.312 -0.6848  0.4423 -1.3415
   63SAPC   C11 5001   5.374   3.794   6.436  0.1653  0.0055 -0.5592
   63SAPC  H11A 5002   5.312   3.768   6.524  1.8193 -1.3897  0.2172
   63SAPC  H11B 5003   5.382   3.905   6.437  1.2413 -0.0755  1.1270
   63SAPC     P 5004   5.631   3.752   6.385 -0.0211 -0.2336 -0.5193
   63SAPC   O13 5005   5.730   3.641   6.388 -0.6201 -0.6472  0.1975
   63SAPC   O14 5006   5.598   3.805   6.254  0.4459 -0.5606  0.7556
   63SAPC   O12 5007   5.493   3.721   6.463  0.5699  0.0436  0.1560
   63SAPC   O11 5008   5.698   3.863   6.475  0.2612  0.2514  0.1672
   63SAPC    C1 5009   5.690   3.855   6.617 -0.6172  0.2723 -0.5838
   63SAPC    HA 5010   5.677   3.957   6.659 -3.0274 -0.4230  0.4282
   63SAPC    HB 5011   5.607   3.793   6.656 -0.2456  1.1384  1.6419
   63SAPC    C2 5012   5.827   3.800   6.661 -0.3862 -0.4293 -0.0898
   63SAPC    HS 5013   5.827   3.696   6.623 -4.1293 -0.3910 -0.3964
   63SAPC   O21 5014   5.822   3.793   6.808  0.1219  0.1296 -0.3603
   63SAPC   C21 5015   5.893   3.694   6.864  0.3569  0.1432  0.0090
   63SAPC   O22 5016   5.927   3.589   6.819  0.4538  0.7197  0.2582
   63SAPC   C22 5017   5.902   3.727   7.018  0.1805 -0.0242  0.5689
   63SAPC   H2R 5018   5.976   3.810   7.026 -0.6255  0.6018  1.6667
   63SAPC   H2S 5019   5.801   3.758   7.053  0.5814 -0.5586  2.2139
   63SAPC    C3 5020   5.950   3.887   6.605 -0.1342  0.7418  0.0002
   63SAPC    HX 5021   5.924   3.994   6.623 -0.5386  0.6636 -0.1356
   63SAPC    HY 5022   5.943   3.862   6.497  0.9557 -1.5264  0.4316
   63SAPC   O31 5023   6.072   3.853   6.667  0.2316 -0.4467 -0.1053
   63SAPC   C31 5024   6.130   3.745   6.615  0.1933 -0.0843  0.3320
   63SAPC   O32 5025   6.085   3.665   6.536 -0.0987 -0.5843  0.1006
   63SAPC   C32 5026   6.263   3.716   6.683 -0.2956 -0.1740 -0.1285
   63SAPC   H2X 5027   6.274   3.610   6.654  1.2439  0.1717 -0.8885
   63SAPC   H2Y 5028   6.258   3.726   6.793 -0.1046 -2.2475  0.0738
   63SAPC   C23 5029   5.942   3.608   7.113  0.1781 -0.6611  0.4632
   63SAPC   H3R 5030   6.033   3.572   7.061  0.3243  0.3270  0.0299
   63SAPC   H3S 5031   5.859   3.534   7.110 -0.6782  0.2340  1.6982
   63SAPC   C24 5032   5.992   3.646   7.254  0.3653 -0.4618  0.4438
   63SAPC   H4R 5033   5.916   3.715   7.294  0.4598 -0.4447  0.5928
   63SAPC   H4S 5034   6.090   3.698   7.247  0.5844 -0.7184  1.5412
   63SAPC   C25 5035   5.999   3.527   7.337 -0.1326  0.0990 -0.0225
   63SAPC   H5R 5036   5.980   3.428   7.294 -1.4104 -0.0092  0.7516
   63SAPC   C26 5037   6.044   3.527   7.458 -0.0255 -0.6306 -0.4071
   63SAPC   H6R 5038   6.037   3.430   7.511 -1.5337  0.4555  1.4656
   63SAPC   C27 5039   6.078   3.652   7.540  0.1983  0.2208  0.8734
   63SAPC   H7R 5040   5.999   3.728   7.521  2.1572  1.8957 -0.8859
   63SAPC   H7S 5041   6.161   3.693   7.479  0.0423 -1.4372 -0.4891
   63SAPC   C28 5042   6.116   3.642   7.686  0.1284 -0.0109 -0.0894
   63SAPC   H8R 5043   6.225   3.638   7.700 -0.0018 -2.0821  0.5247
   63SAPC   C29 5044   6.035   3.640   7.793 -0.5899  0.3369  0.5745
   63SAPC   H9R 5045   6.074   3.637   7.896  1.9249  1.0141 -0.3277
   63SAPC  C210 5046   5.885   3.659   7.787 -0.6576 -0.7937  0.4908
   63SAPC  H10R 5047   5.850   3.645   7.683  0.1794 -0.9094  0.2224
   63SAPC  H10S 5048   5.859   3.762   7.819  0.7942  0.1689 -1.3701
   63SAPC  C211 5049   5.794   3.568   7.868 -1.6073 -0.2698  0.1626
   63SAPC  H11R 5050   5.733   3.497   7.811 -2.7363  0.3926  0.5233
   63SAPC  C212 5051   5.775   3.579   8.001  0.6432 -0.1334  0.3649
   63SAPC  H12R 5052   5.701   3.523   8.061  0.3187 -0.3727 -0.2549
   63SAPC  C213 5053   5.836   3.684   8.088  0.2625  0.1636  0.2792
   63SAPC  H13R 5054   5.904   3.755   8.037  1.1239 -0.5513  0.4179
   63SAPC  H13S 5055   5.896   3.624   8.160 -0.9684  2.2709  3.1715
   63SAPC  C214 5056   5.743   3.766   8.172 -0.0645 -0.1324  0.0373
   63SAPC  H14R 5057   5.665   3.819   8.116 -1.2091 -0.2515  1.4936
   63SAPC  C215 5058   5.753   3.787   8.308 -0.3394  0.3755  0.7610
   63SAPC  H15R 5059   5.669   3.847   8.347  0.2079  2.3303 -1.0234
   63SAPC  C216 5060   5.850   3.715   8.398 -0.0554  0.6366 -0.1253
   63SAPC  H16R 5061   5.935   3.779   8.430  0.9489 -0.9283  0.4017
   63SAPC  H16S 5062   5.887   3.617   8.359 -1.2692 -0.5731  1.6890
   63SAPC  C217 5063   5.794   3.659   8.535 -0.4028  0.6651 -0.3757
   63SAPC  H17R 5064   5.729   3.738   8.578 -0.7895  0.2691 -0.2319
   63SAPC  H17S 5065   5.873   3.618   8.601 -0.0779  0.0872 -1.1122
   63SAPC  C218 5066   5.696   3.536   8.528 -0.5589  0.3504 -0.2004
   63SAPC  H18R 5067   5.745   3.460   8.463 -0.3260  1.0807 -0.8778
   63SAPC  H18S 5068   5.615   3.553   8.454 -0.8324 -1.1975 -0.2749
   63SAPC  C219 5069   5.642   3.492   8.667  0.4716 -0.6136 -0.0032
   63SAPC  H19R 5070   5.726   3.445   8.723  0.6743 -1.0914 -0.6881
   63SAPC  H19S 5071   5.562   3.416   8.654 -0.3408  0.5998 -2.2454
   63SAPC  C220 5072   5.567   3.597   8.753 -0.1642 -1.0200  0.0230
   63SAPC  H20R 5073   5.543   3.562   8.855 -0.1694  0.9127  0.6938
   63SAPC  H20S 5074   5.478   3.644   8.707 -0.7426 -0.0989  2.0357
   63SAPC  H20T 5075   5.643   3.676   8.769 -2.5457  1.1553  0.9231
   63SAPC   C33 5076   6.368   3.807   6.611  0.2070 -0.5625  0.3820
   63SAPC   H3X 5077   6.353   3.814   6.501  1.0674  1.1699  0.3532
   63SAPC   H3Y 5078   6.467   3.762   6.631  0.3955 -0.0992  0.4939
   63SAPC   C34 5079   6.382   3.958   6.647  0.3229  0.6389 -0.7426
   63SAPC   H4X 5080   6.277   3.992   6.634 -0.0717 -0.9212 -1.7223
   63SAPC   H4Y 5081   6.444   4.017   6.576  1.2099 -2.2285 -2.4186
   63SAPC   C35 5082   6.429   3.992   6.789 -0.1482 -0.4106  0.1431
   63SAPC   H5X 5083   6.356   3.976   6.871 -0.8202 -0.5512 -0.4714
   63SAPC   H5Y 5084   6.471   4.094   6.782 -0.9217 -0.0958  0.0635
   63SAPC   C36 5085   6.541   3.900   6.833  0.5229  0.2043 -0.3136
   63SAPC   H6X 5086   6.618   3.878   6.755 -0.4313 -1.5689 -0.7854
   63SAPC   H6Y 5087   6.503   3.800   6.863 -1.6238  1.0594 -0.1282
   63SAPC   C37 5088   6.610   3.954   6.962  0.2198 -0.2512 -0.6403
   63SAPC   H7X 5089   6.671   4.045   6.941  2.5109 -1.7675 -0.7626
   63SAPC   H7Y 5090   6.680   3.878   7.003 -0.1854 -0.3699 -0.1634
   63SAPC   C38 5091   6.514   4.004   7.069 -0.0721  0.3073 -0.2425
   63SAPC   H8X 5092   6.434   3.928   7.078 -0.2142  0.1298 -2.5784
   63SAPC   H8Y 5093   6.472   4.100   7.033 -0.6314  0.2853  0.3474
   63SAPC   C39 5094   6.579   4.031   7.203  0.6071 -0.1445 -0.2422
   63SAPC   H9X 5095   6.639   3.941   7.227  0.4544 -0.3126 -0.5037
   63SAPC   H9Y 5096   6.507   4.039   7.287  0.4891 -0.4858 -0.3124
   63SAPC  C310 5097   6.661   4.158   7.213  0.1046 -0.1933 -0.5897
   63SAPC  H10X 5098   6.599   4.247   7.236  1.4214 -0.0521  2.6912
   63SAPC  H10Y 5099   6.715   4.176   7.117  0.2646  1.6367 -0.1713
   63SAPC  C311 5100   6.783   4.159   7.305 -0.8852  0.2201  1.3920
   63SAPC  H11X 5101   6.847   4.251   7.301 -2.2378  1.0729 -1.4432
   63SAPC  H11Y 5102   6.862   4.086   7.278 -0.1438  1.5401 -0.0816
   63SAPC  C312 5103   6.747   4.143   7.450  0.0549 -0.1130 -0.1430
   63SAPC  H12X 5104   6.698   4.044   7.450  0.7393 -0.4916 -2.5123
   63SAPC  H12Y 5105   6.666   4.214   7.480  2.3781  1.4219  2.7300
   63SAPC  C313 5106   6.863   4.142   7.554 -0.1891  0.3271 -0.1867
   63SAPC  H13X 5107   6.896   4.248   7.558 -2.1376  0.9741 -0.8039
   63SAPC  H13Y 5108   6.939   4.085   7.498 -0.6706  2.0663 -2.6509
   63SAPC  C314 5109   6.838   4.074   7.688 -0.0265  0.2937  0.0294
   63SAPC  H14X 5110   6.813   3.970   7.660  0.5899 -0.4650  2.1938
   63SAPC  H14Y 5111   6.742   4.115   7.727 -0.3606 -1.5223  1.1847
   63SAPC  C315 5112   6.947   4.086   7.791  0.3282 -0.3216 -0.4250
   63SAPC  H15X 5113   6.974   4.191   7.814 -3.4218  0.8679 -1.1853
   63SAPC  H15Y 5114   7.036   4.025   7.764  0.6559 -0.1202  0.1993
   63SAPC  C316 5115   6.914   4.017   7.930  0.2774  0.5469  0.2949
   63SAPC  H16X 5116   6.894   3.911   7.905 -0.9408  0.9079 -0.2847
   63SAPC  H16Y 5117   6.821   4.062   7.969  1.7686  3.6698  0.4013
   63SAPC  C317 5118   7.017   4.033   8.042  0.6170 -1.1347 -0.4974
   63SAPC  H17X 5119   7.124   4.038   8.011  1.1921  0.3310  1.6117
   63SAPC  H17Y 5120   7.009   3.936   8.095 -3.7495 -0.1568  0.8354
   63SAPC  C318 5121   6.984   4.154   8.134  0.2901 -0.2564  0.8457
   63SAPC  H18X 5122   6.876   4.180   8.130  0.3414 -0.1977 -0.2778
   63SAPC  H18Y 5123   7.037   4.246   8.101 -0.5153 -0.6366 -1.6297
   63SAPC  H18Z 5124   6.998   4.128   8.241  2.2965 -1.1241  0.3950
   64SAPC     N 5125   1.996   4.602   6.100  0.4666  0.5586  0.0803
   64SAPC   C12 5126   2.068   4.478   6.035  0.7917 -0.2691 -0.0713
   64SAPC  H12A 5127   2.125   4.429   6.112  0.1211 -0.1035  0.5446
   64SAPC  H12B 5128   2.136   4.518   5.962  0.2395  2.5223  0.8594
   64SAPC   C13 5129   1.927   4.548   6.223  0.1149 -0.4674 -0.0681
   64SAPC  H13A 5130   1.890   4.632   6.279 -1.0462 -0.8512 -0.2403
   64SAPC  H13B 5131   1.842   4.485   6.199  0.1656  0.0588 -1.7339
   64SAPC  H13C 5132   2.006   4.497   6.276  0.1539 -0.2807  0.0508
   64SAPC   C14 5133   2.094   4.704   6.142  0.2717  0.7863  0.1195
   64SAPC  H14A 5134   2.169   4.721   6.066  0.6326  1.8803  0.6995
   64SAPC  H14B 5135   2.050   4.798   6.171 -1.6400  0.1386 -0.6516
   64SAPC  H14C 5136   2.146   4.657   6.225  1.0586  2.3429  0.5324
   64SAPC   C15 5137   1.895   4.656   6.002  0.3794  0.5760 -0.0655
   64SAPC  H15A 5138   1.798   4.608   5.997  1.1032 -0.7430 -2.0081
   64SAPC  H15B 5139   1.875   4.758   6.029  1.9975  0.4815  1.5366
   64SAPC  H15C 5140   1.926   4.641   5.899  0.0859  0.5347 -0.1488
   64SAPC   C11 5141   1.978   4.373   5.960 -0.0418 -0.4069 -0.5324
   64SAPC  H11A 5142   2.039   4.285   5.931 -1.1007 -1.8255  1.4461
   64SAPC  H11B 5143   1.949   4.405   5.858  0.7332 -0.9809 -0.9328
   64SAPC     P 5144   1.831   4.201   6.097 -0.1206 -0.2467  0.1071
   64SAPC   O13 5145   1.829   4.097   5.995 -0.5741  0.5614 -0.1392
   64SAPC   O14 5146   1.916   4.179   6.214  0.8180 -0.3144  0.0181
   64SAPC   O12 5147   1.859   4.338   6.040 -0.3683  0.1150  0.0482
   64SAPC   O11 5148   1.674   4.216   6.150  0.0750 -0.0823  0.6375
   64SAPC    C1 5149   1.640   4.320   6.242 -0.1265  0.0593  0.2997
   64SAPC    HA 5150   1.729   4.372   6.282  1.7577 -1.9939 -1.0805
   64SAPC    HB 5151   1.580   4.400   6.195  0.6907  1.3620  1.4544
   64SAPC    C2 5152   1.566   4.275   6.376 -0.8414  0.6615  0.2187
   64SAPC    HS 5153   1.552   4.366   6.437  0.2652  0.8246  0.2273
   64SAPC   O21 5154   1.640   4.175   6.441 -0.0690 -0.0901  0.1580
   64SAPC   C21 5155   1.741   4.225   6.516 -0.4660  0.3484  0.5396
   64SAPC   O22 5156   1.753   4.346   6.543 -0.0794  0.8131  0.1981
   64SAPC   C22 5157   1.830   4.109   6.573 -0.2354 -0.7949 -0.0974
   64SAPC   H2R 5158   1.794   4.006   6.555 -1.2505 -0.7207  1.4522
   64SAPC   H2S 5159   1.930   4.114   6.524  0.0905 -2.3167  0.3880
   64SAPC    C3 5160   1.431   4.209   6.338  0.3054  0.3799  0.0417
   64SAPC    HX 5161   1.440   4.110   6.289  0.2662  0.6974 -0.6086
   64SAPC    HY 5162   1.375   4.274   6.268  1.9805  0.9992 -0.7685
   64SAPC   O31 5163   1.353   4.193   6.453 -0.3096 -0.6707  0.0098
   64SAPC   C31 5164   1.369   4.086   6.527 -0.0864 -0.7248 -0.1086
   64SAPC   O32 5165   1.447   3.995   6.510  0.5783 -0.4898  0.0039
   64SAPC   C32 5166   1.268   4.096   6.643  0.1067  0.4582 -0.1313
   64SAPC   H2X 5167   1.307   4.016   6.710 -2.3479 -2.0339 -1.6139
   64SAPC   H2Y 5168   1.173   4.055   6.604  0.5521 -1.4468  0.7051
   64SAPC   C23 5169   1.864   4.117   6.723 -0.0245 -0.6066 -0.5980
   64SAPC   H3R 5170   1.934   4.202   6.739  0.4512 -0.6886 -2.1011
   64SAPC   H3S 5171   1.920   4.023   6.742  0.0470 -0.6924 -1.2123
   64SAPC   C24 5172   1.744   4.139   6.813 -0.0462  1.1872  1.0416
   64SAPC   H4R 5173   1.690   4.225   6.768  1.1958  0.2511 -2.4200
   64SAPC   H4S 5174   1.792   4.163   6.910  4.8203  0.6118 -1.0845
   64SAPC   C25 5175   1.654   4.014   6.825 -0.6035 -0.8337 -0.6218
   64SAPC   H5R 5176   1.604   3.995   6.729  1.1009 -0.6617 -1.5716
   64SAPC   C26 5177   1.648   3.931   6.930 -0.0110  0.1985  0.7405
   64SAPC   H6R 5178   1.594   3.835   6.923  0.3764  0.0758 -0.9172
   64SAPC   C27 5179   1.718   3.953   7.064  0.3200 -0.1432  0.1347
   64SAPC   H7R 5180   1.827   3.969   7.047 -0.0198  0.2537 -1.8135
   64SAPC   H7S 5181   1.734   3.854   7.112 -0.4739 -0.2261  0.2257
   64SAPC   C28 5182   1.644   4.054   7.146 -0.3785 -0.0917  0.1791
   64SAPC   H8R 5183   1.575   4.121   7.093 -1.3862  0.0122  1.5738
   64SAPC   C29 5184   1.638   4.042   7.280  1.0472  0.1437  0.5333
   64SAPC   H9R 5185   1.576   4.119   7.328  0.7892 -0.3139  0.9430
   64SAPC  C210 5186   1.709   3.943   7.377  0.3263  0.8832  0.7827
   64SAPC  H10R 5187   1.812   3.975   7.403  2.4870 -3.5902 -1.7427
   64SAPC  H10S 5188   1.721   3.839   7.339 -2.0243  1.0781 -0.6211
   64SAPC  C211 5189   1.634   3.950   7.505 -0.2606  0.0712  0.7180
   64SAPC  H11R 5190   1.534   3.994   7.502 -0.1620  0.2250 -2.7860
   64SAPC  C212 5191   1.683   3.901   7.623  0.5739  0.8911  0.1477
   64SAPC  H12R 5192   1.624   3.927   7.712  0.7733  2.3889 -0.1361
   64SAPC  C213 5193   1.805   3.818   7.650  0.0148  0.8175 -0.3848
   64SAPC  H13R 5194   1.860   3.801   7.556 -1.5156 -2.7859 -0.7303
   64SAPC  H13S 5195   1.774   3.716   7.683  1.0247  0.6372  0.0130
   64SAPC  C214 5196   1.907   3.878   7.736 -0.9276  0.1789  0.1414
   64SAPC  H14R 5197   1.985   3.930   7.677 -1.2777 -1.2862 -1.6804
   64SAPC  C215 5198   1.907   3.891   7.874 -0.3890  0.0147  0.2968
   64SAPC  H15R 5199   2.002   3.929   7.916 -1.0286  1.0145  0.8536
   64SAPC  C216 5200   1.806   3.834   7.969  0.0287 -0.1441 -0.0596
   64SAPC  H16R 5201   1.825   3.730   8.003 -0.3036 -0.1641  0.0678
   64SAPC  H16S 5202   1.704   3.830   7.924 -1.3558  0.1525  2.9212
   64SAPC  C217 5203   1.780   3.929   8.084 -0.3294  0.1843 -0.1999
   64SAPC  H17R 5204   1.744   4.022   8.037  0.4132  1.2086  1.2071
   64SAPC  H17S 5205   1.870   3.945   8.148 -0.2881  0.0016 -0.2102
   64SAPC  C218 5206   1.670   3.879   8.182 -0.4808  0.0819  0.1881
   64SAPC  H18R 5207   1.662   3.769   8.196 -0.9673  0.1839  0.7580
   64SAPC  H18S 5208   1.574   3.917   8.141  0.2791  0.7637 -0.9712
   64SAPC  C219 5209   1.695   3.947   8.319  0.5796  0.0384 -0.4118
   64SAPC  H19R 5210   1.726   4.052   8.304 -2.4953  1.0141 -0.4171
   64SAPC  H19S 5211   1.782   3.897   8.366 -0.9787 -0.3570  2.1941
   64SAPC  C220 5212   1.570   3.942   8.400  0.5692  0.5843 -0.2619
   64SAPC  H20R 5213   1.595   3.994   8.495 -2.2025  0.6681  0.4602
   64SAPC  H20S 5214   1.552   3.843   8.447  0.3759  1.2774  1.1475
   64SAPC  H20T 5215   1.480   3.983   8.349  1.1360  1.3144 -0.6944
   64SAPC   C33 5216   1.267   4.230   6.702 -0.4791  0.2375 -0.2375
   64SAPC   H3X 5217   1.213   4.233   6.800 -0.4111  1.2228 -0.2313
   64SAPC   H3Y 5218   1.213   4.311   6.649 -1.8449 -0.1226  0.5597
   64SAPC   C34 5219   1.407   4.286   6.745 -0.3704  0.4546  0.8616
   64SAPC   H4X 5220   1.460   4.324   6.655 -1.5004  0.2556  0.1032
   64SAPC   H4Y 5221   1.468   4.206   6.792 -0.2032 -0.5358 -1.0003
   64SAPC   C35 5222   1.409   4.405   6.834  0.5321 -0.0157 -0.9306
   64SAPC   H5X 5223   1.361   4.494   6.789  0.6759  0.0458 -0.9623
   64SAPC   H5Y 5224   1.513   4.441   6.847 -0.6242  3.2676 -0.3408
   64SAPC   C36 5225   1.347   4.385   6.975 -0.5122  0.0752  0.5551
   64SAPC   H6X 5226   1.385   4.292   7.022 -3.2291 -1.9079 -0.9853
   64SAPC   H6Y 5227   1.238   4.362   6.967 -0.0912 -0.9349 -3.9371
   64SAPC   C37 5228   1.384   4.506   7.065  0.1210 -0.5450  0.2355
   64SAPC   H7X 5229   1.355   4.604   7.021 -1.7916 -1.3519 -0.3722
   64SAPC   H7Y 5230   1.494   4.522   7.065 -0.0795  1.0106  2.7767
   64SAPC   C38 5231   1.317   4.498   7.198 -0.6268 -0.0696  0.0422
   64SAPC   H8X 5232   1.299   4.390   7.220  0.8800  0.1265  2.3484
   64SAPC   H8Y 5233   1.220   4.552   7.196 -1.6299 -1.8430 -2.2230
   64SAPC   C39 5234   1.408   4.564   7.303  0.0308 -0.2680 -0.4090
   64SAPC   H9X 5235   1.446   4.658   7.258  0.4572 -1.1419 -1.9372
   64SAPC   H9Y 5236   1.502   4.507   7.314  1.1859  1.5001 -0.9987
   64SAPC  C310 5237   1.345   4.577   7.444  0.1891 -0.4263  0.2762
   64SAPC  H10X 5238   1.343   4.474   7.486  2.4291  0.7940  3.5948
   64SAPC  H10Y 5239   1.243   4.618   7.428 -0.4634 -1.2520  2.2074
   64SAPC  C311 5240   1.427   4.662   7.540 -0.4273 -0.4619  0.0437
   64SAPC  H11X 5241   1.428   4.770   7.513  1.2690 -1.0515 -2.3238
   64SAPC  H11Y 5242   1.533   4.636   7.522  0.0753  2.5185 -1.6617
   64SAPC  C312 5243   1.401   4.628   7.683  0.0837  0.8218 -0.4874
   64SAPC  H12X 5244   1.477   4.657   7.759 -0.1719 -0.2507  0.1893
   64SAPC  H12Y 5245   1.409   4.520   7.705  1.3870  1.4325  2.2601
   64SAPC  C313 5246   1.272   4.684   7.741  0.0665 -0.1142  0.2523
   64SAPC  H13X 5247   1.182   4.664   7.680  0.0996  0.0355  0.1536
   64SAPC  H13Y 5248   1.285   4.795   7.743 -0.3304 -0.0853  2.5487
   64SAPC  C314 5249   1.248   4.623   7.888 -0.1983 -0.7033  0.0578
   64SAPC  H14X 5250   1.334   4.667   7.943  0.7588  2.7101 -3.8939
   64SAPC  H14Y 5251   1.241   4.513   7.878 -0.6175 -0.7566  0.8997
   64SAPC  C315 5252   1.128   4.687   7.952  0.3709  0.3022  0.1975
   64SAPC  H15X 5253   1.047   4.691   7.877  0.3244 -1.0550  0.1569
   64SAPC  H15Y 5254   1.156   4.792   7.974  2.1616 -0.3274  1.0904
   64SAPC  C316 5255   1.069   4.619   8.080 -0.9306  0.3205  0.3351
   64SAPC  H16X 5256   1.145   4.607   8.160 -0.3470  0.3395 -0.2084
   64SAPC  H16Y 5257   1.032   4.517   8.056 -2.5853  1.2295 -1.1267
   64SAPC  C317 5258   0.957   4.707   8.140 -0.1283  0.3661 -0.2136
   64SAPC  H17X 5259   0.900   4.629   8.195  1.6663 -0.4758  0.5107
   64SAPC  H17Y 5260   0.894   4.758   8.064  0.0433 -0.1493 -0.7045
   64SAPC  C318 5261   1.006   4.818   8.227 -0.9195 -0.3726  0.2869
   64SAPC  H18X 5262   1.077   4.776   8.302  2.2176  0.1308 -2.2728
   64SAPC  H18Y 5263   0.920   4.866   8.279 -0.0966 -0.4955  1.8103
   64SAPC  H18Z 5264   1.065   4.897   8.175  2.1509 -2.8858 -0.2058
   65SAPC     N 5265   2.110   6.434   6.082  0.0968 -0.0701 -0.1553
   65SAPC   C12 5266   2.041   6.366   6.204  0.8829 -0.7611  0.2495
   65SAPC  H12A 5267   2.055   6.422   6.295 -0.4126  1.2974 -0.7878
   65SAPC  H12B 5268   2.087   6.269   6.210  0.1327 -1.1938 -0.8457
   65SAPC   C13 5269   2.049   6.565   6.047  0.1980  0.0443  0.2794
   65SAPC  H13A 5270   2.106   6.621   5.975  1.0957  1.8785  2.3404
   65SAPC  H13B 5271   1.949   6.545   6.012  0.6674  1.6864 -2.0728
   65SAPC  H13C 5272   2.037   6.634   6.130  1.3828  1.2389 -0.5280
   65SAPC   C14 5273   2.256   6.451   6.110  0.0861  0.2467 -0.5085
   65SAPC  H14A 5274   2.257   6.514   6.197 -3.4740 -0.9682  0.4965
   65SAPC  H14B 5275   2.307   6.358   6.127 -1.3345 -0.3623  0.4679
   65SAPC  H14C 5276   2.307   6.497   6.026  0.1219  2.2963  0.5951
   65SAPC   C15 5277   2.088   6.344   5.960 -0.3864  0.3945 -0.3161
   65SAPC  H15A 5278   1.986   6.350   5.925 -0.1680 -1.4803 -1.3489
   65SAPC  H15B 5279   2.143   6.388   5.879 -1.8816  1.8049 -0.5949
   65SAPC  H15C 5280   2.119   6.241   5.970  1.3092  0.9370  0.0444
   65SAPC   C11 5281   1.888   6.329   6.204 -0.5389 -0.3374 -0.2572
   65SAPC  H11A 5282   1.868   6.254   6.283 -0.1661 -0.5728 -0.3845
   65SAPC  H11B 5283   1.868   6.284   6.104 -0.3921  1.5333 -1.1529
   65SAPC     P 5284   1.655   6.452   6.178 -0.3902  0.0569 -0.2963
   65SAPC   O13 5285   1.577   6.550   6.253 -0.1616  0.7004 -0.4386
   65SAPC   O14 5286   1.682   6.480   6.035  0.0673  0.1195 -0.4578
   65SAPC   O12 5287   1.804   6.446   6.236 -0.3252  0.2845 -0.2970
   65SAPC   O11 5288   1.601   6.298   6.191  0.5715 -0.4121 -0.1407
   65SAPC    C1 5289   1.497   6.279   6.298 -0.3610  0.0185 -0.5294
   65SAPC    HA 5290   1.416   6.355   6.290 -1.3955 -1.2236 -2.1471
   65SAPC    HB 5291   1.446   6.185   6.266 -0.6154 -0.1282  0.3098
   65SAPC    C2 5292   1.551   6.259   6.442  0.0690  0.1343  0.0593
   65SAPC    HS 5293   1.607   6.351   6.466 -0.4209 -0.2273  2.7491
   65SAPC   O21 5294   1.627   6.136   6.436  0.1485 -0.0469 -0.1105
   65SAPC   C21 5295   1.731   6.142   6.513  0.1722  0.3800  0.3547
   65SAPC   O22 5296   1.762   6.223   6.596  0.0576  0.1643  0.1885
   65SAPC   C22 5297   1.817   6.026   6.470  0.2135 -0.0021 -0.2714
   65SAPC   H2R 5298   1.769   5.926   6.475 -1.7595  1.0002  1.5417
   65SAPC   H2S 5299   1.859   6.045   6.369 -0.3899  1.8401 -0.1800
   65SAPC    C3 5300   1.444   6.259   6.551  1.0468 -0.1287 -0.0992
   65SAPC    HX 5301   1.373   6.176   6.528  0.6656  1.3267 -4.5988
   65SAPC    HY 5302   1.388   6.354   6.537 -2.5393 -1.8414  1.8599
   65SAPC   O31 5303   1.491   6.234   6.687  0.2673  0.3035 -0.0659
   65SAPC   C31 5304   1.549   6.346   6.743 -0.9204  0.0241 -0.0789
   65SAPC   O32 5305   1.565   6.455   6.688  0.0758 -0.5199 -0.2246
   65SAPC   C32 5306   1.576   6.306   6.886  0.0770 -0.0457 -0.5367
   65SAPC   H2X 5307   1.664   6.238   6.887 -0.2785 -0.4942  1.1867
   65SAPC   H2Y 5308   1.486   6.251   6.920 -0.3519  2.2470  2.1704
   65SAPC   C23 5309   1.944   6.025   6.560  0.0302 -1.3137 -0.0744
   65SAPC   H3R 5310   2.002   6.119   6.560 -1.0448 -0.6288 -2.6218
   65SAPC   H3S 5311   2.017   5.951   6.520  0.0956 -0.4119 -1.6722
   65SAPC   C24 5312   1.929   5.978   6.706 -0.2334  1.3908 -0.1039
   65SAPC   H4R 5313   1.835   6.020   6.746 -1.2786 -1.4491  0.5877
   65SAPC   H4S 5314   2.013   6.020   6.765 -1.4206 -0.2562  2.8894
   65SAPC   C25 5315   1.914   5.827   6.715  0.4342  0.4624 -0.5808
   65SAPC   H5R 5316   1.921   5.769   6.622 -0.8833 -1.4869  0.5044
   65SAPC   C26 5317   1.906   5.772   6.845 -0.5355  0.4509 -0.6079
   65SAPC   H6R 5318   1.891   5.667   6.874 -1.9127  1.6297  3.2429
   65SAPC   C27 5319   1.904   5.860   6.971  0.4112 -0.3445 -0.4633
   65SAPC   H7R 5320   1.831   5.942   6.954 -0.3104 -1.2632 -1.9500
   65SAPC   H7S 5321   2.004   5.908   6.960  0.6844  0.0893  3.4742
   65SAPC   C28 5322   1.907   5.809   7.113 -0.9222  0.0243  0.6390
   65SAPC   H8R 5323   1.935   5.704   7.129 -1.2127 -0.3118 -0.9828
   65SAPC   C29 5324   1.881   5.890   7.219 -0.5178  0.3675 -0.9444
   65SAPC   H9R 5325   1.877   5.835   7.315  2.8798 -3.2522 -2.7282
   65SAPC  C210 5326   1.851   6.043   7.225  0.7415  0.0878 -0.1750
   65SAPC  H10R 5327   1.884   6.094   7.133  0.1822  2.9889  1.1678
   65SAPC  H10S 5328   1.918   6.082   7.305 -0.5126 -2.5288  2.2860
   65SAPC  C211 5329   1.711   6.075   7.254  0.1886  0.3340  0.1521
   65SAPC  H11R 5330   1.656   6.130   7.176 -1.2156  0.0174  0.9042
   65SAPC  C212 5331   1.643   6.069   7.368  0.4806  0.4589 -0.1113
   65SAPC  H12R 5332   1.538   6.101   7.375  0.2983  0.0285 -0.9050
   65SAPC  C213 5333   1.694   6.013   7.500 -0.2123 -0.2934  0.2252
   65SAPC  H13R 5334   1.663   6.086   7.578  1.5757  1.0059 -0.2542
   65SAPC  H13S 5335   1.805   6.014   7.496 -0.1444 -2.7934  0.8175
   65SAPC  C214 5336   1.651   5.882   7.551 -1.0379 -0.3941  0.7726
   65SAPC  H14R 5337   1.633   5.809   7.471  2.2925  0.2833 -0.6698
   65SAPC  C215 5338   1.632   5.832   7.677  0.4923  0.2116 -0.5493
   65SAPC  H15R 5339   1.603   5.726   7.681  1.2699 -0.0842 -2.1879
   65SAPC  C216 5340   1.650   5.911   7.808  0.2422  0.7901  0.3781
   65SAPC  H16R 5341   1.627   6.020   7.802 -1.2820  0.4058 -1.0035
   65SAPC  H16S 5342   1.755   5.904   7.842  0.2820 -1.4768 -0.1710
   65SAPC  C217 5343   1.551   5.860   7.914 -0.2050  0.2012  0.6537
   65SAPC  H17R 5344   1.557   5.750   7.932 -1.5607 -0.0746 -0.4132
   65SAPC  H17S 5345   1.449   5.881   7.876  0.4270 -0.5632 -1.6178
   65SAPC  C218 5346   1.585   5.934   8.043  0.0368  0.0670  0.2121
   65SAPC  H18R 5347   1.613   6.040   8.024 -2.6867  0.7599 -0.1027
   65SAPC  H18S 5348   1.677   5.882   8.079  0.7470 -0.2091 -1.9173
   65SAPC  C219 5349   1.480   5.921   8.153  0.8691  0.2520  0.1593
   65SAPC  H19R 5350   1.455   5.814   8.175  2.8083 -0.7162 -2.1686
   65SAPC  H19S 5351   1.388   5.967   8.113  1.2066  1.9784  1.3089
   65SAPC  C220 5352   1.524   5.978   8.295  0.3467 -0.2256  0.4194
   65SAPC  H20R 5353   1.608   5.930   8.348  0.2979  1.6685  2.2364
   65SAPC  H20S 5354   1.428   5.992   8.350 -0.6191 -0.0760 -1.2542
   65SAPC  H20T 5355   1.562   6.080   8.274  1.7959 -0.7898  0.2934
   65SAPC   C33 5356   1.585   6.428   6.975 -0.2910  0.8494  0.2788
   65SAPC   H3X 5357   1.505   6.498   6.945 -0.6570 -0.3895 -1.7471
   65SAPC   H3Y 5358   1.680   6.481   6.951 -0.8630  1.2197 -1.1905
   65SAPC   C34 5359   1.581   6.404   7.126  0.1231  0.3635 -0.0429
   65SAPC   H4X 5360   1.676   6.371   7.172 -0.8783 -1.7039  0.6241
   65SAPC   H4Y 5361   1.512   6.320   7.151 -1.5572  1.3851 -1.1437
   65SAPC   C35 5362   1.531   6.515   7.217 -0.4534  1.0902  0.1121
   65SAPC   H5X 5363   1.439   6.560   7.174 -0.3180  1.6159  0.3740
   65SAPC   H5Y 5364   1.607   6.596   7.210 -1.3878  1.9717  0.1960
   65SAPC   C36 5365   1.516   6.470   7.365  0.6177 -0.4457  0.4108
   65SAPC   H6X 5366   1.491   6.553   7.433  1.4193  0.4808 -0.4045
   65SAPC   H6Y 5367   1.614   6.429   7.396 -0.4221 -0.4712  3.8270
   65SAPC   C37 5368   1.404   6.371   7.392 -0.6075  0.0851 -0.1097
   65SAPC   H7X 5369   1.410   6.276   7.334 -2.0171  0.3835 -0.7570
   65SAPC   H7Y 5370   1.305   6.415   7.370 -1.1093 -0.9350  0.0890
   65SAPC   C38 5371   1.406   6.331   7.539  0.4390  0.0432  0.1981
   65SAPC   H8X 5372   1.508   6.293   7.564 -0.5107 -2.8733 -0.0765
   65SAPC   H8Y 5373   1.343   6.239   7.546  0.9444 -0.4630 -1.6782
   65SAPC   C39 5374   1.361   6.445   7.633  0.1196  0.2443  0.2159
   65SAPC   H9X 5375   1.284   6.505   7.580  0.2031  1.0509  0.9914
   65SAPC   H9Y 5376   1.448   6.513   7.644  1.3580 -0.7844 -2.7934
   65SAPC  C310 5377   1.312   6.410   7.780  0.0311 -0.3228 -0.7754
   65SAPC  H10X 5378   1.221   6.347   7.767  0.5922 -0.7894 -2.6654
   65SAPC  H10Y 5379   1.290   6.500   7.840 -3.6168 -1.9177  0.4381
   65SAPC  C311 5380   1.409   6.334   7.870 -0.8377  0.3065 -0.0648
   65SAPC  H11X 5381   1.493   6.403   7.893  0.1202 -0.5451 -1.0201
   65SAPC  H11Y 5382   1.446   6.251   7.806  2.2204  1.8834 -0.4386
   65SAPC  C312 5383   1.346   6.273   7.998 -0.1739  0.5484 -0.4926
   65SAPC  H12X 5384   1.419   6.207   8.049  1.4234  2.2365 -0.5672
   65SAPC  H12Y 5385   1.270   6.198   7.965 -0.1557  0.7176 -0.9218
   65SAPC  C313 5386   1.295   6.371   8.100 -0.0953  0.4229  0.0756
   65SAPC  H13X 5387   1.208   6.427   8.059  0.4116  0.9722 -0.2495
   65SAPC  H13Y 5388   1.373   6.447   8.121  0.0330  0.5418 -0.7904
   65SAPC  C314 5389   1.267   6.305   8.236 -0.1155 -1.2663 -0.5869
   65SAPC  H14X 5390   1.238   6.384   8.309  0.3210  0.0992 -1.8530
   65SAPC  H14Y 5391   1.353   6.243   8.270  3.5390  2.3611 -2.8524
   65SAPC  C315 5392   1.149   6.197   8.226  0.0633 -0.3073 -0.3161
   65SAPC  H15X 5393   1.178   6.107   8.167 -0.5357  0.5736 -1.9970
   65SAPC  H15Y 5394   1.077   6.258   8.167  0.5033  1.0384  0.5311
   65SAPC  C316 5395   1.075   6.152   8.364 -0.3056  0.2176  0.0578
   65SAPC  H16X 5396   0.993   6.087   8.326 -0.0474 -0.0102 -0.1140
   65SAPC  H16Y 5397   1.037   6.249   8.400 -2.1332  0.3039 -1.9587
   65SAPC  C317 5398   1.161   6.081   8.468  0.7230  0.0303 -0.5488
   65SAPC  H17X 5399   1.116   6.073   8.569 -2.5156  0.8722 -1.8823
   65SAPC  H17Y 5400   1.258   6.135   8.466  0.4935  0.5006  0.7439
   65SAPC  C318 5401   1.182   5.936   8.427  0.0531  0.2115 -0.0008
   65SAPC  H18X 5402   1.093   5.875   8.454  0.8860 -1.9034 -1.8772
   65SAPC  H18Y 5403   1.277   5.891   8.463 -0.1509 -0.2920 -0.0884
   65SAPC  H18Z 5404   1.184   5.933   8.316  1.1135  0.2655  0.0129
   66SAPC     N 5405   5.671   5.294   5.764  0.0706 -0.6172  0.5100
   66SAPC   C12 5406   5.777   5.189   5.798 -0.0561  0.3543 -0.0924
   66SAPC  H12A 5407   5.865   5.224   5.746 -0.3548  0.0903 -0.7813
   66SAPC  H12B 5408   5.745   5.099   5.747 -1.1565 -0.0007  1.1756
   66SAPC   C13 5409   5.543   5.273   5.838 -0.3339 -0.4756 -0.3789
   66SAPC  H13A 5410   5.558   5.287   5.944  0.1085 -0.6105 -0.4238
   66SAPC  H13B 5411   5.479   5.356   5.813 -0.2847 -0.9054 -2.0328
   66SAPC  H13C 5412   5.494   5.178   5.820 -0.8785  0.0556 -1.7776
   66SAPC   C14 5413   5.719   5.436   5.800  0.2790  0.0257  0.4055
   66SAPC  H14A 5414   5.765   5.437   5.898  0.0963  1.1608  0.4891
   66SAPC  H14B 5415   5.790   5.471   5.727  0.7550 -1.2058  0.2648
   66SAPC  H14C 5416   5.634   5.502   5.802 -1.1433 -1.7340 -0.9113
   66SAPC   C15 5417   5.652   5.290   5.617  0.4163  0.0635 -0.2151
   66SAPC  H15A 5418   5.605   5.201   5.580 -2.8065  1.0709  1.2609
   66SAPC  H15B 5419   5.605   5.377   5.574 -0.3419 -1.3428 -2.2720
   66SAPC  H15C 5420   5.748   5.290   5.569  1.7222  0.9256  2.2862
   66SAPC   C11 5421   5.814   5.158   5.943  0.4744  0.3888  0.6332
   66SAPC  H11A 5422   5.891   5.078   5.934  0.5235  0.6888 -1.9414
   66SAPC  H11B 5423   5.731   5.100   5.989  0.0408 -0.2813 -0.9773
   66SAPC     P 5424   5.981   5.287   6.093  0.2636  0.2779 -0.2896
   66SAPC   O13 5425   6.090   5.249   6.009 -0.0895  0.4518 -0.3010
   66SAPC   O14 5426   5.983   5.425   6.143  0.3746 -0.2006  0.2865
   66SAPC   O12 5427   5.844   5.274   6.016  0.5540  0.1783  0.0610
   66SAPC   O11 5428   5.961   5.199   6.217  0.2133 -0.1954 -0.0842
   66SAPC    C1 5429   5.851   5.141   6.280  0.1507 -0.0625 -0.1342
   66SAPC    HA 5430   5.762   5.141   6.214  0.4694  1.6571 -0.5640
   66SAPC    HB 5431   5.884   5.041   6.318 -1.9018 -0.1100  1.6580
   66SAPC    C2 5432   5.801   5.227   6.397 -0.2606 -0.0879 -0.3998
   66SAPC    HS 5433   5.739   5.309   6.354 -3.1819 -0.8255  2.2001
   66SAPC   O21 5434   5.918   5.279   6.462  0.2973  0.3001 -0.7314
   66SAPC   C21 5435   5.902   5.400   6.511  1.3409 -0.0509 -0.4029
   66SAPC   O22 5436   5.795   5.459   6.529 -0.1988 -0.0486 -0.0790
   66SAPC   C22 5437   6.042   5.464   6.527  0.8868  0.2419  0.2532
   66SAPC   H2R 5438   6.109   5.381   6.558  0.7209 -0.7828 -1.9814
   66SAPC   H2S 5439   6.070   5.511   6.430 -1.4615  2.5069  0.6026
   66SAPC    C3 5440   5.708   5.150   6.493 -0.5817  0.0070  0.3039
   66SAPC    HX 5441   5.616   5.118   6.441 -0.5440  0.2454  0.0917
   66SAPC    HY 5442   5.678   5.219   6.574  3.3873  0.9399  1.1107
   66SAPC   O31 5443   5.770   5.031   6.554  0.0296 -0.9386  0.1351
   66SAPC   C31 5444   5.741   4.913   6.523 -0.3095  0.0487 -0.3676
   66SAPC   O32 5445   5.667   4.878   6.433 -0.2312 -0.5328 -0.5749
   66SAPC   C32 5446   5.795   4.824   6.637  0.0237  0.1303  0.6561
   66SAPC   H2X 5447   5.733   4.839   6.729 -1.1891 -3.6118  0.5484
   66SAPC   H2Y 5448   5.900   4.853   6.655  0.5238 -0.3369 -1.4007
   66SAPC   C23 5449   6.059   5.579   6.618 -0.4349 -0.2923 -0.4252
   66SAPC   H3R 5450   5.987   5.659   6.589 -0.0664 -0.3377 -1.4972
   66SAPC   H3S 5451   6.162   5.615   6.599 -0.5334  0.7623  0.9983
   66SAPC   C24 5452   6.037   5.548   6.770  0.2727 -0.5009  0.3475
   66SAPC   H4R 5453   5.929   5.528   6.782  0.3500 -1.7466 -0.9701
   66SAPC   H4S 5454   6.069   5.634   6.834 -0.1669 -0.8523  1.0322
   66SAPC   C25 5455   6.107   5.424   6.816 -0.3093  0.2570  0.4668
   66SAPC   H5R 5456   6.215   5.417   6.797 -0.1238 -1.3200  2.0099
   66SAPC   C26 5457   6.055   5.323   6.889 -0.8011 -0.2914  0.1663
   66SAPC   H6R 5458   6.124   5.244   6.920  1.2405  1.5274  0.3720
   66SAPC   C27 5459   5.923   5.300   6.951  0.3376  0.2687  1.2537
   66SAPC   H7R 5460   5.872   5.397   6.968 -1.9687 -0.6435 -0.1458
   66SAPC   H7S 5461   5.927   5.245   7.048 -0.7044  0.8929  1.6637
   66SAPC   C28 5462   5.839   5.215   6.864  0.0641  0.1399  0.6254
   66SAPC   H8R 5463   5.827   5.249   6.760  2.9754  1.6871  0.7235
   66SAPC   C29 5464   5.770   5.104   6.906 -0.0643  0.2021  0.3570
   66SAPC   H9R 5465   5.725   5.040   6.829  2.2179 -3.0089  1.5685
   66SAPC  C210 5466   5.775   5.047   7.045 -0.0229 -0.3009 -0.1094
   66SAPC  H10R 5467   5.669   5.031   7.073  0.1638  1.5083  1.7281
   66SAPC  H10S 5468   5.810   5.109   7.130 -0.7318 -0.7005  0.4769
   66SAPC  C211 5469   5.848   4.913   7.054 -0.2918  0.1867  0.1350
   66SAPC  H11R 5470   5.871   4.868   6.956  0.8626 -0.4687  0.6936
   66SAPC  C212 5471   5.886   4.844   7.165 -0.7591  0.0149  0.2250
   66SAPC  H12R 5472   5.940   4.749   7.152  0.1597  0.9424 -3.5471
   66SAPC  C213 5473   5.863   4.892   7.311  0.6655  0.5981 -0.9071
   66SAPC  H13R 5474   5.884   4.804   7.375 -0.2159  0.1773 -1.1921
   66SAPC  H13S 5475   5.757   4.918   7.330  1.0977  0.6518  1.5749
   66SAPC  C214 5476   5.947   5.005   7.372 -0.8922 -0.3152  0.2015
   66SAPC  H14R 5477   5.977   5.087   7.304  0.5693 -0.6898  0.3919
   66SAPC  C215 5478   5.988   5.009   7.499 -0.9575  0.0430  0.0351
   66SAPC  H15R 5479   6.049   5.091   7.539  1.7709 -2.3444  0.8949
   66SAPC  C216 5480   5.971   4.904   7.613  0.3138  0.5747 -0.1841
   66SAPC  H16R 5481   6.060   4.839   7.628 -0.2738  0.1512  1.4951
   66SAPC  H16S 5482   5.884   4.835   7.599 -0.8017  1.4504  2.1774
   66SAPC  C217 5483   5.944   4.968   7.749  0.2189  0.0919  0.7458
   66SAPC  H17R 5484   5.893   4.895   7.815  0.1760  0.0165  0.6302
   66SAPC  H17S 5485   5.859   5.036   7.729 -0.2207 -0.9649 -1.1761
   66SAPC  C218 5486   6.061   5.031   7.816 -0.6869 -0.2262 -0.0791
   66SAPC  H18R 5487   6.112   5.106   7.751 -2.1977  1.7520  0.9338
   66SAPC  H18S 5488   6.133   4.947   7.823 -1.0328 -0.4754  0.5266
   66SAPC  C219 5489   6.036   5.101   7.949  0.4189  0.6199 -0.4240
   66SAPC  H19R 5490   5.981   5.033   8.017  0.7279  0.9039  0.1108
   66SAPC  H19S 5491   5.963   5.182   7.926  0.4044  0.6349 -0.3282
   66SAPC  C220 5492   6.158   5.163   8.019  0.1500  0.4190  0.5730
   66SAPC  H20R 5493   6.186   5.109   8.112  0.8750  1.0529  0.7281
   66SAPC  H20S 5494   6.137   5.272   8.026 -3.3284 -0.2137  0.6940
   66SAPC  H20T 5495   6.251   5.154   7.958  0.6954  1.5144  1.2056
   66SAPC   C33 5496   5.785   4.678   6.613 -0.3762  0.2948  0.7081
   66SAPC   H3X 5497   5.868   4.647   6.546 -0.6571 -0.4644  0.7036
   66SAPC   H3Y 5498   5.693   4.661   6.552  1.0955  0.1267 -1.5093
   66SAPC   C34 5499   5.785   4.588   6.737 -0.1015  0.5508 -0.1878
   66SAPC   H4X 5500   5.875   4.613   6.798 -0.9189  0.2842  1.1468
   66SAPC   H4Y 5501   5.801   4.487   6.694  0.2159  0.2732  0.5744
   66SAPC   C35 5502   5.654   4.575   6.815  0.5118  0.4345  0.8745
   66SAPC   H5X 5503   5.571   4.549   6.746  0.1918  1.3197  0.9086
   66SAPC   H5Y 5504   5.636   4.676   6.859  0.8845  0.5804  0.6910
   66SAPC   C36 5505   5.644   4.477   6.938  0.4468 -1.1420  0.0837
   66SAPC   H6X 5506   5.662   4.373   6.901 -1.0002 -1.7219  0.9767
   66SAPC   H6Y 5507   5.541   4.503   6.971  0.5026  1.4675 -1.6175
   66SAPC   C37 5508   5.750   4.512   7.049 -0.4515  0.2363  0.1018
   66SAPC   H7X 5509   5.738   4.619   7.075 -1.1388  0.5213 -1.3756
   66SAPC   H7Y 5510   5.854   4.508   7.010 -0.8681  0.9057 -1.0970
   66SAPC   C38 5511   5.741   4.424   7.169 -0.0752  0.0750 -0.7808
   66SAPC   H8X 5512   5.756   4.317   7.143 -1.6772  0.0790 -1.7751
   66SAPC   H8Y 5513   5.636   4.439   7.200  0.3080  0.7952  0.2130
   66SAPC   C39 5514   5.836   4.463   7.283  0.3486  1.1333  0.0751
   66SAPC   H9X 5515   5.828   4.573   7.299  0.0217  0.8884  1.5582
   66SAPC   H9Y 5516   5.939   4.447   7.242 -0.7095 -0.2922 -2.1138
   66SAPC  C310 5517   5.817   4.373   7.409 -0.5921 -0.1343 -1.1586
   66SAPC  H10X 5518   5.816   4.266   7.380 -4.6055 -0.1422 -1.3333
   66SAPC  H10Y 5519   5.714   4.386   7.448 -0.7667  0.5467 -1.8228
   66SAPC  C311 5520   5.911   4.413   7.523  0.7949 -0.0370  0.0896
   66SAPC  H11X 5521   5.890   4.519   7.551 -0.3358 -0.1847 -0.2019
   66SAPC  H11Y 5522   6.014   4.409   7.482  1.1357  0.3771  0.8749
   66SAPC  C312 5523   5.878   4.332   7.656  0.9802  0.2683 -0.7639
   66SAPC  H12X 5524   5.882   4.221   7.650 -2.3079 -0.0285  1.2196
   66SAPC  H12Y 5525   5.772   4.356   7.681  1.8075  0.8634  2.3120
   66SAPC  C313 5526   5.964   4.363   7.776 -0.3098 -0.5739  0.1325
   66SAPC  H13X 5527   6.069   4.334   7.756 -0.3239 -0.8606  0.4609
   66SAPC  H13Y 5528   5.912   4.301   7.852 -0.9310  0.8361  0.8752
   66SAPC  C314 5529   5.958   4.515   7.815 -0.0351 -0.2745 -0.2072
   66SAPC  H14X 5530   5.854   4.549   7.836  0.6088  1.7521 -0.1502
   66SAPC  H14Y 5531   5.994   4.564   7.722 -0.8703  2.4163  0.8216
   66SAPC  C315 5532   6.041   4.539   7.940  0.3835 -1.1021 -0.0593
   66SAPC  H15X 5533   6.131   4.475   7.929  1.2224  0.1638 -0.7173
   66SAPC  H15Y 5534   5.976   4.508   8.025  1.9677 -1.5739  1.0130
   66SAPC  C316 5535   6.088   4.679   7.956  0.1230  0.0519  0.4194
   66SAPC  H16X 5536   6.005   4.751   7.973 -1.7895 -1.8916 -0.4620
   66SAPC  H16Y 5537   6.129   4.709   7.857 -2.0848  3.5740  0.4830
   66SAPC  C317 5538   6.201   4.673   8.067 -0.1004 -0.2333  0.2655
   66SAPC  H17X 5539   6.294   4.625   8.032  0.0332  0.1069  0.1462
   66SAPC  H17Y 5540   6.169   4.614   8.155 -0.4794 -1.3357 -0.5973
   66SAPC  C318 5541   6.251   4.805   8.122  0.3719 -0.4406  0.0474
   66SAPC  H18X 5542   6.320   4.789   8.208  0.0177  2.3696  0.8921
   66SAPC  H18Y 5543   6.163   4.859   8.163  0.6714 -0.0155  0.1397
   66SAPC  H18Z 5544   6.293   4.868   8.041  1.2192 -0.3145  0.5766
   67SAPC     N 5545   2.078   0.497   6.218 -0.2299  0.3338  0.3770
   67SAPC   C12 5546   1.946   0.427   6.195  0.0532  0.8061  1.0108
   67SAPC  H12A 5547   1.970   0.322   6.184 -1.6683  0.4468  0.5895
   67SAPC  H12B 5548   1.910   0.459   6.099  1.2347  0.4442  0.4355
   67SAPC   C13 5549   2.070   0.641   6.180  0.3726  0.2056  0.4034
   67SAPC  H13A 5550   2.156   0.699   6.209  0.9108 -0.7973  0.8129
   67SAPC  H13B 5551   2.047   0.657   6.076  0.7593  0.5352  0.3701
   67SAPC  H13C 5552   1.988   0.681   6.239  0.5910  0.5950  0.4457
   67SAPC   C14 5553   2.107   0.493   6.366  0.1669  0.1743  0.1359
   67SAPC  H14A 5554   2.094   0.391   6.399  1.8385  0.3447  1.3547
   67SAPC  H14B 5555   2.200   0.532   6.404 -0.3704  0.8797  0.7422
   67SAPC  H14C 5556   2.026   0.544   6.417 -1.3290 -0.8231 -1.1968
   67SAPC   C15 5557   2.184   0.425   6.141 -0.4350 -0.4421 -0.2623
   67SAPC  H15A 5558   2.152   0.436   6.039  1.4912 -0.0369 -0.8481
   67SAPC  H15B 5559   2.287   0.456   6.150 -0.9091  1.3465 -0.8073
   67SAPC  H15C 5560   2.179   0.320   6.166  1.5180  0.0335  2.4537
   67SAPC   C11 5561   1.826   0.447   6.295  0.2279  0.5973 -0.0551
   67SAPC  H11A 5562   1.838   0.401   6.395 -2.0852 -0.0371 -0.0414
   67SAPC  H11B 5563   1.729   0.415   6.250  0.9542 -1.1074 -0.4148
   67SAPC     P 5564   1.678   0.634   6.409  0.1754  0.1238 -0.3197
   67SAPC   O13 5565   1.665   0.781   6.409 -0.0913  0.0003  0.4923
   67SAPC   O14 5566   1.556   0.557   6.375  0.2925 -0.1650  0.6845
   67SAPC   O12 5567   1.793   0.583   6.315  0.6215 -0.3249 -0.1318
   67SAPC   O11 5568   1.729   0.577   6.547  0.6713 -0.0600  0.0442
   67SAPC    C1 5569   1.849   0.623   6.605 -0.5915 -0.3626  0.0108
   67SAPC    HA 5570   1.935   0.556   6.584  1.0744  1.0102  2.1998
   67SAPC    HB 5571   1.881   0.724   6.571 -1.3299  0.3240  1.3437
   67SAPC    C2 5572   1.823   0.644   6.761  0.1860 -0.0404  0.6746
   67SAPC    HS 5573   1.916   0.670   6.815 -0.8362 -1.3348  3.1483
   67SAPC   O21 5574   1.771   0.519   6.825  0.8367 -0.2467 -0.3405
   67SAPC   C21 5575   1.845   0.413   6.827 -0.4186 -0.6361  0.2633
   67SAPC   O22 5576   1.968   0.419   6.807 -0.5059 -0.1263  0.1678
   67SAPC   C22 5577   1.759   0.299   6.885 -0.1948 -0.5000  0.2453
   67SAPC   H2R 5578   1.713   0.328   6.983  0.1285  1.2638 -0.1078
   67SAPC   H2S 5579   1.675   0.291   6.813  0.0685 -0.8713 -0.0253
   67SAPC    C3 5580   1.731   0.763   6.787 -0.0855  0.4002  0.1300
   67SAPC    HX 5581   1.628   0.738   6.756  0.2201 -0.6139 -0.0980
   67SAPC    HY 5582   1.768   0.854   6.736  1.8740 -1.1275 -1.2957
   67SAPC   O31 5583   1.754   0.789   6.928 -0.0180  0.7109  0.6129
   67SAPC   C31 5584   1.678   0.714   7.014  0.0936 -0.5768  0.2352
   67SAPC   O32 5585   1.576   0.652   6.986  0.4977  0.1073  0.1250
   67SAPC   C32 5586   1.743   0.721   7.152 -0.0219 -0.1423  0.1163
   67SAPC   H2X 5587   1.849   0.752   7.139 -0.4320  1.0880 -0.3211
   67SAPC   H2Y 5588   1.737   0.612   7.176  1.7937 -0.6630 -1.7110
   67SAPC   C23 5589   1.832   0.161   6.883 -0.3595 -0.4708 -0.8294
   67SAPC   H3R 5590   1.930   0.174   6.932 -1.2752 -2.1194  1.5507
   67SAPC   H3S 5591   1.854   0.135   6.777  0.7881  0.2723 -0.7792
   67SAPC   C24 5592   1.772   0.048   6.957  0.5338 -0.5546 -0.8065
   67SAPC   H4R 5593   1.837  -0.041   6.945 -0.8592 -1.5275 -1.3563
   67SAPC   H4S 5594   1.673   0.017   6.917 -0.3595  0.5696  0.5044
   67SAPC   C25 5595   1.764   0.069   7.104  0.1190  0.5675 -0.8908
   67SAPC   H5R 5596   1.862   0.080   7.151  0.7080 -2.1312 -1.4223
   67SAPC   C26 5597   1.652   0.073   7.179 -0.3086  1.1329  0.2202
   67SAPC   H6R 5598   1.650   0.092   7.288 -1.9133 -0.0994  0.4219
   67SAPC   C27 5599   1.509   0.062   7.127  0.0703  0.4931 -0.0903
   67SAPC   H7R 5600   1.439   0.042   7.211 -1.0593 -0.1078 -1.1636
   67SAPC   H7S 5601   1.497  -0.022   7.055 -1.2967  2.8156 -2.6428
   67SAPC   C28 5602   1.455   0.190   7.054 -0.0622  0.0758 -0.2500
   67SAPC   H8R 5603   1.426   0.185   6.948 -1.9816 -0.0853  0.2697
   67SAPC   C29 5604   1.433   0.316   7.094  0.2586 -0.0650  0.4026
   67SAPC   H9R 5605   1.384   0.382   7.021  0.2544 -1.5768 -0.9935
   67SAPC  C210 5606   1.468   0.373   7.227 -0.1115  0.4016  0.0724
   67SAPC  H10R 5607   1.578   0.379   7.231 -0.1400 -0.1114  1.5350
   67SAPC  H10S 5608   1.435   0.299   7.303 -0.7298  0.9445  0.3395
   67SAPC  C211 5609   1.408   0.506   7.247  0.4103 -0.4287 -0.0649
   67SAPC  H11R 5610   1.374   0.557   7.157  2.5604 -0.3647 -0.8782
   67SAPC  C212 5611   1.409   0.558   7.371  0.3642  0.1955  0.4473
   67SAPC  H12R 5612   1.354   0.652   7.387 -1.0538 -0.4166 -0.7253
   67SAPC  C213 5613   1.455   0.490   7.497 -0.5744 -0.8960  0.5824
   67SAPC  H13R 5614   1.499   0.567   7.563  0.7844 -0.2741 -1.0107
   67SAPC  H13S 5615   1.532   0.412   7.480 -0.1836 -0.4331  0.2188
   67SAPC  C214 5616   1.341   0.428   7.573  0.3387 -0.2141  0.4170
   67SAPC  H14R 5617   1.245   0.481   7.559 -0.2091 -1.8386 -2.2287
   67SAPC  C215 5618   1.351   0.329   7.657 -0.4578 -0.2008 -0.6718
   67SAPC  H15R 5619   1.265   0.281   7.706 -0.1249 -1.6140 -1.4521
   67SAPC  C216 5620   1.479   0.264   7.687 -0.6006 -0.2027 -0.2501
   67SAPC  H16R 5621   1.485   0.243   7.796  0.0811  0.0218 -0.2443
   67SAPC  H16S 5622   1.563   0.333   7.665 -0.8155  0.0619 -0.2406
   67SAPC  C217 5623   1.497   0.138   7.601  0.2756  0.5626  0.3726
   67SAPC  H17R 5624   1.460   0.143   7.496  0.3119  2.5071  0.4428
   67SAPC  H17S 5625   1.436   0.057   7.647  0.2033  0.4861  0.1447
   67SAPC  C218 5626   1.644   0.087   7.605  0.4857  0.0292 -0.2302
   67SAPC  H18R 5627   1.677   0.075   7.711  0.5028 -0.5908 -0.3074
   67SAPC  H18S 5628   1.704   0.154   7.539  1.8013 -0.2353  0.6566
   67SAPC  C219 5629   1.656  -0.056   7.542 -0.0210  0.1391  0.5876
   67SAPC  H19R 5630   1.612  -0.057   7.439 -0.2572 -1.9850  0.6722
   67SAPC  H19S 5631   1.581  -0.120   7.593  0.1385 -1.4093 -1.0590
   67SAPC  C220 5632   1.790  -0.116   7.547 -0.7735  0.8413 -0.1167
   67SAPC  H20R 5633   1.774  -0.226   7.545 -2.0286  0.9358  2.1350
   67SAPC  H20S 5634   1.833  -0.080   7.643 -1.4701 -1.4081  1.0801
   67SAPC  H20T 5635   1.849  -0.086   7.459 -3.6561  1.1670 -2.0223
   67SAPC   C33 5636   1.666   0.800   7.253 -0.0341 -0.0103 -0.5150
   67SAPC   H3X 5637   1.557   0.777   7.248 -0.1458  0.3918  0.0177
   67SAPC   H3Y 5638   1.681   0.908   7.229  2.4466  0.1484  1.5127
   67SAPC   C34 5639   1.711   0.781   7.397  0.1995  0.3101 -0.1760
   67SAPC   H4X 5640   1.819   0.799   7.413  0.2331 -0.5240  0.5408
   67SAPC   H4Y 5641   1.698   0.679   7.438 -1.0873  0.5975  0.1515
   67SAPC   C35 5642   1.629   0.877   7.490  0.4383 -0.3203  0.0907
   67SAPC   H5X 5643   1.526   0.836   7.489  0.2073  0.2282  0.9650
   67SAPC   H5Y 5644   1.623   0.982   7.456  1.1318 -0.0355  0.8284
   67SAPC   C36 5645   1.686   0.883   7.637 -0.2275  0.2261 -0.3618
   67SAPC   H6X 5646   1.795   0.891   7.623  0.2790  0.1685  3.0586
   67SAPC   H6Y 5647   1.665   0.783   7.682  0.4273  0.4538  0.4612
   67SAPC   C37 5648   1.621   0.991   7.724 -0.5790 -0.3290  0.3701
   67SAPC   H7X 5649   1.513   0.970   7.706 -0.6565  1.5058 -1.5417
   67SAPC   H7Y 5650   1.637   1.093   7.683 -1.3966 -0.5141 -0.4111
   67SAPC   C38 5651   1.656   0.995   7.875 -0.2862  0.2919 -0.9647
   67SAPC   H8X 5652   1.657   0.889   7.907  2.4125  1.0927  1.8713
   67SAPC   H8Y 5653   1.575   1.054   7.924  1.3076  0.7186  1.2344
   67SAPC   C39 5654   1.789   1.068   7.902 -0.8311 -0.3818 -0.1540
   67SAPC   H9X 5655   1.800   1.166   7.850  0.5100 -0.5317 -0.1475
   67SAPC   H9Y 5656   1.874   1.008   7.864 -1.1780 -0.6393 -0.5428
   67SAPC  C310 5657   1.810   1.079   8.055 -0.1168  0.9100 -0.6144
   67SAPC  H10X 5658   1.918   1.094   8.073  0.0421 -1.3356  0.4735
   67SAPC  H10Y 5659   1.801   0.974   8.091  1.6902  0.0908 -2.4047
   67SAPC  C311 5660   1.721   1.176   8.121  0.3756 -0.0405 -0.4490
   67SAPC  H11X 5661   1.615   1.151   8.103 -0.1938  2.5049 -0.7486
   67SAPC  H11Y 5662   1.750   1.277   8.084  0.9948  1.6657  4.2429
   67SAPC  C312 5663   1.734   1.174   8.278  0.5790 -0.0105 -0.1327
   67SAPC  H12X 5664   1.678   1.094   8.330 -0.3408  1.4349  1.1142
   67SAPC  H12Y 5665   1.709   1.273   8.321  0.6910  0.4817 -1.1749
   67SAPC  C313 5666   1.881   1.170   8.328 -0.5060 -0.3625  0.3765
   67SAPC  H13X 5667   1.946   1.239   8.270 -0.5683 -0.0748  0.6501
   67SAPC  H13Y 5668   1.914   1.065   8.314  2.4372  0.5805 -0.1345
   67SAPC  C314 5669   1.889   1.206   8.480 -0.3375  0.0709 -0.4429
   67SAPC  H14X 5670   1.819   1.132   8.524  0.4980 -1.0251 -0.9205
   67SAPC  H14Y 5671   1.854   1.311   8.489 -3.3822 -0.6668 -2.7676
   67SAPC  C315 5672   2.032   1.205   8.537 -0.1043 -0.5685  0.1201
   67SAPC  H15X 5673   2.067   1.101   8.518 -0.1364 -0.9657  2.1509
   67SAPC  H15Y 5674   2.027   1.223   8.646  0.4854 -3.2131  0.6329
   67SAPC  C316 5675   2.133   1.303   8.482 -0.4072 -0.0161  0.2350
   67SAPC  H16X 5676   2.150   1.290   8.373  2.4176 -0.2772  0.6766
   67SAPC  H16Y 5677   2.231   1.284   8.530  1.0494  1.4559 -2.0559
   67SAPC  C317 5678   2.094   1.447   8.511  0.5672 -0.1043 -0.3461
   67SAPC  H17X 5679   2.005   1.472   8.450  2.4380 -0.2547 -3.2155
   67SAPC  H17Y 5680   2.168   1.514   8.464 -1.2804  0.1315 -3.0275
   67SAPC  C318 5681   2.097   1.494   8.665  0.2125  0.3113 -0.5147
   67SAPC  H18X 5682   2.024   1.429   8.718  0.4368  1.9583  1.8946
   67SAPC  H18Y 5683   2.081   1.598   8.699  0.6836 -0.2517  1.5071
   67SAPC  H18Z 5684   2.195   1.459   8.704  0.8593  0.4125 -2.0094
   68SAPC     N 5685   6.377   5.789   5.918  0.0857 -0.0713 -0.2530
   68SAPC   C12 5686   6.411   5.852   6.055 -0.3172  0.1450 -0.0431
   68SAPC  H12A 5687   6.314   5.863   6.101 -1.3414 -3.1992 -1.2386
   68SAPC  H12B 5688   6.451   5.951   6.043  0.3990 -0.2245 -0.7636
   68SAPC   C13 5689   6.500   5.749   5.845  0.4124  0.7917  0.8622
   68SAPC  H13A 5690   6.477   5.675   5.769  1.6944  0.0630  1.1638
   68SAPC  H13B 5691   6.538   5.838   5.798  0.7121  1.3987  2.2280
   68SAPC  H13C 5692   6.571   5.718   5.921  0.1991  2.2125  1.6530
   68SAPC   C14 5693   6.293   5.665   5.940  0.2474  0.3317  0.2029
   68SAPC  H14A 5694   6.297   5.596   5.857 -0.7137 -1.8344  1.8801
   68SAPC  H14B 5695   6.340   5.615   6.024  0.9093  1.2512  0.3812
   68SAPC  H14C 5696   6.195   5.697   5.973  0.5809  0.3027  1.2400
   68SAPC   C15 5697   6.301   5.885   5.847  0.6131 -0.6835  0.5167
   68SAPC  H15A 5698   6.205   5.915   5.886  1.3363 -0.1930  1.9443
   68SAPC  H15B 5699   6.348   5.982   5.845  1.9140 -1.2570  2.8181
   68SAPC  H15C 5700   6.284   5.855   5.744  4.8295  1.2387 -0.8627
   68SAPC   C11 5701   6.494   5.773   6.153  0.2879 -0.1889  0.0542
   68SAPC  H11A 5702   6.462   5.669   6.176  0.9864 -0.5950 -0.7914
   68SAPC  H11B 5703   6.488   5.814   6.256 -1.0930  1.8204 -0.7894
   68SAPC     P 5704   6.722   5.894   6.143  0.4790  0.0799 -0.0198
   68SAPC   O13 5705   6.852   5.873   6.089 -0.0632 -0.3665 -0.1188
   68SAPC   O14 5706   6.656   6.019   6.095  0.7503  0.2284 -0.7490
   68SAPC   O12 5707   6.632   5.770   6.111 -0.3187 -0.2774  0.0562
   68SAPC   O11 5708   6.747   5.905   6.295  1.0766 -0.1189 -0.5159
   68SAPC    C1 5709   6.736   6.019   6.377 -0.1968 -0.5056 -0.2081
   68SAPC    HA 5710   6.821   6.023   6.448 -0.0926  1.8331 -0.4139
   68SAPC    HB 5711   6.743   6.115   6.320  0.2470  0.3356  1.2472
   68SAPC    C2 5712   6.601   6.008   6.460  0.3695 -0.3396  0.7750
   68SAPC    HS 5713   6.626   6.051   6.560  2.1518  0.4616  0.0032
   68SAPC   O21 5714   6.555   5.875   6.475 -0.1658  0.1265 -0.2923
   68SAPC   C21 5715   6.616   5.782   6.553 -0.4877  0.2023  0.6699
   68SAPC   O22 5716   6.728   5.804   6.594 -0.5226 -0.5674  0.0972
   68SAPC   C22 5717   6.543   5.654   6.574  0.9933  0.6343  0.5852
   68SAPC   H2R 5718   6.490   5.641   6.478 -1.3948  2.1917  1.6656
   68SAPC   H2S 5719   6.614   5.570   6.592  0.2649 -0.5436 -1.9108
   68SAPC    C3 5720   6.473   6.087   6.405 -0.4090  0.4063 -0.0057
   68SAPC    HX 5721   6.421   6.023   6.330 -0.6904 -0.5706  0.9995
   68SAPC    HY 5722   6.505   6.179   6.353 -3.0900 -0.1060 -2.7448
   68SAPC   O31 5723   6.386   6.123   6.514 -1.0854  0.8095  0.6548
   68SAPC   C31 5724   6.279   6.054   6.541 -0.1942  0.5822 -0.2438
   68SAPC   O32 5725   6.249   5.948   6.493  0.6450 -0.1067  0.1574
   68SAPC   C32 5726   6.203   6.114   6.661  1.0017  0.6729 -0.8346
   68SAPC   H2X 5727   6.167   6.208   6.615 -1.5512 -0.9155 -2.1933
   68SAPC   H2Y 5728   6.278   6.134   6.741  0.8919 -0.7153 -0.3616
   68SAPC   C23 5729   6.438   5.663   6.692 -1.0580 -0.2992 -0.2036
   68SAPC   H3R 5730   6.357   5.587   6.684 -1.2794 -0.0133 -0.6826
   68SAPC   H3S 5731   6.391   5.764   6.684 -1.7376 -0.5129  0.8982
   68SAPC   C24 5732   6.517   5.631   6.824  1.2159  0.1906  0.3909
   68SAPC   H4R 5733   6.597   5.708   6.838 -0.7697  3.0199 -2.8360
   68SAPC   H4S 5734   6.570   5.534   6.816  1.2277  0.1984  0.3825
   68SAPC   C25 5735   6.419   5.622   6.940 -0.4943 -0.6049  0.3448
   68SAPC   H5R 5736   6.374   5.523   6.956  1.0436 -1.0299  2.2072
   68SAPC   C26 5737   6.384   5.718   7.022  0.5690 -0.1402 -0.5859
   68SAPC   H6R 5738   6.323   5.685   7.108  1.2236  3.1447  1.1968
   68SAPC   C27 5739   6.440   5.859   7.024  0.2205 -0.4593 -0.3073
   68SAPC   H7R 5740   6.466   5.886   6.920 -0.9947 -1.6783 -0.9492
   68SAPC   H7S 5741   6.539   5.853   7.073  0.7825  1.9052 -1.1152
   68SAPC   C28 5742   6.354   5.970   7.079  0.1635 -0.2872 -0.3283
   68SAPC   H8R 5743   6.326   6.040   6.999  0.7238  2.4239  1.7593
   68SAPC   C29 5744   6.319   5.995   7.209  0.2240 -0.0193  0.0523
   68SAPC   H9R 5745   6.261   6.084   7.237 -1.4787 -0.6074 -1.5669
   68SAPC  C210 5746   6.365   5.910   7.323 -0.1141  1.2891 -0.0275
   68SAPC  H10R 5747   6.390   5.806   7.293  0.5088  1.5992 -0.5850
   68SAPC  H10S 5748   6.281   5.898   7.395 -0.5727  0.6264 -0.6639
   68SAPC  C211 5749   6.485   5.976   7.389 -0.3767  0.1337  0.4180
   68SAPC  H11R 5750   6.529   6.066   7.342 -1.1317 -0.2380 -1.0142
   68SAPC  C212 5751   6.545   5.929   7.501  0.1674  0.9577 -0.4223
   68SAPC  H12R 5752   6.639   5.976   7.533  1.2331 -0.9045 -0.7532
   68SAPC  C213 5753   6.512   5.802   7.580 -0.8240 -0.1740 -0.1227
   68SAPC  H13R 5754   6.594   5.739   7.539 -0.1754  1.1066 -0.8408
   68SAPC  H13S 5755   6.414   5.756   7.558 -0.4074 -1.5705  0.8901
   68SAPC  C214 5756   6.513   5.828   7.732 -0.4704  0.2084 -0.0371
   68SAPC  H14R 5757   6.417   5.836   7.785 -0.5723 -2.9818  0.3265
   68SAPC  C215 5758   6.625   5.821   7.805 -0.0665  0.3332 -0.0780
   68SAPC  H15R 5759   6.615   5.815   7.914  2.6622  0.1963  0.2038
   68SAPC  C216 5760   6.765   5.784   7.763  0.1376  0.8567 -0.1379
   68SAPC  H16R 5761   6.758   5.727   7.668  0.9079 -0.2120  0.4360
   68SAPC  H16S 5762   6.823   5.727   7.838  1.2436  0.6990 -1.1051
   68SAPC  C217 5763   6.844   5.918   7.740 -0.0600 -0.4445  0.4997
   68SAPC  H17R 5764   6.798   5.983   7.662 -4.1795 -0.2438  2.9505
   68SAPC  H17S 5765   6.948   5.895   7.710  0.6712  0.7829  2.0174
   68SAPC  C218 5766   6.859   6.006   7.869 -0.0890  0.3633  0.1800
   68SAPC  H18R 5767   6.760   6.030   7.913 -1.1386 -1.6553 -0.9860
   68SAPC  H18S 5768   6.891   6.109   7.842  0.0833  0.1766 -0.3481
   68SAPC  C219 5769   6.949   5.951   7.978  0.1549  0.1288  0.5192
   68SAPC  H19R 5770   7.052   5.944   7.937 -1.3457  0.3293 -3.4909
   68SAPC  H19S 5771   6.925   5.850   8.017  0.6065 -0.1063  0.1971
   68SAPC  C220 5772   6.950   6.051   8.098  0.1111  0.1353  0.3073
   68SAPC  H20R 5773   6.854   6.051   8.152  0.3955 -0.2998  0.8141
   68SAPC  H20S 5774   6.989   6.149   8.063  0.7767 -0.9305 -2.0742
   68SAPC  H20T 5775   7.024   6.016   8.173  0.7026  0.6401 -0.0360
   68SAPC   C33 5776   6.082   6.020   6.705  0.7015 -0.0268  0.5168
   68SAPC   H3X 5777   6.117   5.928   6.758  1.2500 -0.6476 -0.8976
   68SAPC   H3Y 5778   6.017   5.994   6.619  0.0904  0.4372  0.8408
   68SAPC   C34 5779   5.996   6.099   6.796  0.1815 -0.4155 -0.0184
   68SAPC   H4X 5780   5.900   6.044   6.809 -0.2068  0.6533  1.8311
   68SAPC   H4Y 5781   5.961   6.186   6.736  0.0994 -0.7453 -0.4492
   68SAPC   C35 5782   6.052   6.122   6.934  0.2377  1.1296 -0.0693
   68SAPC   H5X 5783   6.160   6.147   6.934 -0.0776  2.5819  0.4662
   68SAPC   H5Y 5784   6.048   6.028   6.993  1.0574  0.2004 -1.4502
   68SAPC   C36 5785   5.972   6.228   7.004 -0.7065 -0.0905  0.5749
   68SAPC   H6X 5786   5.970   6.318   6.938  2.2523 -0.5295 -0.2045
   68SAPC   H6Y 5787   6.037   6.279   7.079 -0.7466  0.2739  0.3655
   68SAPC   C37 5788   5.838   6.193   7.059  0.3241  0.1335  0.1070
   68SAPC   H7X 5789   5.772   6.133   6.992 -0.5723  0.3792  0.7619
   68SAPC   H7Y 5790   5.779   6.287   7.068  0.3710  0.1609  0.1222
   68SAPC   C38 5791   5.838   6.128   7.201 -0.1287 -0.0148  0.2985
   68SAPC   H8X 5792   5.900   6.037   7.214 -0.4496 -0.2718  0.0413
   68SAPC   H8Y 5793   5.735   6.089   7.214  0.2459 -1.4528 -0.8771
   68SAPC   C39 5794   5.883   6.222   7.304 -0.7799  0.2662 -0.6002
   68SAPC   H9X 5795   5.837   6.323   7.307 -1.7857 -0.2300  1.7569
   68SAPC   H9Y 5796   5.991   6.249   7.292 -1.1235  2.7933  1.5828
   68SAPC  C310 5797   5.867   6.157   7.437 -0.1591  0.1738  0.7159
   68SAPC  H10X 5798   5.955   6.089   7.446  0.2688  0.4680 -1.0118
   68SAPC  H10Y 5799   5.771   6.107   7.461 -0.5304  0.5556  0.0436
   68SAPC  C311 5800   5.873   6.253   7.549 -0.3765  0.3980 -0.0812
   68SAPC  H11X 5801   5.795   6.332   7.544 -1.5336 -0.7980 -1.4348
   68SAPC  H11Y 5802   5.969   6.307   7.534  0.4010 -0.9660 -0.0953
   68SAPC  C312 5803   5.871   6.191   7.695 -0.5909  0.4898  0.3339
   68SAPC  H12X 5804   5.768   6.149   7.703 -0.2437 -0.2995  0.8185
   68SAPC  H12Y 5805   5.889   6.268   7.773  1.8622  0.7703 -0.4527
   68SAPC  C313 5806   5.982   6.088   7.714 -0.1946 -0.8845 -0.8279
   68SAPC  H13X 5807   6.084   6.132   7.707 -0.9018  1.0910  0.5388
   68SAPC  H13Y 5808   5.973   6.008   7.638  1.1721 -0.8004 -1.0855
   68SAPC  C314 5809   5.954   6.014   7.850 -0.1455 -0.1542 -0.3825
   68SAPC  H14X 5810   5.987   5.908   7.854  1.6559  0.4199  0.7460
   68SAPC  H14Y 5811   5.850   6.021   7.886 -0.5636  4.1656 -2.1328
   68SAPC  C315 5812   6.040   6.082   7.957  0.1885 -0.1416  0.0393
   68SAPC  H15X 5813   6.007   6.188   7.957  0.7272  0.0363  1.2839
   68SAPC  H15Y 5814   6.141   6.097   7.913  0.2174 -0.2522  0.0666
   68SAPC  C316 5815   6.053   6.008   8.088 -0.4887  0.2097 -0.0777
   68SAPC  H16X 5816   6.133   6.060   8.144  0.2473 -0.4663 -0.4992
   68SAPC  H16Y 5817   6.073   5.899   8.075 -1.8653  0.0799 -1.1762
   68SAPC  C317 5818   5.919   6.017   8.167 -0.8156  0.5588  0.1862
   68SAPC  H17X 5819   5.843   5.949   8.123 -0.6490 -0.2561  1.1343
   68SAPC  H17Y 5820   5.865   6.114   8.161 -0.3004  0.9757  2.0130
   68SAPC  C318 5821   5.934   5.973   8.314  0.1671 -0.2161  0.6065
   68SAPC  H18X 5822   5.839   5.996   8.368  1.5472 -0.0340  2.9933
   68SAPC  H18Y 5823   6.017   6.034   8.355  0.3175  0.4022 -0.5963
   68SAPC  H18Z 5824   5.954   5.864   8.319  1.3740 -0.2560 -3.4181
   69SLPC     N 5825   3.587   5.019  11.050  0.2745 -0.0799  0.1440
   69SLPC   C13 5826   3.511   4.976  11.179 -0.0452  0.1139  0.0298
   69SLPC  H13A 5827   3.566   5.001  11.269  0.5866  0.3056 -0.4068
   69SLPC  H13B 5828   3.416   5.027  11.180  0.6258  1.3636  0.7145
   69SLPC  H13C 5829   3.483   4.872  11.186 -1.7529  0.5846  0.4330
   69SLPC   C14 5830   3.723   4.960  11.052  0.5034  0.4904  0.1258
   69SLPC  H14A 5831   3.717   4.852  11.054 -0.2703  0.5218 -0.3473
   69SLPC  H14B 5832   3.778   4.992  10.965  0.2782  3.2960  0.9693
   69SLPC  H14C 5833   3.776   4.987  11.143  0.9415  0.9567 -0.2654
   69SLPC   C15 5834   3.597   5.170  11.051  0.3235 -0.1744 -0.2217
   69SLPC  H15A 5835   3.505   5.220  11.077  0.1249  0.0304 -1.3123
   69SLPC  H15B 5836   3.673   5.201  11.122 -0.3950  1.5388 -0.1809
   69SLPC  H15C 5837   3.613   5.206  10.951 -1.1812 -0.2861 -0.5150
   69SLPC   C12 5838   3.512   4.964  10.923  0.2071 -0.6684 -0.4082
   69SLPC  H12A 5839   3.523   4.856  10.921  1.1710 -0.6142  0.9722
   69SLPC  H12B 5840   3.561   4.990  10.831 -0.9519 -1.2085 -1.1902
   69SLPC   C11 5841   3.364   5.004  10.905  0.9262  0.0441 -0.0468
   69SLPC  H11A 5842   3.334   4.964  10.805  1.1232 -2.3120  0.7997
   69SLPC  H11B 5843   3.364   5.114  10.892  2.2826  0.0466 -0.0749
   69SLPC     P 5844   3.226   4.818  11.022  0.1747  0.4711 -0.0357
   69SLPC   O13 5845   3.226   4.780  11.165 -0.1060 -0.4414  0.1252
   69SLPC   O14 5846   3.098   4.807  10.954  0.7388  0.3400  0.4351
   69SLPC   O12 5847   3.277   4.969  11.009 -0.0297 -0.4643 -0.2827
   69SLPC   O11 5848   3.337   4.734  10.941 -1.0027 -0.5285  0.1181
   69SLPC    C1 5849   3.331   4.593  10.919 -0.4551  0.0576  0.0019
   69SLPC    HA 5850   3.356   4.541  11.014 -0.7015 -1.4844 -0.7601
   69SLPC    HB 5851   3.233   4.565  10.876 -0.7361 -0.8114  1.1988
   69SLPC    C2 5852   3.442   4.567  10.820  0.5141  0.6728 -0.0747
   69SLPC    HS 5853   3.532   4.599  10.877 -1.1120  0.4142  2.7716
   69SLPC   O21 5854   3.412   4.643  10.707  0.4456 -0.0759  0.2602
   69SLPC   C21 5855   3.517   4.687  10.641 -0.2823 -0.2626 -0.5172
   69SLPC   O22 5856   3.629   4.707  10.691 -0.0326 -0.0878 -0.3414
   69SLPC   C22 5857   3.471   4.719  10.495  0.0055  0.1255  0.2797
   69SLPC   H2R 5858   3.401   4.639  10.464 -0.3648  1.7710 -3.3632
   69SLPC   H2S 5859   3.411   4.813  10.507 -1.8322 -0.9149 -0.5253
   69SLPC    C3 5860   3.448   4.415  10.782 -0.5349  0.2698 -0.1417
   69SLPC    HX 5861   3.346   4.378  10.759  0.8507 -3.8651 -0.1313
   69SLPC    HY 5862   3.486   4.359  10.871  2.7435  1.2731 -0.8339
   69SLPC   O31 5863   3.525   4.393  10.661  0.1137 -0.2626 -0.3954
   69SLPC   C31 5864   3.638   4.331  10.666  0.1781  0.2959 -0.4880
   69SLPC   O32 5865   3.684   4.266  10.761 -0.3085  0.1153  0.0696
   69SLPC   C32 5866   3.709   4.340  10.530 -0.0141  0.3966 -0.2256
   69SLPC   H2X 5867   3.805   4.283  10.538 -1.0659 -1.2243  1.5047
   69SLPC   H2Y 5868   3.729   4.449  10.519  4.4297 -0.4194 -1.1673
   69SLPC   C23 5869   3.583   4.732  10.388  0.0561  0.1387  0.6453
   69SLPC   H3R 5870   3.613   4.634  10.345 -1.2626 -0.3427  0.7810
   69SLPC   H3S 5871   3.676   4.779  10.425  1.0265 -1.0824 -0.1983
   69SLPC   C24 5872   3.521   4.810  10.269 -0.5721 -0.0490 -0.7109
   69SLPC   H4R 5873   3.506   4.918  10.288 -1.1111  0.0674 -1.7704
   69SLPC   H4S 5874   3.422   4.763  10.246 -1.0908  1.2644 -1.1842
   69SLPC   C25 5875   3.610   4.792  10.145  0.1656  1.0539  0.1999
   69SLPC   H5R 5876   3.674   4.701  10.154  0.6466  1.2454 -1.1779
   69SLPC   H5S 5877   3.695   4.863  10.140  1.0277  0.2650  2.6652
   69SLPC   C26 5878   3.531   4.776  10.014 -0.5733  0.0777 -0.2067
   69SLPC   H6R 5879   3.597   4.778   9.925  0.2455  3.1947  0.3889
   69SLPC   H6S 5880   3.460   4.860   9.996 -0.7969 -0.2719 -0.9866
   69SLPC   C27 5881   3.442   4.648  10.002  0.0819 -0.0467 -0.1044
   69SLPC   H7R 5882   3.359   4.652  10.076 -0.6552  1.8151 -0.9980
   69SLPC   H7S 5883   3.500   4.559  10.035  1.1628  1.5021  2.3203
   69SLPC   C28 5884   3.382   4.615   9.860  0.0407 -0.2768  0.3089
   69SLPC   H8R 5885   3.324   4.520   9.860  2.3346 -1.7487 -2.8385
   69SLPC   H8S 5886   3.471   4.612   9.794 -0.3750 -0.0634 -0.2687
   69SLPC   C29 5887   3.289   4.730   9.807 -0.5959  0.4928 -0.1401
   69SLPC   H9R 5888   3.210   4.752   9.880 -1.0341  1.2303 -0.8355
   69SLPC  C210 5889   3.303   4.808   9.694  0.7225  0.4991 -0.5847
   69SLPC  H10R 5890   3.217   4.873   9.672 -0.3663 -0.0073  1.9034
   69SLPC  C211 5891   3.413   4.801   9.593  0.9887 -0.4649  0.7125
   69SLPC  H11R 5892   3.384   4.846   9.495  1.7776 -0.5426  0.4420
   69SLPC  H11S 5893   3.423   4.696   9.558  3.3536  0.5479 -1.8270
   69SLPC  C212 5894   3.551   4.855   9.608  0.6676 -0.2783  0.2901
   69SLPC  H12R 5895   3.572   4.910   9.701  2.4589 -1.7658  0.7943
   69SLPC  C213 5896   3.650   4.828   9.521 -0.5228 -0.8948 -0.1292
   69SLPC  H13R 5897   3.754   4.859   9.541 -0.5177 -0.8064 -0.2897
   69SLPC  C214 5898   3.632   4.746   9.396 -0.4374  0.1224  0.6110
   69SLPC  H14R 5899   3.538   4.686   9.395 -2.2911  2.9499 -0.2735
   69SLPC  H14S 5900   3.718   4.676   9.381  1.0661  2.2278 -0.8465
   69SLPC  C215 5901   3.634   4.820   9.266  0.4804  0.2192 -0.4981
   69SLPC  H15R 5902   3.660   4.754   9.180  1.8555 -2.1582  1.6634
   69SLPC  H15S 5903   3.707   4.904   9.267 -1.6178  2.0634  1.5157
   69SLPC  C216 5904   3.495   4.877   9.237  0.5010  0.3355 -0.1828
   69SLPC  H16R 5905   3.478   4.969   9.297 -0.8896 -1.1197  1.7084
   69SLPC  H16S 5906   3.413   4.813   9.277  1.5078 -1.4213 -0.8537
   69SLPC  C217 5907   3.479   4.906   9.085  0.1215 -0.5605  0.9216
   69SLPC  H17R 5908   3.494   4.808   9.034  1.4346  0.2065 -0.1864
   69SLPC  H17S 5909   3.555   4.979   9.051 -0.8539 -0.0993 -0.3419
   69SLPC  C218 5910   3.341   4.968   9.054  0.1033  0.0191  0.4355
   69SLPC  H18R 5911   3.258   4.903   9.090 -0.1044 -0.1368 -0.3071
   69SLPC  H18S 5912   3.325   4.989   8.945 -0.4407 -0.8847  0.3384
   69SLPC  H18T 5913   3.323   5.068   9.100 -0.3612 -0.8571  2.1968
   69SLPC   C33 5914   3.635   4.277  10.406  0.3906  1.1028  0.5861
   69SLPC   H3X 5915   3.528   4.306  10.400  1.0039  3.1688 -0.7689
   69SLPC   H3Y 5916   3.641   4.167  10.419 -0.0808  0.7675 -1.8561
   69SLPC   C34 5917   3.704   4.305  10.273  1.2466 -0.8928 -0.8703
   69SLPC   H4X 5918   3.794   4.244  10.254 -0.2687 -2.2060 -4.0850
   69SLPC   H4Y 5919   3.745   4.409  10.277 -0.1072 -0.4043  1.6008
   69SLPC   C35 5920   3.617   4.284  10.153  0.5564  0.2953 -0.0186
   69SLPC   H5X 5921   3.524   4.345  10.149 -0.6244 -1.4149  0.8528
   69SLPC   H5Y 5922   3.574   4.182  10.146  1.3373 -0.1065  0.8259
   69SLPC   C36 5923   3.682   4.321  10.016  0.4824  0.2926 -0.1005
   69SLPC   H6X 5924   3.782   4.274  10.007 -0.5938 -1.7030 -2.4378
   69SLPC   H6Y 5925   3.695   4.431  10.022  0.5849  0.3090 -0.6215
   69SLPC   C37 5926   3.591   4.278   9.902 -0.0561 -0.1089  0.0756
   69SLPC   H7X 5927   3.486   4.307   9.924 -0.6139 -2.1833  0.3022
   69SLPC   H7Y 5928   3.593   4.167   9.894 -0.2502 -0.2741  2.0365
   69SLPC   C38 5929   3.633   4.346   9.767 -0.3087  0.8869  0.2785
   69SLPC   H8X 5930   3.719   4.295   9.720 -0.6174  1.4922 -0.9762
   69SLPC   H8Y 5931   3.664   4.449   9.795 -0.8082  1.0707  0.1716
   69SLPC   C39 5932   3.508   4.349   9.659 -0.2901 -0.1584 -0.3711
   69SLPC   H9X 5933   3.439   4.421   9.708  0.6258  0.9229 -0.6525
   69SLPC   H9Y 5934   3.472   4.245   9.645 -1.2101 -0.0545  1.1271
   69SLPC  C310 5935   3.537   4.408   9.516  0.5134  0.0794  0.5583
   69SLPC  H10X 5936   3.577   4.510   9.533  0.8180 -0.0305  0.4913
   69SLPC  H10Y 5937   3.454   4.416   9.442  2.9162 -0.6721 -2.2700
   69SLPC  C311 5938   3.634   4.326   9.430  0.1658  0.1020 -0.2399
   69SLPC  H11X 5939   3.610   4.218   9.442  0.0880 -0.2457 -3.2008
   69SLPC  H11Y 5940   3.737   4.335   9.471  0.7478 -3.7797 -0.5809
   69SLPC  C312 5941   3.636   4.355   9.273 -0.6029  0.8414  0.7860
   69SLPC  H12X 5942   3.656   4.463   9.253  1.7591 -0.0742 -2.1970
   69SLPC  H12Y 5943   3.533   4.342   9.233 -1.2906  1.8869  2.1891
   69SLPC  C313 5944   3.743   4.285   9.189  0.3768  0.3088 -0.3166
   69SLPC  H13X 5945   3.703   4.187   9.154  1.2207  0.4053 -1.5768
   69SLPC  H13Y 5946   3.839   4.257   9.238  0.8869 -0.8771 -1.9649
   69SLPC  C314 5947   3.776   4.364   9.058 -0.2961  0.1486 -0.0672
   69SLPC  H14X 5948   3.822   4.464   9.069  0.7152  0.1249 -3.2781
   69SLPC  H14Y 5949   3.683   4.370   8.997 -0.3262 -0.2825 -0.0680
   69SLPC  C315 5950   3.889   4.290   8.983  0.5535  0.0100  0.1758
   69SLPC  H15X 5951   3.972   4.283   9.056 -0.5546 -0.1485  1.4299
   69SLPC  H15Y 5952   3.931   4.347   8.897 -2.1985 -2.3570 -2.8892
   69SLPC  C316 5953   3.851   4.154   8.926  0.1003  0.0332  0.1946
   69SLPC  H16X 5954   3.765   4.168   8.858  0.4332  0.1759 -0.2004
   69SLPC  H16Y 5955   3.811   4.090   9.007  0.1918 -0.7392 -0.3762
   69SLPC  C317 5956   3.967   4.085   8.848  0.8952 -0.2872  0.2940
   69SLPC  H17X 5957   3.914   3.994   8.812  0.8854  0.4598 -1.6214
   69SLPC  H17Y 5958   4.050   4.052   8.914  0.9651 -3.3621 -1.2638
   69SLPC  C318 5959   4.019   4.150   8.726 -0.8134  0.1165  0.3318
   69SLPC  H18X 5960   4.108   4.210   8.754  0.6061 -0.3238 -3.0582
   69SLPC  H18Y 5961   3.938   4.217   8.692 -2.0822 -0.0605  2.8744
   69SLPC  H18Z 5962   4.044   4.078   8.646 -4.2724  1.3186 -1.9266
   70SLPC     N 5963   4.577   1.805  11.193 -0.0204 -0.5782  0.3753
   70SLPC   C13 5964   4.720   1.824  11.171  0.1448  0.1523 -0.0207
   70SLPC  H13A 5965   4.770   1.841  11.265 -2.5971  1.5015  1.2612
   70SLPC  H13B 5966   4.766   1.742  11.119  1.5959  0.0095  1.4459
   70SLPC  H13C 5967   4.743   1.922  11.131  0.2209  1.7434  3.6323
   70SLPC   C14 5968   4.522   1.922  11.276 -0.7660 -0.3248 -0.2010
   70SLPC  H14A 5969   4.553   1.917  11.379  1.2621 -1.4337 -0.8337
   70SLPC  H14B 5970   4.559   2.014  11.233  0.3405 -0.9237 -0.5392
   70SLPC  H14C 5971   4.415   1.932  11.261 -0.3505  0.4807 -2.7627
   70SLPC   C15 5972   4.551   1.689  11.280  0.5870 -0.6035 -0.5368
   70SLPC  H15A 5973   4.445   1.677  11.295  0.5424  1.5643  1.1078
   70SLPC  H15B 5974   4.596   1.603  11.233  0.7189 -1.6823  1.5006
   70SLPC  H15C 5975   4.596   1.700  11.377  1.0130 -0.2224 -0.7774
   70SLPC   C12 5976   4.513   1.795  11.053 -0.7900 -0.1168  0.1608
   70SLPC  H12A 5977   4.549   1.710  10.996 -0.2888  0.5483 -0.5266
   70SLPC  H12B 5978   4.552   1.875  10.991  1.0700 -2.8573 -2.3716
   70SLPC   C11 5979   4.359   1.799  11.040  0.1130 -0.3247  0.3789
   70SLPC  H11A 5980   4.319   1.716  11.101 -1.2107  0.5672  0.7295
   70SLPC  H11B 5981   4.343   1.772  10.933 -2.0673  1.8843  0.1133
   70SLPC     P 5982   4.249   2.035  10.994  0.2543  0.1146  0.1467
   70SLPC   O13 5983   4.158   2.125  11.075  0.0239  0.0980  0.0495
   70SLPC   O14 5984   4.366   2.094  10.926  0.0443  0.4934 -0.6330
   70SLPC   O12 5985   4.302   1.921  11.092  0.1378 -0.2088 -0.4350
   70SLPC   O11 5986   4.162   1.948  10.893  0.6196  0.2717  0.2754
   70SLPC    C1 5987   4.078   2.023  10.802  0.1105 -0.2150  0.1074
   70SLPC    HA 5988   3.973   2.011  10.835  0.4201 -2.0943  0.4480
   70SLPC    HB 5989   4.102   2.130  10.785 -0.4939 -0.0415  0.3380
   70SLPC    C2 5990   4.083   1.966  10.663  0.3468 -0.6658 -0.1378
   70SLPC    HS 5991   4.059   1.857  10.659 -0.9274 -0.4301  0.8469
   70SLPC   O21 5992   4.219   1.974  10.616  0.1601 -0.5120 -0.0181
   70SLPC   C21 5993   4.311   1.875  10.633 -0.4227 -0.2146 -0.3527
   70SLPC   O22 5994   4.285   1.766  10.671 -0.8900  0.2936  0.1083
   70SLPC   C22 5995   4.445   1.920  10.583  0.6716 -0.2113 -0.0665
   70SLPC   H2R 5996   4.445   2.029  10.560  0.3502  0.0382  1.0751
   70SLPC   H2S 5997   4.514   1.906  10.670 -0.4092  1.4924  1.1020
   70SLPC    C3 5998   3.986   2.034  10.570 -0.4465 -0.8649 -0.1645
   70SLPC    HX 5999   4.020   2.139  10.572  0.6083 -1.2186  1.5855
   70SLPC    HY 6000   3.884   2.022  10.611 -0.0615 -0.6936  0.8464
   70SLPC   O31 6001   3.979   1.970  10.443 -0.3831 -0.3841 -0.8999
   70SLPC   C31 6002   3.923   2.036  10.346 -0.0288 -0.8768  0.3297
   70SLPC   O32 6003   3.893   2.155  10.352 -0.0248 -0.2182 -0.4939
   70SLPC   C32 6004   3.922   1.945  10.227  0.4632  0.0820 -0.6198
   70SLPC   H2X 6005   3.877   1.848  10.256 -0.1581  1.1699  2.2786
   70SLPC   H2Y 6006   4.028   1.930  10.198  0.3850 -0.8811 -0.4296
   70SLPC   C23 6007   4.503   1.823  10.473  0.0488 -0.0385  0.6358
   70SLPC   H3R 6008   4.473   1.718  10.492 -1.7832  0.5732  1.2218
   70SLPC   H3S 6009   4.614   1.829  10.484  0.1862 -0.2886 -0.5116
   70SLPC   C24 6010   4.465   1.864  10.330 -0.1363  0.0928  0.6788
   70SLPC   H4R 6011   4.424   1.967  10.319  0.5190  0.2440 -0.4791
   70SLPC   H4S 6012   4.379   1.797  10.308 -1.6186  1.9829  0.4735
   70SLPC   C25 6013   4.578   1.845  10.222  0.1995  0.4319 -0.1438
   70SLPC   H5R 6014   4.602   1.738  10.203 -0.9640  0.2297 -0.4792
   70SLPC   H5S 6015   4.676   1.885  10.255 -0.4195 -0.2276  2.6472
   70SLPC   C26 6016   4.548   1.914  10.089 -0.4297 -0.4297  0.7388
   70SLPC   H6R 6017   4.634   1.894  10.022 -1.1315  1.7429 -0.8653
   70SLPC   H6S 6018   4.533   2.024  10.094 -4.4164 -0.9336  1.9562
   70SLPC   C27 6019   4.415   1.868  10.016  0.3027  0.6276  0.2234
   70SLPC   H7R 6020   4.340   1.902  10.091  0.1810 -0.4768  0.6167
   70SLPC   H7S 6021   4.419   1.757  10.017 -1.2826  0.4813 -3.3474
   70SLPC   C28 6022   4.402   1.931   9.882  0.5383  0.2029  0.2030
   70SLPC   H8R 6023   4.425   2.040   9.892  2.0808 -0.2686  2.0554
   70SLPC   H8S 6024   4.305   1.918   9.831  0.1005  1.6733  0.6214
   70SLPC   C29 6025   4.495   1.872   9.785  0.2949  0.9069  0.2296
   70SLPC   H9R 6026   4.519   1.768   9.809  0.6253  0.9942  0.2798
   70SLPC  C210 6027   4.539   1.933   9.672 -0.4767 -0.4868 -1.1353
   70SLPC  H10R 6028   4.594   1.878   9.594  0.6809 -0.9454 -0.0100
   70SLPC  C211 6029   4.498   2.076   9.634 -0.2633 -0.8118 -0.3582
   70SLPC  H11R 6030   4.522   2.147   9.716  0.7437 -1.3296 -0.1956
   70SLPC  H11S 6031   4.392   2.096   9.610  0.0180  1.5524  0.2255
   70SLPC  C212 6032   4.583   2.131   9.519 -0.5607 -0.4128  0.2921
   70SLPC  H12R 6033   4.669   2.195   9.545 -0.5314  0.4344 -1.7868
   70SLPC  C213 6034   4.570   2.096   9.387 -0.2156 -0.5799  1.2414
   70SLPC  H13R 6035   4.623   2.149   9.307 -0.9339  0.6476  1.5593
   70SLPC  C214 6036   4.472   1.993   9.342  0.2765 -0.2735  0.4605
   70SLPC  H14R 6037   4.398   2.033   9.269 -1.1569 -1.0448  1.4797
   70SLPC  H14S 6038   4.400   1.957   9.418 -1.9021 -1.4778 -2.0947
   70SLPC  C215 6039   4.542   1.874   9.282  0.6510  0.1348 -0.1478
   70SLPC  H15R 6040   4.464   1.800   9.253  0.4000  0.5419 -0.5242
   70SLPC  H15S 6041   4.632   1.845   9.339  0.7132 -0.7640 -0.7003
   70SLPC  C216 6042   4.601   1.897   9.137 -0.1983 -0.0563 -0.8611
   70SLPC  H16R 6043   4.653   1.803   9.108  0.5357  0.3236 -0.7816
   70SLPC  H16S 6044   4.677   1.978   9.139 -0.0849 -0.1868  1.9108
   70SLPC  C217 6045   4.494   1.930   9.036 -0.0562 -0.7507 -0.5515
   70SLPC  H17R 6046   4.475   2.038   9.052  1.7184 -0.2161 -1.8813
   70SLPC  H17S 6047   4.398   1.879   9.062  0.4468 -1.0810  0.7060
   70SLPC  C218 6048   4.545   1.916   8.888 -0.3871 -0.3951  0.1646
   70SLPC  H18R 6049   4.602   2.005   8.856  0.3098 -1.3851 -1.4345
   70SLPC  H18S 6050   4.454   1.910   8.824  0.5026 -3.4058 -0.9356
   70SLPC  H18T 6051   4.607   1.825   8.873 -0.4877 -0.0249 -2.8642
   70SLPC   C33 6052   3.836   1.997  10.113 -0.0864 -0.0809  0.2059
   70SLPC   H3X 6053   3.877   2.094  10.078  0.8098 -0.0458  1.3289
   70SLPC   H3Y 6054   3.735   2.018  10.156  0.5507  1.2160  1.0733
   70SLPC   C34 6055   3.814   1.897   9.996  0.6873  0.1834 -0.2733
   70SLPC   H4X 6056   3.762   1.806  10.036  2.7740 -0.1634  1.7718
   70SLPC   H4Y 6057   3.907   1.876   9.940  0.0845  1.9357 -1.9649
   70SLPC   C35 6058   3.717   1.957   9.889  0.0635 -0.2172 -0.2132
   70SLPC   H5X 6059   3.744   2.064   9.877  0.2698 -0.0810  1.3302
   70SLPC   H5Y 6060   3.611   1.965   9.920  0.0093  1.1159 -0.6904
   70SLPC   C36 6061   3.718   1.877   9.757 -0.2088 -0.3174 -0.3698
   70SLPC   H6X 6062   3.685   1.773   9.778 -0.6948  0.0908  0.9573
   70SLPC   H6Y 6063   3.823   1.885   9.721 -0.0959  0.0641  0.0407
   70SLPC   C37 6064   3.637   1.952   9.648  0.4331  0.5245  0.2485
   70SLPC   H7X 6065   3.674   2.057   9.647 -0.7117  0.9425 -2.5748
   70SLPC   H7Y 6066   3.530   1.957   9.678  0.8654 -1.3455  2.2749
   70SLPC   C38 6067   3.655   1.889   9.514 -0.0351  0.0596  0.9037
   70SLPC   H8X 6068   3.621   1.784   9.498 -0.9188  0.2538  1.4467
   70SLPC   H8Y 6069   3.765   1.891   9.498  0.0378 -0.7852  1.2746
   70SLPC   C39 6070   3.588   1.973   9.402  0.0599 -0.8640 -0.2067
   70SLPC   H9X 6071   3.636   2.073   9.392  0.1180 -1.0765 -2.2033
   70SLPC   H9Y 6072   3.480   1.995   9.417  0.5139  1.4786 -0.1280
   70SLPC  C310 6073   3.589   1.910   9.261 -0.0515  0.2910 -0.3781
   70SLPC  H10X 6074   3.490   1.860   9.255  0.6911 -1.2483  0.1248
   70SLPC  H10Y 6075   3.663   1.827   9.260 -1.3452 -0.9487  2.2845
   70SLPC  C311 6076   3.626   2.004   9.143 -0.5590 -0.3497 -0.2624
   70SLPC  H11X 6077   3.735   2.026   9.145 -0.4789 -0.6946 -0.6086
   70SLPC  H11Y 6078   3.559   2.092   9.146 -2.5842 -1.7845 -2.0543
   70SLPC  C312 6079   3.602   1.945   9.004  0.1893 -0.1592  0.3607
   70SLPC  H12X 6080   3.597   2.022   8.924  0.0687 -0.3452  0.1897
   70SLPC  H12Y 6081   3.505   1.892   9.000 -0.0651  0.4312 -2.1436
   70SLPC  C313 6082   3.710   1.850   8.961  0.6940  0.0756  0.3743
   70SLPC  H13X 6083   3.704   1.756   9.021 -0.3596  0.3443  0.6996
   70SLPC  H13Y 6084   3.805   1.905   8.974  1.0484 -0.2893 -0.5945
   70SLPC  C314 6085   3.695   1.819   8.809  0.4980  0.4632 -1.0663
   70SLPC  H14X 6086   3.587   1.824   8.780  1.1962  0.4034 -3.8336
   70SLPC  H14Y 6087   3.740   1.719   8.788  0.2728  0.1598 -0.1465
   70SLPC  C315 6088   3.768   1.923   8.721 -1.0204  0.5668  0.1711
   70SLPC  H15X 6089   3.875   1.892   8.719 -0.8422  1.2122 -0.8524
   70SLPC  H15Y 6090   3.769   2.025   8.765 -2.0440  0.3106  0.7928
   70SLPC  C316 6091   3.725   1.922   8.573 -0.3317 -1.0716 -0.6488
   70SLPC  H16X 6092   3.711   1.816   8.544 -2.2721 -1.8693  2.9020
   70SLPC  H16Y 6093   3.801   1.973   8.510 -0.5751 -0.2358 -0.2769
   70SLPC  C317 6094   3.603   1.999   8.555  0.1801  0.8232 -0.1917
   70SLPC  H17X 6095   3.619   2.096   8.605  0.4557  0.4654  0.4189
   70SLPC  H17Y 6096   3.514   1.951   8.601  0.0319  1.1999 -0.0865
   70SLPC  C318 6097   3.574   2.011   8.402  0.1592 -0.1524 -0.0369
   70SLPC  H18X 6098   3.549   1.915   8.353  1.5959 -0.3164 -0.4738
   70SLPC  H18Y 6099   3.667   2.047   8.354 -0.3752  2.7689  0.9809
   70SLPC  H18Z 6100   3.496   2.089   8.388 -1.0237 -1.7938 -2.9989
   71SLPC     N 6101   3.411   0.273  10.907 -0.6398 -0.1612 -0.2027
   71SLPC   C13 6102   3.502   0.387  10.929 -0.5679  0.2046 -0.3340
   71SLPC  H13A 6103   3.605   0.352  10.935 -0.4450  0.4384 -1.0302
   71SLPC  H13B 6104   3.503   0.455  10.846  0.8800  1.8895  1.0104
   71SLPC  H13C 6105   3.480   0.432  11.025  0.5807 -0.7998  0.4169
   71SLPC   C14 6106   3.271   0.332  10.884  0.5179 -0.0759  0.3376
   71SLPC  H14A 6107   3.241   0.393  10.968  1.1802 -1.7556  1.8228
   71SLPC  H14B 6108   3.271   0.397  10.797 -1.1666 -0.7970 -0.2212
   71SLPC  H14C 6109   3.189   0.262  10.883  0.7261 -0.3142 -0.2755
   71SLPC   C15 6110   3.412   0.173  11.019 -0.7748 -0.4006  0.5975
   71SLPC  H15A 6111   3.507   0.122  11.014 -0.3415  0.4823 -0.2617
   71SLPC  H15B 6112   3.417   0.225  11.114  0.0300  0.9715 -0.1762
   71SLPC  H15C 6113   3.330   0.104  11.006  0.6600 -2.3175  1.5061
   71SLPC   C12 6114   3.447   0.201  10.772  0.1442 -0.2229  0.3168
   71SLPC  H12A 6115   3.456   0.279  10.698 -0.4339 -1.2209 -0.8214
   71SLPC  H12B 6116   3.379   0.122  10.743  2.3827 -1.1170 -2.7814
   71SLPC   C11 6117   3.588   0.144  10.762  0.4992 -0.1294 -0.0859
   71SLPC  H11A 6118   3.590   0.070  10.679  0.9812 -0.4439  0.2012
   71SLPC  H11B 6119   3.608   0.077  10.848  3.6756  1.2721  0.3238
   71SLPC     P 6120   3.724   0.315  10.622  0.4592 -0.1284  0.4283
   71SLPC   O13 6121   3.712   0.460  10.657 -0.0680  0.3454  0.1268
   71SLPC   O14 6122   3.846   0.274  10.566 -0.4651  0.0463  0.3965
   71SLPC   O12 6123   3.702   0.233  10.749  0.0466  0.4740 -0.4236
   71SLPC   O11 6124   3.599   0.285  10.517  0.5184 -0.5141  0.8819
   71SLPC    C1 6125   3.627   0.201  10.404 -0.7391  0.0801  0.2105
   71SLPC    HA 6126   3.709   0.128  10.423 -0.5290  0.4248  0.6047
   71SLPC    HB 6127   3.532   0.145  10.384 -1.3219  1.2706 -0.4003
   71SLPC    C2 6128   3.655   0.275  10.274 -0.0280  0.5328  0.3390
   71SLPC    HS 6129   3.757   0.318  10.289  0.2720  1.3348 -3.4546
   71SLPC   O21 6130   3.547   0.365  10.247 -0.4176 -0.1853  0.1636
   71SLPC   C21 6131   3.585   0.473  10.184 -0.2134  0.9005  0.3229
   71SLPC   O22 6132   3.700   0.501  10.149  0.5676 -0.4968 -0.1662
   71SLPC   C22 6133   3.464   0.570  10.164  0.0667 -0.4209  0.1929
   71SLPC   H2R 6134   3.379   0.500  10.177 -0.8589  0.8618  1.2006
   71SLPC   H2S 6135   3.469   0.653  10.238 -0.7738 -1.4912  1.4752
   71SLPC    C3 6136   3.658   0.175  10.157 -0.7234  0.1556  0.6028
   71SLPC    HX 6137   3.555   0.137  10.136 -0.7951  0.1682  0.9213
   71SLPC    HY 6138   3.729   0.094  10.184 -0.7716 -0.0517  0.1172
   71SLPC   O31 6139   3.697   0.230  10.035 -0.1844 -0.2341  0.3837
   71SLPC   C31 6140   3.826   0.268  10.020  0.6628 -0.4310  0.2190
   71SLPC   O32 6141   3.914   0.248  10.098 -0.1821  0.1226  0.2348
   71SLPC   C32 6142   3.844   0.334   9.882  0.1376 -0.1910  0.2448
   71SLPC   H2X 6143   3.763   0.410   9.879 -1.7153 -2.1193 -0.2734
   71SLPC   H2Y 6144   3.818   0.264   9.800 -0.6972 -1.6969  1.7611
   71SLPC   C23 6145   3.470   0.630  10.016 -0.2445 -0.3083  0.0187
   71SLPC   H3R 6146   3.567   0.682  10.007 -0.6940  0.6280  0.4657
   71SLPC   H3S 6147   3.394   0.709   9.997  0.6814  0.5241 -0.2629
   71SLPC   C24 6148   3.443   0.521   9.909 -0.5212 -0.1167 -0.8526
   71SLPC   H4R 6149   3.334   0.499   9.916 -0.7472  1.1801 -0.2273
   71SLPC   H4S 6150   3.504   0.429   9.921  1.7361  1.5196  0.4103
   71SLPC   C25 6151   3.474   0.596   9.776  0.1106 -0.0703 -0.7567
   71SLPC   H5R 6152   3.581   0.627   9.780 -1.2823  5.0569  0.0974
   71SLPC   H5S 6153   3.411   0.687   9.763 -1.7203 -1.3133 -0.8471
   71SLPC   C26 6154   3.450   0.502   9.655 -1.2329 -0.0659 -0.0912
   71SLPC   H6R 6155   3.344   0.471   9.658 -1.8069  1.8267 -0.2721
   71SLPC   H6S 6156   3.499   0.404   9.670 -0.8507 -0.0993 -1.4879
   71SLPC   C27 6157   3.499   0.567   9.528 -0.2419  0.1748 -0.3466
   71SLPC   H7R 6158   3.608   0.586   9.516 -0.0892 -0.8412 -0.5571
   71SLPC   H7S 6159   3.457   0.670   9.527  0.5587  0.5048 -1.6683
   71SLPC   C28 6160   3.439   0.496   9.400 -0.0870  0.1876  0.0755
   71SLPC   H8R 6161   3.457   0.571   9.321 -1.0714 -0.5786 -0.8888
   71SLPC   H8S 6162   3.330   0.474   9.410  0.1417 -1.5050 -0.9032
   71SLPC   C29 6163   3.524   0.372   9.372  0.4293 -0.5893  0.8636
   71SLPC   H9R 6164   3.529   0.310   9.463 -2.0686 -0.6175  1.0379
   71SLPC  C210 6165   3.597   0.341   9.264 -0.1006 -0.2145  0.0488
   71SLPC  H10R 6166   3.648   0.244   9.273  0.4828 -0.0049 -0.9172
   71SLPC  C211 6167   3.608   0.415   9.141 -0.2597  0.1250  0.6156
   71SLPC  H11R 6168   3.521   0.404   9.072  0.5395  0.7752 -0.5186
   71SLPC  H11S 6169   3.687   0.359   9.086  0.0312  0.3808  0.7683
   71SLPC  C212 6170   3.654   0.561   9.141  0.5088  0.0563  0.2768
   71SLPC  H12R 6171   3.702   0.585   9.237  3.3262  1.0665 -1.3074
   71SLPC  C213 6172   3.661   0.652   9.042 -0.2257 -0.5514 -0.1759
   71SLPC  H13R 6173   3.700   0.755   9.051  2.7087 -1.7471  1.2350
   71SLPC  C214 6174   3.621   0.620   8.904 -0.9669  0.2388  0.3280
   71SLPC  H14R 6175   3.519   0.655   8.880 -0.1458  0.9132 -2.3435
   71SLPC  H14S 6176   3.619   0.510   8.890 -1.8909  0.4602 -1.4209
   71SLPC  C215 6177   3.714   0.675   8.800  0.2521  1.0238  0.2698
   71SLPC  H15R 6178   3.721   0.785   8.809 -0.3236  0.9815  1.3128
   71SLPC  H15S 6179   3.666   0.642   8.705  1.4700 -1.0354  0.3238
   71SLPC  C216 6180   3.856   0.612   8.785 -0.8693  0.0620  0.6298
   71SLPC  H16R 6181   3.863   0.531   8.861 -2.7943  0.7297  1.5572
   71SLPC  H16S 6182   3.923   0.697   8.809 -0.6473  0.6824 -2.0396
   71SLPC  C217 6183   3.898   0.556   8.645  0.3355  0.3905  0.5982
   71SLPC  H17R 6184   3.806   0.505   8.607  0.6059  1.4390 -1.5197
   71SLPC  H17S 6185   3.969   0.470   8.646  1.3012  1.0695 -3.2791
   71SLPC  C218 6186   3.938   0.658   8.539 -0.0776 -0.3309  0.3457
   71SLPC  H18R 6187   3.995   0.606   8.459 -0.8072  0.1107 -0.4692
   71SLPC  H18S 6188   4.009   0.731   8.584 -0.8367  0.9836 -0.5177
   71SLPC  H18T 6189   3.859   0.712   8.482  2.7064  1.8778 -1.5596
   71SLPC   C33 6190   3.981   0.398   9.852  0.6632  0.3620 -0.0148
   71SLPC   H3X 6191   4.058   0.325   9.817 -1.3810 -0.5897 -2.6933
   71SLPC   H3Y 6192   4.022   0.441   9.946 -0.9867  0.3782  0.7065
   71SLPC   C34 6193   3.969   0.501   9.742 -0.9999 -0.2250 -0.6621
   71SLPC   H4X 6194   4.067   0.551   9.724 -1.3522  1.2783  1.5137
   71SLPC   H4Y 6195   3.895   0.579   9.768 -1.2062 -1.1794  1.7303
   71SLPC   C35 6196   3.955   0.434   9.607  0.6670  0.5623 -0.3876
   71SLPC   H5X 6197   3.855   0.386   9.599  0.9738 -0.0598 -0.4951
   71SLPC   H5Y 6198   4.026   0.351   9.588 -0.0681  0.0178 -0.8029
   71SLPC   C36 6199   3.958   0.528   9.484  0.7341  0.3297 -0.5505
   71SLPC   H6X 6200   4.050   0.589   9.484  1.4360 -0.7185 -0.1291
   71SLPC   H6Y 6201   3.873   0.599   9.492 -0.5291 -1.2607  0.4658
   71SLPC   C37 6202   3.962   0.453   9.349  0.2290  0.4568 -0.9118
   71SLPC   H7X 6203   3.862   0.421   9.315 -0.5546  0.7499  1.0468
   71SLPC   H7Y 6204   4.022   0.362   9.371 -1.6668 -1.0698 -1.9935
   71SLPC   C38 6205   4.038   0.535   9.246  0.5459  0.3660 -0.2497
   71SLPC   H8X 6206   4.143   0.538   9.281 -0.6360 -1.8091  3.7891
   71SLPC   H8Y 6207   3.999   0.638   9.259 -1.4769 -0.0611 -2.4208
   71SLPC   C39 6208   4.029   0.496   9.099  0.1971  0.4958  0.2374
   71SLPC   H9X 6209   3.919   0.487   9.082  0.0719 -0.3957  1.5013
   71SLPC   H9Y 6210   4.065   0.392   9.084  1.7249  1.0082  0.3419
   71SLPC  C310 6211   4.107   0.593   9.012  0.2184 -0.6338  0.2685
   71SLPC  H10X 6212   4.077   0.699   9.020 -0.4422 -0.5438 -2.9237
   71SLPC  H10Y 6213   4.100   0.562   8.906 -0.5735  2.1509 -0.5276
   71SLPC  C311 6214   4.260   0.575   9.045  0.6643 -0.5154  0.4061
   71SLPC  H11X 6215   4.283   0.467   9.040 -0.7650 -0.8838  1.4011
   71SLPC  H11Y 6216   4.276   0.613   9.148  2.0225  0.4344 -0.1413
   71SLPC  C312 6217   4.351   0.655   8.944  0.0453 -0.1965  0.4576
   71SLPC  H12X 6218   4.454   0.680   8.979  1.5230 -1.3592 -2.8554
   71SLPC  H12Y 6219   4.298   0.748   8.915  2.3297  0.6715 -1.1509
   71SLPC  C313 6220   4.354   0.593   8.799 -0.3144 -0.4963  0.0467
   71SLPC  H13X 6221   4.390   0.668   8.725 -0.7601  0.4494  0.7835
   71SLPC  H13Y 6222   4.256   0.563   8.756 -0.5949  2.6551 -1.6710
   71SLPC  C314 6223   4.451   0.471   8.787  0.3438 -0.1621  0.0789
   71SLPC  H14X 6224   4.415   0.393   8.858  2.1316 -0.7574  0.3547
   71SLPC  H14Y 6225   4.550   0.499   8.828 -0.1729  4.0692 -1.3316
   71SLPC  C315 6226   4.480   0.415   8.653  0.1999 -0.6794  0.4308
   71SLPC  H15X 6227   4.383   0.375   8.614 -0.3499  0.8497  0.1895
   71SLPC  H15Y 6228   4.535   0.318   8.657 -1.1768 -1.4416  1.2294
   71SLPC  C316 6229   4.557   0.517   8.565 -0.4881  0.0326 -0.6998
   71SLPC  H16X 6230   4.627   0.561   8.640 -2.3095  1.1692  0.3660
   71SLPC  H16Y 6231   4.493   0.594   8.517  0.9314  1.2746 -0.6281
   71SLPC  C317 6232   4.632   0.437   8.452  0.0701  0.2916  0.2077
   71SLPC  H17X 6233   4.702   0.362   8.497 -0.9894 -0.7997  0.0633
   71SLPC  H17Y 6234   4.691   0.516   8.400  1.0116 -0.3093  0.3357
   71SLPC  C318 6235   4.537   0.363   8.353 -0.7038  0.2700 -0.0204
   71SLPC  H18X 6236   4.476   0.446   8.309 -0.3768  0.0449 -0.8987
   71SLPC  H18Y 6237   4.479   0.295   8.418 -0.0772  0.0663  0.3292
   71SLPC  H18Z 6238   4.603   0.314   8.278  2.5741  0.5615  2.5685
   72SLPC     N 6239   4.995   5.726  11.231 -0.2872  0.0753 -0.2239
   72SLPC   C13 6240   4.959   5.601  11.157 -0.7784 -0.4209  0.8647
   72SLPC  H13A 6241   4.853   5.596  11.137 -0.6052  2.0931 -1.0479
   72SLPC  H13B 6242   5.011   5.573  11.067 -1.0671 -1.8293  1.1176
   72SLPC  H13C 6243   4.988   5.529  11.231  1.8735 -0.4869 -0.1816
   72SLPC   C14 6244   5.136   5.726  11.287  0.8178  0.2827 -0.3069
   72SLPC  H14A 6245   5.148   5.646  11.358 -0.8902 -0.1737 -0.4919
   72SLPC  H14B 6246   5.207   5.706  11.208  2.9088 -0.6314  1.7749
   72SLPC  H14C 6247   5.159   5.809  11.352  0.1109  0.6441 -0.5010
   72SLPC   C15 6248   4.894   5.760  11.340 -0.0397  0.0737 -0.1818
   72SLPC  H15A 6249   4.800   5.792  11.297 -0.0454  1.3330  0.7468
   72SLPC  H15B 6250   4.880   5.676  11.406 -0.0465  1.0790  1.1218
   72SLPC  H15C 6251   4.929   5.838  11.405 -0.6515 -0.8497  1.2666
   72SLPC   C12 6252   4.977   5.842  11.121 -0.3008  0.0597 -0.2344
   72SLPC  H12A 6253   5.009   5.939  11.155  0.5223  0.0309 -0.9459
   72SLPC  H12B 6254   4.870   5.855  11.114 -0.8049 -2.3207  1.9917
   72SLPC   C11 6255   5.044   5.826  10.984 -0.9492 -0.8960 -0.2519
   72SLPC  H11A 6256   5.033   5.923  10.930 -2.7142 -0.3728  0.9856
   72SLPC  H11B 6257   5.002   5.738  10.933 -2.8228 -0.0372 -0.2227
   72SLPC     P 6258   5.297   5.814  10.884  0.0837  0.0384  0.1212
   72SLPC   O13 6259   5.360   5.945  10.908 -0.2754 -0.7749  0.0029
   72SLPC   O14 6260   5.393   5.706  10.902  0.2684  0.1936  0.5262
   72SLPC   O12 6261   5.185   5.797  10.991 -0.2579 -0.4440  0.1575
   72SLPC   O11 6262   5.224   5.814  10.743  0.8990  0.1951  0.0058
   72SLPC    C1 6263   5.135   5.710  10.693 -0.1616 -0.0921  0.1711
   72SLPC    HA 6264   5.138   5.622  10.760 -0.5301  0.9887  1.6388
   72SLPC    HB 6265   5.032   5.751  10.680  0.2244  0.5199 -0.9561
   72SLPC    C2 6266   5.203   5.658  10.559 -0.4034 -0.6817 -0.2077
   72SLPC    HS 6267   5.291   5.600  10.596 -1.2014 -1.2472  0.8207
   72SLPC   O21 6268   5.241   5.761  10.468  0.7207 -0.0802  0.1335
   72SLPC   C21 6269   5.370   5.783  10.443  0.4788  0.1180  0.6721
   72SLPC   O22 6270   5.462   5.718  10.487 -0.3827 -0.0006  0.2165
   72SLPC   C22 6271   5.391   5.917  10.375  0.4443  0.7802  0.1213
   72SLPC   H2R 6272   5.350   5.992  10.445  3.6260  0.6371  2.2344
   72SLPC   H2S 6273   5.498   5.938  10.354  0.3554  1.3773  0.2532
   72SLPC    C3 6274   5.105   5.557  10.488 -0.2519 -0.4445 -0.0394
   72SLPC    HX 6275   5.012   5.611  10.462 -0.4061  1.0334  3.3761
   72SLPC    HY 6276   5.092   5.485  10.571  0.8469 -1.4387 -0.7143
   72SLPC   O31 6277   5.160   5.496  10.367  0.2407  0.3181 -0.2354
   72SLPC   C31 6278   5.111   5.535  10.245 -0.1968  0.2333  0.1845
   72SLPC   O32 6279   5.025   5.615  10.234 -0.3457 -0.1545  0.3635
   72SLPC   C32 6280   5.192   5.465  10.136 -0.3112 -0.4214  0.6893
   72SLPC   H2X 6281   5.162   5.360  10.117 -1.7421 -0.0641  0.8777
   72SLPC   H2Y 6282   5.294   5.464  10.179 -1.1043  0.3656  2.6536
   72SLPC   C23 6283   5.326   5.920  10.237  0.3134  0.0663 -0.5752
   72SLPC   H3R 6284   5.301   6.025  10.210 -3.0690  0.0094  2.0284
   72SLPC   H3S 6285   5.233   5.860  10.247  0.4024 -0.4523 -2.6278
   72SLPC   C24 6286   5.405   5.848  10.126 -0.3853 -0.3771  0.2439
   72SLPC   H4R 6287   5.334   5.813  10.048 -0.3370 -0.1277  0.0890
   72SLPC   H4S 6288   5.463   5.767  10.176 -1.6051 -0.6739  1.2140
   72SLPC   C25 6289   5.497   5.944  10.042  0.4286  0.2314  0.0858
   72SLPC   H5R 6290   5.573   5.990  10.109  0.2454 -0.8020  1.0256
   72SLPC   H5S 6291   5.432   6.015   9.988 -0.2880 -0.6727 -0.2587
   72SLPC   C26 6292   5.568   5.871   9.930 -0.1729  0.1822  0.7114
   72SLPC   H6R 6293   5.488   5.812   9.881 -0.0724 -0.6204  1.4989
   72SLPC   H6S 6294   5.634   5.789   9.968 -1.6685 -0.8588  1.1117
   72SLPC   C27 6295   5.640   5.964   9.839 -0.1368  0.3650  0.1162
   72SLPC   H7R 6296   5.715   6.019   9.901  0.7791 -1.1429  0.3789
   72SLPC   H7S 6297   5.569   6.041   9.804  1.7192  1.5675 -1.1272
   72SLPC   C28 6298   5.714   5.894   9.721 -0.8510 -0.0137  0.1143
   72SLPC   H8R 6299   5.789   5.818   9.749  0.5667  0.2687 -2.7899
   72SLPC   H8S 6300   5.766   5.972   9.661 -1.4162 -1.0297 -1.7436
   72SLPC   C29 6301   5.619   5.825   9.625 -0.3688 -0.2248  0.5567
   72SLPC   H9R 6302   5.548   5.752   9.667  0.2579 -0.6500  0.8664
   72SLPC  C210 6303   5.621   5.846   9.492  0.5864  1.0056  0.2434
   72SLPC  H10R 6304   5.548   5.783   9.438  1.9134 -0.5591  0.2323
   72SLPC  C211 6305   5.703   5.926   9.405  0.4191 -0.0608 -0.4773
   72SLPC  H11R 6306   5.756   5.996   9.473 -1.5444 -1.6734  2.8139
   72SLPC  H11S 6307   5.641   5.987   9.336 -1.0060  1.0395  1.7476
   72SLPC  C212 6308   5.784   5.824   9.321  0.2906 -0.3555  0.5724
   72SLPC  H12R 6309   5.864   5.771   9.374  1.3653 -0.6150 -1.2686
   72SLPC  C213 6310   5.760   5.792   9.193 -0.0878 -0.0321 -0.4713
   72SLPC  H13R 6311   5.823   5.710   9.155  1.2364  0.5477  0.3826
   72SLPC  C214 6312   5.650   5.849   9.106  0.1533 -0.2163  0.0797
   72SLPC  H14R 6313   5.618   5.950   9.139 -1.1535  0.7807 -3.9469
   72SLPC  H14S 6314   5.577   5.766   9.095  1.0120 -0.8873 -0.7897
   72SLPC  C215 6315   5.682   5.875   8.952  0.6108  0.3652 -0.9533
   72SLPC  H15R 6316   5.712   5.776   8.914  1.5226  0.2467  0.0610
   72SLPC  H15S 6317   5.763   5.951   8.950  0.5149  0.5453  0.9830
   72SLPC  C216 6318   5.558   5.921   8.880 -0.3254 -0.3903  0.2654
   72SLPC  H16R 6319   5.527   6.023   8.910  1.3551  0.9951 -2.4926
   72SLPC  H16S 6320   5.472   5.852   8.895  0.6648 -2.2227 -2.1375
   72SLPC  C217 6321   5.577   5.921   8.730 -0.1176  0.3681 -0.3611
   72SLPC  H17R 6322   5.609   5.817   8.708  0.7250  0.3723  0.7964
   72SLPC  H17S 6323   5.659   5.988   8.696  0.1353  0.0077 -0.4560
   72SLPC  C218 6324   5.454   5.960   8.651  0.4356  0.3315 -0.4242
   72SLPC  H18R 6325   5.373   5.888   8.675 -0.3274  1.1450 -0.5509
   72SLPC  H18S 6326   5.484   5.951   8.544  0.1759  0.2235 -0.4888
   72SLPC  H18T 6327   5.420   6.064   8.666  2.1538  1.1097 -1.7752
   72SLPC   C33 6328   5.193   5.543  10.004 -0.2506  0.0700 -0.4850
   72SLPC   H3X 6329   5.261   5.630  10.008  1.0432 -0.8943 -1.0183
   72SLPC   H3Y 6330   5.101   5.590   9.962 -1.1607  0.4791  1.9284
   72SLPC   C34 6331   5.258   5.454   9.898  0.2903  0.4994 -0.1884
   72SLPC   H4X 6332   5.179   5.375   9.898  1.5510 -0.7906  1.4798
   72SLPC   H4Y 6333   5.353   5.410   9.932 -0.0236 -0.7486 -0.8715
   72SLPC   C35 6334   5.275   5.528   9.764  0.0111  0.1617  0.5465
   72SLPC   H5X 6335   5.366   5.590   9.780 -0.1737  0.0414  2.1710
   72SLPC   H5Y 6336   5.187   5.594   9.747  0.8560  0.7204 -1.8536
   72SLPC   C36 6337   5.281   5.431   9.653  0.6455  0.3174 -0.2229
   72SLPC   H6X 6338   5.177   5.425   9.616 -0.6756  0.6562  3.2210
   72SLPC   H6Y 6339   5.320   5.334   9.692 -0.2212  0.4589  1.0374
   72SLPC   C37 6340   5.365   5.477   9.537  0.0782  0.1403  0.0507
   72SLPC   H7X 6341   5.473   5.462   9.559  0.4817  1.3980 -1.0429
   72SLPC   H7Y 6342   5.359   5.588   9.538  0.6471  0.1851 -1.6850
   72SLPC   C38 6343   5.325   5.417   9.399 -0.1409  0.0911  0.2578
   72SLPC   H8X 6344   5.215   5.424   9.384  0.0525  1.0568 -0.7495
   72SLPC   H8Y 6345   5.349   5.310   9.381 -1.9207 -0.0224 -1.5724
   72SLPC   C39 6346   5.399   5.493   9.285  0.3255  0.2582 -0.3820
   72SLPC   H9X 6347   5.506   5.479   9.312  0.1968  0.3924  0.1916
   72SLPC   H9Y 6348   5.370   5.600   9.285 -1.3204 -0.1666  0.5877
   72SLPC  C310 6349   5.374   5.436   9.142  0.4979  0.2676  0.8165
   72SLPC  H10X 6350   5.267   5.410   9.131  0.4712  0.3720  0.8260
   72SLPC  H10Y 6351   5.421   5.335   9.146 -0.5151 -0.1577  2.5487
   72SLPC  C311 6352   5.423   5.525   9.034  0.8654  0.0289 -0.1838
   72SLPC  H11X 6353   5.532   5.508   9.024  0.1318 -4.1650 -1.9922
   72SLPC  H11Y 6354   5.390   5.628   9.059  0.4390 -0.4589  1.3045
   72SLPC  C312 6355   5.369   5.476   8.899  0.6642 -0.1277  0.3227
   72SLPC  H12X 6356   5.260   5.454   8.909  0.9363 -1.2549  0.9537
   72SLPC  H12Y 6357   5.426   5.384   8.873 -1.4570 -1.7851  1.3814
   72SLPC  C313 6358   5.361   5.582   8.795 -0.9673  0.0771  0.3421
   72SLPC  H13X 6359   5.466   5.612   8.772 -0.7096 -1.7186 -0.9489
   72SLPC  H13Y 6360   5.312   5.676   8.828 -0.1035  0.9024 -0.6897
   72SLPC  C314 6361   5.316   5.524   8.658  0.3154 -0.0966  0.5179
   72SLPC  H14X 6362   5.207   5.500   8.663 -0.1157  1.5304 -0.4373
   72SLPC  H14Y 6363   5.368   5.427   8.645  0.1653 -0.3387  1.6683
   72SLPC  C315 6364   5.342   5.622   8.543  0.5736  1.1484  0.2084
   72SLPC  H15X 6365   5.452   5.640   8.553  0.5701  0.7978  0.8621
   72SLPC  H15Y 6366   5.282   5.713   8.564 -3.4022 -1.6302  1.4005
   72SLPC  C316 6367   5.306   5.568   8.403 -0.3887 -0.0599 -0.5116
   72SLPC  H16X 6368   5.196   5.557   8.388 -0.2750 -0.2603 -1.2391
   72SLPC  H16Y 6369   5.351   5.471   8.375 -0.9801 -0.4900  0.0152
   72SLPC  C317 6370   5.351   5.666   8.291  0.2410  0.6894  0.5098
   72SLPC  H17X 6371   5.456   5.637   8.268  0.1178 -0.8626  1.7639
   72SLPC  H17Y 6372   5.348   5.773   8.320 -0.2760  1.5981 -2.6985
   72SLPC  C318 6373   5.279   5.649   8.163  0.1467  0.8350  0.1691
   72SLPC  H18X 6374   5.171   5.677   8.169 -0.0864  0.2803 -1.2727
   72SLPC  H18Y 6375   5.283   5.543   8.132 -0.8095 -0.0746  3.0031
   72SLPC  H18Z 6376   5.315   5.715   8.081  2.0191 -0.7469 -0.3047
   73SLPC     N 6377   5.629   4.019  11.068  0.0184  0.0430  0.2838
   73SLPC   C13 6378   5.629   4.155  11.005 -0.2270 -0.5339  0.3672
   73SLPC  H13A 6379   5.732   4.177  10.981 -0.8270  1.6654 -0.3071
   73SLPC  H13B 6380   5.568   4.155  10.916  0.5643 -2.2178 -0.1960
   73SLPC  H13C 6381   5.584   4.233  11.065 -1.8183 -0.7563 -0.5064
   73SLPC   C14 6382   5.742   4.023  11.166  0.1357 -0.4933 -0.1721
   73SLPC  H14A 6383   5.725   4.102  11.237  2.4517 -0.9665  0.9694
   73SLPC  H14B 6384   5.754   3.927  11.213 -0.2610 -1.1712 -1.4314
   73SLPC  H14C 6385   5.826   4.039  11.100 -0.7188  1.3325 -0.8557
   73SLPC   C15 6386   5.644   3.913  10.965 -0.3176 -0.2009 -0.0185
   73SLPC  H15A 6387   5.663   3.821  11.018 -1.2910 -0.1453  0.4522
   73SLPC  H15B 6388   5.556   3.895  10.905  0.5906 -0.9205 -1.1609
   73SLPC  H15C 6389   5.720   3.933  10.891  0.0361  0.0530  0.4104
   73SLPC   C12 6390   5.500   4.002  11.145 -0.5283 -1.0259 -0.8088
   73SLPC  H12A 6391   5.506   4.070  11.229 -0.0002  1.1077 -2.5260
   73SLPC  H12B 6392   5.490   3.903  11.186  2.2099 -2.0518 -2.5081
   73SLPC   C11 6393   5.364   4.022  11.077 -0.6692  0.5342  0.5042
   73SLPC  H11A 6394   5.282   3.996  11.147 -2.0394 -1.8777 -1.8788
   73SLPC  H11B 6395   5.354   3.964  10.983  2.1920  0.2337  0.3249
   73SLPC     P 6396   5.231   4.204  10.949  0.0123  0.1610 -0.0699
   73SLPC   O13 6397   5.110   4.128  10.978 -0.1232 -0.3752 -0.0734
   73SLPC   O14 6398   5.229   4.348  10.944  0.3216 -0.4571 -0.1398
   73SLPC   O12 6399   5.344   4.156  11.043 -0.2281  0.4246  0.1311
   73SLPC   O11 6400   5.285   4.163  10.812 -0.7734  0.3689 -0.8687
   73SLPC    C1 6401   5.373   4.225  10.730 -0.9125  0.5438  0.2620
   73SLPC    HA 6402   5.444   4.295  10.779 -1.0896  1.0931 -0.2677
   73SLPC    HB 6403   5.427   4.144  10.677 -0.0767  0.8851  0.5887
   73SLPC    C2 6404   5.291   4.295  10.620  0.2646 -0.4521 -0.3257
   73SLPC    HS 6405   5.227   4.365  10.677  0.2377 -0.3887 -0.4338
   73SLPC   O21 6406   5.213   4.200  10.545  0.9946  0.0545 -0.3591
   73SLPC   C21 6407   5.090   4.245  10.510  0.4810 -0.2294  0.0427
   73SLPC   O22 6408   5.042   4.347  10.558  0.2785 -0.2633  0.5346
   73SLPC   C22 6409   5.035   4.162  10.399  0.3888 -0.0784 -0.4260
   73SLPC   H2R 6410   4.964   4.096  10.452  0.2287  0.1650 -0.3360
   73SLPC   H2S 6411   4.979   4.241  10.344  1.0552  1.0858  0.5330
   73SLPC    C3 6412   5.378   4.376  10.519 -0.3015 -0.3805  0.2875
   73SLPC    HX 6413   5.407   4.305  10.438 -0.1816 -1.9972  1.7026
   73SLPC    HY 6414   5.468   4.409  10.574  0.0619 -1.1331  0.1564
   73SLPC   O31 6415   5.306   4.480  10.456  0.2571  0.4656 -0.3021
   73SLPC   C31 6416   5.373   4.589  10.417 -0.1975  0.7206 -0.1221
   73SLPC   O32 6417   5.492   4.613  10.435  0.7023 -0.1233  0.2994
   73SLPC   C32 6418   5.280   4.674  10.334 -0.8070 -0.0073 -0.4918
   73SLPC   H2X 6419   5.336   4.763  10.299 -0.5891  0.7488  1.7090
   73SLPC   H2Y 6420   5.193   4.705  10.395  0.3893 -0.4798  1.4990
   73SLPC   C23 6421   5.128   4.093  10.299 -0.0731  0.7634  0.6474
   73SLPC   H3R 6422   5.167   4.015  10.368  0.9705  2.7282  2.3590
   73SLPC   H3S 6423   5.221   4.146  10.268 -0.1404  1.5144  1.7070
   73SLPC   C24 6424   5.067   4.025  10.178 -0.3051 -0.1816 -0.3073
   73SLPC   H4R 6425   4.978   3.969  10.213 -1.3663  1.9671  0.5459
   73SLPC   H4S 6426   5.139   3.954  10.133  0.6633 -1.2432  2.7578
   73SLPC   C25 6427   5.027   4.130  10.068  0.2304  0.1971 -0.0788
   73SLPC   H5R 6428   5.115   4.179  10.021  0.9278 -2.0155 -1.1226
   73SLPC   H5S 6429   4.956   4.211  10.096 -0.5870 -0.3757 -0.4792
   73SLPC   C26 6430   4.966   4.051   9.949 -0.8070 -0.1964  0.1304
   73SLPC   H6R 6431   4.879   3.991   9.983  0.3695 -1.6645  0.6004
   73SLPC   H6S 6432   5.034   3.983   9.894 -0.7861  2.2439 -2.9450
   73SLPC   C27 6433   4.906   4.160   9.851 -0.0444  0.2704 -0.4254
   73SLPC   H7R 6434   4.991   4.222   9.817 -0.6792  0.7330 -1.2042
   73SLPC   H7S 6435   4.835   4.230   9.900  2.5943  0.2414  3.6333
   73SLPC   C28 6436   4.830   4.108   9.721 -0.5040  0.4815  0.7287
   73SLPC   H8R 6437   4.816   4.194   9.652 -0.1857  1.2242  1.5703
   73SLPC   H8S 6438   4.734   4.074   9.766 -0.4754  0.3517  0.6921
   73SLPC   C29 6439   4.900   3.995   9.652  0.4137 -0.6952 -0.1462
   73SLPC   H9R 6440   4.921   3.913   9.722 -1.1404 -2.1989 -1.3915
   73SLPC  C210 6441   4.938   3.984   9.517  0.2600 -0.0135 -0.3345
   73SLPC  H10R 6442   4.990   3.893   9.483 -0.1012 -0.8279  1.2755
   73SLPC  C211 6443   4.910   4.083   9.405 -0.1378  0.3082  0.0231
   73SLPC  H11R 6444   4.968   4.050   9.317  2.5524 -0.1797  1.9217
   73SLPC  H11S 6445   4.946   4.185   9.433  0.2878  0.7489 -2.0710
   73SLPC  C212 6446   4.762   4.098   9.376  0.4636  0.1572 -0.2648
   73SLPC  H12R 6447   4.686   4.048   9.438 -0.8252 -0.4843 -2.2994
   73SLPC  C213 6448   4.724   4.153   9.261  0.2885 -0.2013 -0.0501
   73SLPC  H13R 6449   4.615   4.161   9.249  0.5153  0.2558 -1.9575
   73SLPC  C214 6450   4.805   4.221   9.150 -0.0050  0.0967 -0.4784
   73SLPC  H14R 6451   4.913   4.199   9.170 -0.4193 -2.5442 -0.9395
   73SLPC  H14S 6452   4.786   4.329   9.166  0.0986  0.2372 -1.2816
   73SLPC  C215 6453   4.773   4.190   9.006 -0.1020 -0.2393 -0.2838
   73SLPC  H15R 6454   4.663   4.201   8.991 -0.2691  0.5697  1.3362
   73SLPC  H15S 6455   4.806   4.087   8.980  2.2796  0.2410  0.7026
   73SLPC  C216 6456   4.852   4.286   8.917 -0.3150  0.0931 -0.2182
   73SLPC  H16R 6457   4.823   4.393   8.926 -1.2142 -0.2379  0.9284
   73SLPC  H16S 6458   4.820   4.251   8.816 -0.3505 -0.2689 -0.0816
   73SLPC  C217 6459   5.001   4.268   8.914  0.0438 -1.1920 -0.4829
   73SLPC  H17R 6460   5.027   4.163   8.939 -0.3634 -1.7050 -2.1504
   73SLPC  H17S 6461   5.047   4.335   8.990 -0.1437  2.9638 -3.7807
   73SLPC  C218 6462   5.064   4.304   8.780  0.2382 -0.3756 -0.1881
   73SLPC  H18R 6463   5.042   4.409   8.749  0.5083 -0.1263  0.4499
   73SLPC  H18S 6464   5.034   4.229   8.704 -1.1327 -0.1507  0.1275
   73SLPC  H18T 6465   5.175   4.297   8.790  0.4678 -0.2085 -2.4225
   73SLPC   C33 6466   5.225   4.589  10.215 -0.0691 -0.0092 -0.2396
   73SLPC   H3X 6467   5.159   4.654  10.153 -0.5667  1.0667  1.3893
   73SLPC   H3Y 6468   5.153   4.518  10.261  1.0484 -0.3699  0.9736
   73SLPC   C34 6469   5.332   4.515  10.130 -0.0920  0.2667  0.1651
   73SLPC   H4X 6470   5.368   4.424  10.182 -0.3815 -0.7765 -1.4192
   73SLPC   H4Y 6471   5.429   4.565  10.105 -0.8068  0.9725 -1.2934
   73SLPC   C35 6472   5.261   4.462  10.008 -0.7587 -0.4317  0.1549
   73SLPC   H5X 6473   5.157   4.444  10.043 -1.3942  1.5640 -0.6560
   73SLPC   H5Y 6474   5.296   4.362   9.973 -1.1316 -0.8706  0.9922
   73SLPC   C36 6475   5.287   4.555   9.894 -0.1041  0.3568  0.2684
   73SLPC   H6X 6476   5.392   4.542   9.860 -0.3251 -0.1057 -0.2343
   73SLPC   H6Y 6477   5.264   4.656   9.934 -1.8178  0.5670 -1.2279
   73SLPC   C37 6478   5.181   4.532   9.784  0.3734  0.3835 -0.3909
   73SLPC   H7X 6479   5.082   4.568   9.820 -0.5454 -0.0402 -2.4159
   73SLPC   H7Y 6480   5.172   4.425   9.757 -2.2466  0.5367 -0.1918
   73SLPC   C38 6481   5.201   4.620   9.657  0.3556  0.1193 -0.2053
   73SLPC   H8X 6482   5.301   4.608   9.610 -0.1452 -0.2876 -1.1730
   73SLPC   H8Y 6483   5.190   4.727   9.687  0.3817  0.0540  0.0375
   73SLPC   C39 6484   5.104   4.601   9.537  0.5939 -0.2927  0.2874
   73SLPC   H9X 6485   5.010   4.654   9.564 -0.0719 -0.5930 -1.3607
   73SLPC   H9Y 6486   5.103   4.492   9.518 -0.2352 -0.4238  1.0521
   73SLPC  C310 6487   5.155   4.666   9.409  0.5764  0.2538 -0.2721
   73SLPC  H10X 6488   5.260   4.639   9.385  0.5037  0.7257 -1.1303
   73SLPC  H10Y 6489   5.160   4.774   9.433 -3.5387  0.2792  0.8286
   73SLPC  C311 6490   5.069   4.617   9.298 -0.0592 -0.4530 -0.3470
   73SLPC  H11X 6491   4.959   4.634   9.303  0.0495 -0.1555  1.2879
   73SLPC  H11Y 6492   5.077   4.506   9.306 -0.2263 -0.3068  2.4872
   73SLPC  C312 6493   5.108   4.667   9.154 -0.1217 -0.1984 -0.4026
   73SLPC  H12X 6494   5.144   4.772   9.160 -0.1771 -0.2780  1.6084
   73SLPC  H12Y 6495   5.020   4.673   9.086 -1.3606  1.1340  1.2762
   73SLPC  C313 6496   5.217   4.572   9.089  0.0357 -0.3787 -0.7101
   73SLPC  H13X 6497   5.189   4.465   9.103 -2.5657  0.4858  0.9300
   73SLPC  H13Y 6498   5.316   4.590   9.137 -0.1205  2.0897 -1.2439
   73SLPC  C314 6499   5.234   4.606   8.938  0.1595 -0.3270 -0.2153
   73SLPC  H14X 6500   5.256   4.714   8.944  1.1205 -0.5326  0.0991
   73SLPC  H14Y 6501   5.141   4.595   8.878  0.2029  0.0680 -0.3554
   73SLPC  C315 6502   5.342   4.524   8.881 -0.4761 -0.8413  0.0045
   73SLPC  H15X 6503   5.333   4.413   8.880 -0.8778 -0.8035 -0.5948
   73SLPC  H15Y 6504   5.434   4.549   8.938 -1.0774  1.7754 -0.1318
   73SLPC  C316 6505   5.374   4.572   8.737  0.5242  0.0685  0.3149
   73SLPC  H16X 6506   5.379   4.682   8.727 -0.8467  0.2734  1.7014
   73SLPC  H16Y 6507   5.289   4.545   8.670  1.3509  1.7839 -1.4871
   73SLPC  C317 6508   5.494   4.500   8.678  0.2164  1.3300 -0.3003
   73SLPC  H17X 6509   5.497   4.507   8.567 -3.9602  0.6967 -0.5389
   73SLPC  H17Y 6510   5.488   4.391   8.699  1.5070  1.6191  1.7135
   73SLPC  C318 6511   5.620   4.554   8.748  0.0417 -0.4437 -0.0994
   73SLPC  H18X 6512   5.631   4.516   8.852 -2.5356 -1.4348 -0.1670
   73SLPC  H18Y 6513   5.611   4.664   8.751 -0.0595 -0.4630  0.2097
   73SLPC  H18Z 6514   5.708   4.530   8.684 -0.2503  0.0354 -0.6818
   74SLPC     N 6515   6.432   6.268  10.821 -0.5575  0.2121 -0.5055
   74SLPC   C13 6516   6.388   6.130  10.845  0.2743  0.1756 -0.4962
   74SLPC  H13A 6517   6.310   6.112  10.773 -1.8556 -0.3236  1.8733
   74SLPC  H13B 6518   6.466   6.055  10.846 -2.2976 -2.5778  0.1251
   74SLPC  H13C 6519   6.330   6.123  10.935 -0.5903 -0.1166 -1.0739
   74SLPC   C14 6520   6.519   6.316  10.934 -0.5982 -0.0759 -0.0144
   74SLPC  H14A 6521   6.468   6.334  11.028 -1.4086 -1.9651 -0.0741
   74SLPC  H14B 6522   6.598   6.245  10.955 -1.2329 -1.1940 -1.3065
   74SLPC  H14C 6523   6.558   6.411  10.902 -1.7920  0.5852  0.4600
   74SLPC   C15 6524   6.313   6.359  10.811 -0.0323 -0.2316 -0.7922
   74SLPC  H15A 6525   6.333   6.462  10.838 -0.9427  0.0237 -1.0774
   74SLPC  H15B 6526   6.270   6.369  10.713 -2.6894  1.6303  0.5148
   74SLPC  H15C 6527   6.239   6.327  10.883  2.3679  0.3988  2.0631
   74SLPC   C12 6528   6.518   6.282  10.699  0.0919  0.7011  0.4749
   74SLPC  H12A 6529   6.608   6.225  10.712 -0.5454 -0.2885  0.6241
   74SLPC  H12B 6530   6.546   6.385  10.685 -0.9400  1.0670  1.0503
   74SLPC   C11 6531   6.452   6.231  10.562  0.8557  0.5804 -0.3348
   74SLPC  H11A 6532   6.422   6.125  10.575 -0.4376  0.8966 -0.6391
   74SLPC  H11B 6533   6.530   6.224  10.483  1.1432 -0.1297  0.0101
   74SLPC     P 6534   6.356   6.427  10.409  0.1990 -0.3298 -0.3726
   74SLPC   O13 6535   6.224   6.472  10.364  0.3614 -0.1192  0.2241
   74SLPC   O14 6536   6.442   6.534  10.469  0.7165  0.2961 -0.5228
   74SLPC   O12 6537   6.344   6.312  10.516 -0.1126 -0.1094 -0.1861
   74SLPC   O11 6538   6.437   6.356  10.295  0.1041  0.5909 -0.4937
   74SLPC    C1 6539   6.390   6.231  10.231 -0.3545 -0.2917  0.9372
   74SLPC    HA 6540   6.464   6.151  10.252 -1.4630 -1.8493 -0.9947
   74SLPC    HB 6541   6.296   6.197  10.279 -1.1590  2.2421  1.2210
   74SLPC    C2 6542   6.368   6.255  10.078  0.6315 -0.0481  0.6324
   74SLPC    HS 6543   6.330   6.155  10.046  0.6528  0.3180 -0.5575
   74SLPC   O21 6544   6.501   6.299  10.017 -0.0497  0.0231 -0.3443
   74SLPC   C21 6545   6.584   6.195  10.005 -0.1679  0.1152 -0.9352
   74SLPC   O22 6546   6.557   6.082  10.022  0.3034  0.2567  0.2710
   74SLPC   C22 6547   6.721   6.238   9.963 -0.0669 -0.2120 -0.2233
   74SLPC   H2R 6548   6.718   6.348   9.948  0.0413  0.2264  2.7226
   74SLPC   H2S 6549   6.788   6.203  10.045 -1.6154  0.8799  1.5421
   74SLPC    C3 6550   6.261   6.367  10.046  0.2734 -0.6030  0.7472
   74SLPC    HX 6551   6.279   6.445  10.124  1.3967 -2.7036  2.6627
   74SLPC    HY 6552   6.158   6.328  10.058  0.3076 -0.7372  0.6094
   74SLPC   O31 6553   6.276   6.425   9.913  0.0869 -0.0975 -0.1546
   74SLPC   C31 6554   6.254   6.341   9.814  0.9922  0.4868  0.7911
   74SLPC   O32 6555   6.218   6.226   9.815 -0.1066 -0.4231  0.1521
   74SLPC   C32 6556   6.317   6.411   9.698 -0.8423 -0.0771  0.1526
   74SLPC   H2X 6557   6.414   6.451   9.734 -0.4731 -0.5467 -0.3189
   74SLPC   H2Y 6558   6.244   6.490   9.670  0.5673  2.4803  3.3950
   74SLPC   C23 6559   6.768   6.163   9.838  0.3497  0.3608 -0.8547
   74SLPC   H3R 6560   6.771   6.052   9.844 -0.8829  0.2650 -1.6550
   74SLPC   H3S 6561   6.874   6.190   9.821  1.3921 -1.6395  2.0775
   74SLPC   C24 6562   6.672   6.203   9.713 -0.7948 -0.0115 -0.2576
   74SLPC   H4R 6563   6.692   6.312   9.709  0.8501 -0.3606 -2.0539
   74SLPC   H4S 6564   6.564   6.190   9.736 -0.2082 -2.1669  1.4755
   74SLPC   C25 6565   6.695   6.136   9.573 -0.1461  0.1184 -0.5035
   74SLPC   H5R 6566   6.801   6.102   9.576 -0.0163  0.6647  2.2732
   74SLPC   H5S 6567   6.677   6.217   9.499  2.1024  1.1340  0.0538
   74SLPC   C26 6568   6.605   6.017   9.538 -0.2470  0.6986  0.3622
   74SLPC   H6R 6569   6.495   6.032   9.546 -0.1243  0.8691  1.9183
   74SLPC   H6S 6570   6.639   5.942   9.614 -0.0226  0.7851  0.3465
   74SLPC   C27 6571   6.627   5.960   9.392  0.2242  0.5112 -0.2639
   74SLPC   H7R 6572   6.577   5.861   9.403 -0.5159  1.0976  1.8754
   74SLPC   H7S 6573   6.733   5.931   9.377  0.0196 -1.5428  1.9262
   74SLPC   C28 6574   6.584   6.045   9.273 -0.1294 -1.1304  0.1428
   74SLPC   H8R 6575   6.631   6.143   9.294 -0.3355 -0.7798 -0.9880
   74SLPC   H8S 6576   6.473   6.055   9.271 -0.0389 -0.0129  0.3331
   74SLPC   C29 6577   6.630   5.988   9.148 -0.1634  0.3445 -0.4735
   74SLPC   H9R 6578   6.579   5.897   9.115 -1.0923  0.3688  0.8584
   74SLPC  C210 6579   6.729   6.053   9.077  0.4908  0.5903  0.1515
   74SLPC  H10R 6580   6.735   6.018   8.973 -3.6498  1.6663 -0.5547
   74SLPC  C211 6581   6.806   6.181   9.114 -0.0961  0.1024  0.4479
   74SLPC  H11R 6582   6.861   6.157   9.208 -0.7761 -0.7754  0.6304
   74SLPC  H11S 6583   6.740   6.264   9.146  0.1936  0.3732  0.3437
   74SLPC  C212 6584   6.914   6.221   9.020  0.6078 -0.1057  0.0199
   74SLPC  H12R 6585   6.875   6.273   8.931 -1.4184  2.9885  2.5992
   74SLPC  C213 6586   7.048   6.191   9.034 -0.3327  0.5312 -0.0410
   74SLPC  H13R 6587   7.119   6.247   8.972 -1.2237  0.8399 -0.7938
   74SLPC  C214 6588   7.116   6.111   9.146  0.5674 -0.2680 -0.3471
   74SLPC  H14R 6589   7.099   6.176   9.235 -1.5595 -0.4523 -0.6077
   74SLPC  H14S 6590   7.226   6.103   9.130  1.0935 -0.7000  3.0853
   74SLPC  C215 6591   7.076   5.959   9.160 -0.3337  0.6451 -0.3120
   74SLPC  H15R 6592   7.122   5.899   9.079  1.6051 -0.9979  1.9297
   74SLPC  H15S 6593   6.968   5.941   9.145 -0.6540  3.4519 -1.6879
   74SLPC  C216 6594   7.108   5.899   9.298 -0.7361 -0.5236 -0.0100
   74SLPC  H16R 6595   7.029   5.936   9.367 -1.3700  1.0686 -1.5396
   74SLPC  H16S 6596   7.201   5.940   9.343 -1.0703 -0.2743  0.4693
   74SLPC  C217 6597   7.098   5.741   9.300 -0.0465  0.3195  0.7859
   74SLPC  H17R 6598   7.189   5.704   9.248 -0.2661  0.6183  0.1727
   74SLPC  H17S 6599   7.010   5.726   9.233 -0.7876 -0.6693  1.9730
   74SLPC  C218 6600   7.076   5.700   9.446  0.2496 -0.0926  0.4197
   74SLPC  H18R 6601   6.981   5.737   9.490  0.9898  1.1057  1.0341
   74SLPC  H18S 6602   7.152   5.751   9.508  0.8195 -2.5310  1.7884
   74SLPC  H18T 6603   7.076   5.589   9.454  2.5712 -0.2635 -1.3914
   74SLPC   C33 6604   6.336   6.322   9.573 -0.1740  0.0407  0.2453
   74SLPC   H3X 6605   6.241   6.269   9.550  0.1589 -0.9214  1.0716
   74SLPC   H3Y 6606   6.407   6.241   9.597  0.1005  0.6298  1.4980
   74SLPC   C34 6607   6.390   6.398   9.449  0.4729  0.2139  0.3022
   74SLPC   H4X 6608   6.501   6.400   9.445  0.4153  1.2611 -1.7082
   74SLPC   H4Y 6609   6.352   6.502   9.459 -2.8975 -1.0733  1.6278
   74SLPC   C35 6610   6.323   6.350   9.324  0.2356 -0.2792  0.2916
   74SLPC   H5X 6611   6.228   6.407   9.314  0.5421 -0.0821 -1.7478
   74SLPC   H5Y 6612   6.307   6.240   9.336 -1.6859  0.0839  1.3263
   74SLPC   C36 6613   6.406   6.375   9.197 -0.3771  0.2683 -0.5740
   74SLPC   H6X 6614   6.504   6.323   9.202 -1.0160 -0.9141 -0.1236
   74SLPC   H6Y 6615   6.426   6.484   9.194 -2.3746  0.6918  0.8112
   74SLPC   C37 6616   6.324   6.347   9.069 -0.2522  1.0457 -0.0251
   74SLPC   H7X 6617   6.229   6.405   9.076  0.3719  2.2023 -1.0727
   74SLPC   H7Y 6618   6.285   6.243   9.071  0.8166  0.6413  2.5334
   74SLPC   C38 6619   6.388   6.385   8.936  0.0158 -1.2153  0.0758
   74SLPC   H8X 6620   6.430   6.488   8.933  2.2611 -2.0481  1.3683
   74SLPC   H8Y 6621   6.321   6.364   8.849  1.3167 -2.8713 -0.5618
   74SLPC   C39 6622   6.509   6.290   8.906  0.1352  0.2783  0.2929
   74SLPC   H9X 6623   6.466   6.189   8.888 -1.8624  0.9849  0.9940
   74SLPC   H9Y 6624   6.571   6.275   8.997  1.0883 -0.1557 -0.4170
   74SLPC  C310 6625   6.579   6.344   8.787 -0.6215 -0.9931 -0.7822
   74SLPC  H10X 6626   6.636   6.438   8.804 -0.0197 -1.4699 -0.1737
   74SLPC  H10Y 6627   6.501   6.379   8.716 -1.6965  2.0358  1.7795
   74SLPC  C311 6628   6.662   6.238   8.725  0.1440 -0.1097  0.1081
   74SLPC  H11X 6629   6.605   6.144   8.707 -1.1236  0.3560  1.5837
   74SLPC  H11Y 6630   6.745   6.207   8.792  0.4416  0.5329  0.0422
   74SLPC  C312 6631   6.733   6.298   8.597  0.0781  0.4362  0.4366
   74SLPC  H12X 6632   6.734   6.409   8.596 -0.6722  0.4581  1.4343
   74SLPC  H12Y 6633   6.668   6.271   8.511 -0.9430 -0.4647  1.4788
   74SLPC  C313 6634   6.877   6.244   8.577  0.3063 -0.7041  0.1795
   74SLPC  H13X 6635   6.928   6.258   8.675  0.4145 -0.3918  0.0798
   74SLPC  H13Y 6636   6.931   6.308   8.504 -0.9250  0.3019  0.1405
   74SLPC  C314 6637   6.880   6.099   8.556  0.6910 -0.3720 -0.0132
   74SLPC  H14X 6638   6.832   6.087   8.457 -1.1772 -0.8598  0.9262
   74SLPC  H14Y 6639   6.815   6.041   8.625 -1.9611  0.7354 -1.5259
   74SLPC  C315 6640   7.022   6.052   8.572 -0.3998  0.0228  0.2636
   74SLPC  H15X 6641   7.066   6.073   8.672  2.9681 -1.2753 -0.8656
   74SLPC  H15Y 6642   7.085   6.114   8.504  2.0625 -1.0680  1.4665
   74SLPC  C316 6643   7.039   5.908   8.529  0.0298 -0.2519 -0.2898
   74SLPC  H16X 6644   7.149   5.893   8.522  0.0610 -0.6114  0.7675
   74SLPC  H16Y 6645   6.994   5.898   8.428 -2.5285  2.7662  0.4811
   74SLPC  C317 6646   6.987   5.804   8.624 -0.1771  0.7990  0.3749
   74SLPC  H17X 6647   7.043   5.710   8.605  0.1543  0.4368  2.9647
   74SLPC  H17Y 6648   6.878   5.787   8.626 -0.5193  2.7392 -0.1519
   74SLPC  C318 6649   7.014   5.834   8.770 -0.1767  0.1431 -0.3302
   74SLPC  H18X 6650   7.000   5.745   8.834 -0.2861 -1.2599 -2.2798
   74SLPC  H18Y 6651   6.958   5.926   8.799  0.9088  1.3498 -1.9660
   74SLPC  H18Z 6652   7.116   5.877   8.773  0.3564 -1.1140 -0.2074
   75SLPC     N 6653   4.849   2.230   6.413  0.2779 -0.9567  0.0337
   75SLPC   C13 6654   4.920   2.316   6.313 -0.2677 -0.2868  0.1869
   75SLPC  H13A 6655   4.896   2.419   6.335 -2.9183 -0.9972  0.7878
   75SLPC  H13B 6656   5.026   2.295   6.308 -0.5718 -1.8732  0.3318
   75SLPC  H13C 6657   4.882   2.288   6.215  1.9349 -0.3911 -0.6688
   75SLPC   C14 6658   4.878   2.095   6.376 -0.1839  1.1134 -0.5086
   75SLPC  H14A 6659   4.974   2.065   6.414 -0.3692  2.0982  0.7496
   75SLPC  H14B 6660   4.815   2.027   6.431  2.0097 -1.4133 -0.9831
   75SLPC  H14C 6661   4.868   2.066   6.272  2.3677  0.3797 -0.5872
   75SLPC   C15 6662   4.700   2.260   6.396 -0.1365 -0.3476 -1.2456
   75SLPC  H15A 6663   4.642   2.210   6.472  1.5821 -1.3803 -0.5993
   75SLPC  H15B 6664   4.686   2.366   6.409  0.1560 -0.3559 -0.8527
   75SLPC  H15C 6665   4.676   2.219   6.299 -0.7670 -0.0512 -1.2240
   75SLPC   C12 6666   4.906   2.258   6.551  0.2121  0.8067 -0.8426
   75SLPC  H12A 6667   4.900   2.362   6.580 -3.2320 -0.1272  2.0359
   75SLPC  H12B 6668   5.013   2.241   6.554 -0.0484 -1.2223 -2.1524
   75SLPC   C11 6669   4.851   2.174   6.668 -0.0764 -0.4498 -0.5412
   75SLPC  H11A 6670   4.744   2.201   6.677  0.1748 -0.1499  2.1020
   75SLPC  H11B 6671   4.891   2.210   6.766  2.4101  0.3906 -1.8297
   75SLPC     P 6672   5.010   1.970   6.690 -0.1586  0.2440 -0.1812
   75SLPC   O13 6673   5.044   1.865   6.594 -0.8362 -0.1501  0.1671
   75SLPC   O14 6674   5.108   2.078   6.728 -0.1005 -0.2399 -0.3169
   75SLPC   O12 6675   4.870   2.034   6.655  0.4208  0.5758 -0.1055
   75SLPC   O11 6676   4.966   1.903   6.826  0.0754 -0.6690  0.5286
   75SLPC    C1 6677   4.864   1.800   6.831 -0.6032  0.8257  0.1184
   75SLPC    HA 6678   4.870   1.728   6.747  0.2802  1.9870 -0.8400
   75SLPC    HB 6679   4.876   1.741   6.924 -3.5915 -0.0939 -0.0422
   75SLPC    C2 6680   4.717   1.862   6.838 -0.7494  0.8469 -0.7528
   75SLPC    HS 6681   4.703   1.923   6.746  0.4062 -1.1711 -2.3085
   75SLPC   O21 6682   4.714   1.940   6.962  0.5700  0.0674 -0.4548
   75SLPC   C21 6683   4.639   2.043   6.962  0.1743 -0.0595 -0.0060
   75SLPC   O22 6684   4.581   2.091   6.865  0.4264 -0.0993 -0.1852
   75SLPC   C22 6685   4.629   2.097   7.110 -0.5341 -0.4136  0.2602
   75SLPC   H2R 6686   4.730   2.140   7.127 -0.9087  1.6431 -2.3486
   75SLPC   H2S 6687   4.547   2.173   7.109  0.2666  0.4562 -0.7764
   75SLPC    C3 6688   4.608   1.751   6.840 -0.2727  0.5206  0.1668
   75SLPC    HX 6689   4.633   1.688   6.928 -0.4412 -1.7790 -1.3931
   75SLPC    HY 6690   4.625   1.677   6.759 -2.2138  0.3341 -0.1014
   75SLPC   O31 6691   4.474   1.803   6.852 -0.4765  0.8224  0.0019
   75SLPC   C31 6692   4.407   1.810   6.740 -0.6716 -0.4292 -1.0164
   75SLPC   O32 6693   4.433   1.759   6.634 -0.2464  0.7735 -0.3422
   75SLPC   C32 6694   4.271   1.888   6.758 -0.1175 -0.5425 -0.3325
   75SLPC   H2X 6695   4.250   1.944   6.665  1.4142  3.2146  1.4481
   75SLPC   H2Y 6696   4.293   1.964   6.837 -1.1144  1.0713 -1.5634
   75SLPC   C23 6697   4.591   1.984   7.210 -0.8147 -0.0919  0.0598
   75SLPC   H3R 6698   4.682   1.922   7.225 -0.0346  0.7464 -1.1777
   75SLPC   H3S 6699   4.512   1.931   7.152  1.9259 -2.2542 -1.8802
   75SLPC   C24 6700   4.541   2.034   7.342 -0.5322 -0.4306 -0.1051
   75SLPC   H4R 6701   4.454   2.100   7.322  0.2179  0.5008 -0.3586
   75SLPC   H4S 6702   4.613   2.087   7.407 -2.0919 -0.6000  1.7995
   75SLPC   C25 6703   4.492   1.927   7.437  0.7982 -0.6515 -0.1620
   75SLPC   H5R 6704   4.566   1.848   7.466  0.2930 -0.4165  1.8080
   75SLPC   H5S 6705   4.402   1.879   7.394  0.5178 -1.7598  1.5831
   75SLPC   C26 6706   4.457   1.980   7.581  0.5228 -0.4107  0.0660
   75SLPC   H6R 6707   4.401   2.074   7.558 -0.4093 -0.5786  1.5624
   75SLPC   H6S 6708   4.533   2.009   7.656 -2.0054  1.4419  2.0317
   75SLPC   C27 6709   4.376   1.866   7.649 -0.6424  0.4096  0.2967
   75SLPC   H7R 6710   4.429   1.769   7.639 -0.7096  0.5257 -1.1618
   75SLPC   H7S 6711   4.281   1.855   7.592  0.4985 -1.7643 -1.2551
   75SLPC   C28 6712   4.320   1.896   7.789 -0.5489  0.9089 -0.0488
   75SLPC   H8R 6713   4.232   1.830   7.804  0.1222  0.3143  1.3833
   75SLPC   H8S 6714   4.292   2.003   7.791 -0.1985  0.9832  1.6705
   75SLPC   C29 6715   4.423   1.881   7.898 -0.1397 -0.0801 -0.1768
   75SLPC   H9R 6716   4.470   1.977   7.925 -1.1391  0.4848 -0.4323
   75SLPC  C210 6717   4.460   1.772   7.967  0.2369  0.3476  0.8732
   75SLPC  H10R 6718   4.531   1.795   8.048  2.6725  3.9713 -2.1091
   75SLPC  C211 6719   4.415   1.627   7.963 -0.2352 -0.5375  0.3641
   75SLPC  H11R 6720   4.505   1.564   7.980 -0.2029 -0.2157  1.4258
   75SLPC  H11S 6721   4.374   1.602   7.863 -0.2996  1.5725 -0.1605
   75SLPC  C212 6722   4.309   1.613   8.071 -0.8061 -1.2266 -0.0279
   75SLPC  H12R 6723   4.203   1.623   8.042 -1.0486  1.8407  1.7494
   75SLPC  C213 6724   4.327   1.586   8.200 -0.4379 -0.1501  0.3366
   75SLPC  H13R 6725   4.242   1.583   8.270  0.1238  1.7062  1.1277
   75SLPC  C214 6726   4.459   1.578   8.274 -0.0502 -0.7506  0.1825
   75SLPC  H14R 6727   4.481   1.676   8.320 -0.5224  0.3848 -1.9468
   75SLPC  H14S 6728   4.540   1.552   8.202 -2.2333  1.0521 -3.0552
   75SLPC  C215 6729   4.452   1.471   8.382  0.0914 -0.0789 -0.7084
   75SLPC  H15R 6730   4.426   1.373   8.336 -0.5717 -0.3233  0.1802
   75SLPC  H15S 6731   4.370   1.497   8.452 -1.3094  0.0202 -2.3498
   75SLPC  C216 6732   4.585   1.481   8.468  0.3324  0.9586 -0.3182
   75SLPC  H16R 6733   4.561   1.436   8.567  1.6314  0.6662 -0.1219
   75SLPC  H16S 6734   4.619   1.585   8.485  2.1114  0.4835 -0.8606
   75SLPC  C217 6735   4.700   1.401   8.408 -0.5226 -0.0017 -0.3822
   75SLPC  H17R 6736   4.671   1.303   8.365  0.1895 -0.3696 -0.0220
   75SLPC  H17S 6737   4.771   1.375   8.490 -1.4153 -1.1639  0.0296
   75SLPC  C218 6738   4.779   1.481   8.307 -0.1431  0.6645 -0.4957
   75SLPC  H18R 6739   4.727   1.479   8.209  1.5910  1.0909 -1.4565
   75SLPC  H18S 6740   4.879   1.441   8.282  0.3808  1.2123  0.6503
   75SLPC  H18T 6741   4.781   1.589   8.337 -2.4369  0.4879  0.3667
   75SLPC   C33 6742   4.147   1.801   6.810 -0.4932 -0.8384 -0.4278
   75SLPC   H3X 6743   4.059   1.867   6.793  0.9136  1.2808  0.3824
   75SLPC   H3Y 6744   4.130   1.718   6.738 -2.2255 -0.3151 -0.6453
   75SLPC   C34 6745   4.155   1.753   6.951  0.0387 -0.1374 -0.1243
   75SLPC   H4X 6746   4.251   1.712   6.987  0.7274 -0.2969 -2.0905
   75SLPC   H4Y 6747   4.065   1.693   6.975 -0.8327  0.9103 -0.7120
   75SLPC   C35 6748   4.140   1.866   7.049  0.2001  0.0344  0.1909
   75SLPC   H5X 6749   4.030   1.881   7.056  0.1638 -0.6793  1.1816
   75SLPC   H5Y 6750   4.173   1.966   7.014 -0.9007 -0.0835 -1.2409
   75SLPC   C36 6751   4.186   1.843   7.191  0.1755  0.0900 -0.8135
   75SLPC   H6X 6752   4.181   1.924   7.267 -0.3726 -0.0614 -0.6913
   75SLPC   H6Y 6753   4.292   1.815   7.174  0.4100 -0.3539  1.3101
   75SLPC   C37 6754   4.128   1.718   7.257 -0.3233  0.1086 -0.9396
   75SLPC   H7X 6755   4.198   1.679   7.334  1.8553  1.2566 -2.2692
   75SLPC   H7Y 6756   4.116   1.637   7.182  1.9015 -2.4890  1.4170
   75SLPC   C38 6757   3.999   1.744   7.331  0.3375 -0.0955  0.0771
   75SLPC   H8X 6758   3.922   1.753   7.252  0.8940  2.2704 -0.2354
   75SLPC   H8Y 6759   4.018   1.832   7.396  1.3546 -1.6881  1.9819
   75SLPC   C39 6760   3.955   1.632   7.431  0.4002 -0.1251  0.4627
   75SLPC   H9X 6761   3.970   1.531   7.389  1.4481 -0.1187  0.8041
   75SLPC   H9Y 6762   3.845   1.643   7.440  0.3902 -0.8431  1.2717
   75SLPC  C310 6763   4.038   1.649   7.558  0.0930  0.8130 -0.0216
   75SLPC  H10X 6764   4.025   1.757   7.580 -0.4839  0.5931  0.7503
   75SLPC  H10Y 6765   4.147   1.630   7.553 -0.1722 -0.9272  0.6743
   75SLPC  C311 6766   3.972   1.586   7.671  0.3719 -0.0392 -0.0629
   75SLPC  H11X 6767   3.980   1.476   7.685  0.5645  0.0372  0.4272
   75SLPC  H11Y 6768   3.863   1.608   7.676  0.5898  0.5341  2.9126
   75SLPC  C312 6769   4.019   1.649   7.808 -0.1934  0.9473  0.4251
   75SLPC  H12X 6770   4.009   1.759   7.794 -1.5889  0.6419 -1.1079
   75SLPC  H12Y 6771   4.124   1.620   7.829  0.0732  0.8734 -0.9662
   75SLPC  C313 6772   3.925   1.610   7.931  0.1015  0.4690  0.1410
   75SLPC  H13X 6773   3.818   1.622   7.907  0.2329  0.6897 -0.3449
   75SLPC  H13Y 6774   3.946   1.684   8.011 -2.1984  1.5317 -0.2155
   75SLPC  C314 6775   3.968   1.466   7.984 -0.6212 -0.5057  0.7427
   75SLPC  H14X 6776   4.079   1.463   7.984 -0.5811  0.1178 -1.5495
   75SLPC  H14Y 6777   3.929   1.392   7.912 -0.9994 -1.2696  1.7291
   75SLPC  C315 6778   3.892   1.431   8.113  0.2614  0.2756 -0.7023
   75SLPC  H15X 6779   3.896   1.320   8.124  2.2544  0.5940  2.0470
   75SLPC  H15Y 6780   3.784   1.452   8.093  0.3400  1.0963 -0.2741
   75SLPC  C316 6781   3.963   1.501   8.231  0.0602 -0.0119  0.1283
   75SLPC  H16X 6782   3.979   1.610   8.212  0.8989 -0.3511 -1.1968
   75SLPC  H16Y 6783   4.065   1.463   8.251  0.7591  1.8600  0.2718
   75SLPC  C317 6784   3.870   1.496   8.355  0.2334 -0.4308 -0.4144
   75SLPC  H17X 6785   3.841   1.396   8.394  0.5684 -0.7377 -0.9396
   75SLPC  H17Y 6786   3.775   1.547   8.331 -0.5946 -0.8289  1.9073
   75SLPC  C318 6787   3.937   1.569   8.477  0.7561  0.0918 -0.8525
   75SLPC  H18X 6788   3.978   1.669   8.452 -0.8365  0.8452 -0.5243
   75SLPC  H18Y 6789   4.022   1.510   8.516 -0.3976 -1.4002 -0.5487
   75SLPC  H18Z 6790   3.852   1.569   8.549 -1.1086 -1.3884 -2.9573
   76SLPC     N 6791   6.296   0.313   5.665  0.0332  0.4846  0.6099
   76SLPC   C13 6792   6.247   0.412   5.564  0.0413 -0.0010 -0.4747
   76SLPC  H13A 6793   6.239   0.513   5.600 -1.5910  0.0955 -1.0733
   76SLPC  H13B 6794   6.320   0.418   5.484 -1.2371  1.6776 -1.5554
   76SLPC  H13C 6795   6.147   0.394   5.528  0.4977  0.5561 -2.0741
   76SLPC   C14 6796   6.427   0.363   5.713 -0.0017  0.0263  0.8351
   76SLPC  H14A 6797   6.473   0.299   5.787  2.6147 -1.3506 -1.8452
   76SLPC  H14B 6798   6.491   0.392   5.630  1.8050  2.2249  2.9214
   76SLPC  H14C 6799   6.414   0.454   5.769 -3.5554  0.1274 -0.0085
   76SLPC   C15 6800   6.332   0.178   5.601 -0.6634 -0.2849  0.0701
   76SLPC  H15A 6801   6.412   0.189   5.529 -1.6848 -1.7081 -1.3092
   76SLPC  H15B 6802   6.366   0.104   5.672 -0.2806 -1.2153 -1.0670
   76SLPC  H15C 6803   6.243   0.131   5.562 -0.4769  0.1383 -0.8632
   76SLPC   C12 6804   6.199   0.314   5.793  1.2716  0.1880 -0.4696
   76SLPC  H12A 6805   6.102   0.277   5.762  2.0016 -1.2184 -1.0890
   76SLPC  H12B 6806   6.191   0.416   5.827 -2.4748 -0.0592 -0.4000
   76SLPC   C11 6807   6.254   0.238   5.917 -0.0226 -0.5570  0.0366
   76SLPC  H11A 6808   6.314   0.151   5.884  0.9340 -0.1741  0.7703
   76SLPC  H11B 6809   6.169   0.189   5.969 -2.0012  0.1444 -2.4069
   76SLPC     P 6810   6.453   0.307   6.080  0.2932  0.0344  0.3353
   76SLPC   O13 6811   6.487   0.161   6.068  0.3155  0.0701 -0.3772
   76SLPC   O14 6812   6.562   0.402   6.035 -0.2125  0.4792 -0.5389
   76SLPC   O12 6813   6.319   0.340   5.994 -0.1173  0.3966 -0.4484
   76SLPC   O11 6814   6.419   0.342   6.221 -0.6850  0.2741  0.3268
   76SLPC    C1 6815   6.323   0.440   6.271  0.2164 -0.2248 -0.5731
   76SLPC    HA 6816   6.371   0.540   6.271  1.3874 -0.6645  4.0933
   76SLPC    HB 6817   6.233   0.437   6.206 -0.8104  1.0237  0.7341
   76SLPC    C2 6818   6.282   0.401   6.422 -0.4178 -0.0137 -0.5677
   76SLPC    HS 6819   6.225   0.492   6.451  0.3086  1.2585 -3.0158
   76SLPC   O21 6820   6.400   0.389   6.504  0.1747 -0.0721  0.3347
   76SLPC   C21 6821   6.462   0.500   6.538 -0.1424 -0.5589  0.4330
   76SLPC   O22 6822   6.417   0.612   6.531 -0.4667 -0.1708  0.5015
   76SLPC   C22 6823   6.601   0.476   6.600 -0.0959 -0.6461  0.1059
   76SLPC   H2R 6824   6.667   0.438   6.519 -0.3680  2.3863 -1.6409
   76SLPC   H2S 6825   6.649   0.575   6.621  2.9207 -1.3118 -3.1966
   76SLPC    C3 6826   6.194   0.275   6.439 -0.0375  0.2643  0.1129
   76SLPC    HX 6827   6.252   0.180   6.446 -0.7354 -0.1564  0.2436
   76SLPC    HY 6828   6.133   0.256   6.348 -0.3080  1.5925  0.0043
   76SLPC   O31 6829   6.100   0.285   6.543 -0.0937  0.1334  0.5265
   76SLPC   C31 6830   6.140   0.262   6.666 -0.2786 -0.3323  0.2877
   76SLPC   O32 6831   6.245   0.205   6.697 -0.2723  0.1734 -0.2203
   76SLPC   C32 6832   6.031   0.311   6.762  0.3408 -0.8173  1.2071
   76SLPC   H2X 6833   6.002   0.223   6.824  0.0228 -0.8328  1.0384
   76SLPC   H2Y 6834   5.942   0.338   6.700  2.3000 -0.0673 -1.3577
   76SLPC   C23 6835   6.602   0.389   6.729 -0.2660  1.1340 -0.0276
   76SLPC   H3R 6836   6.700   0.411   6.778  0.6478  1.1300 -1.8328
   76SLPC   H3S 6837   6.594   0.284   6.696 -0.8748  1.5589 -1.2318
   76SLPC   C24 6838   6.502   0.429   6.828  0.9735 -0.0102  0.6381
   76SLPC   H4R 6839   6.400   0.402   6.791  1.1168 -0.0846  0.2944
   76SLPC   H4S 6840   6.508   0.540   6.830  0.5336  0.1915 -4.0210
   76SLPC   C25 6841   6.533   0.364   6.961  0.4126  0.7502  0.7941
   76SLPC   H5R 6842   6.642   0.346   6.969  0.2958 -2.6016 -3.1371
   76SLPC   H5S 6843   6.487   0.265   6.942  0.9110  0.6190  0.2317
   76SLPC   C26 6844   6.496   0.460   7.075 -0.0759 -0.9804 -0.1147
   76SLPC   H6R 6845   6.385   0.464   7.083 -0.1389 -0.5509 -1.2013
   76SLPC   H6S 6846   6.542   0.560   7.064  1.2641 -1.2842  2.3099
   76SLPC   C27 6847   6.541   0.401   7.210  0.5040 -0.5684 -0.2439
   76SLPC   H7R 6848   6.650   0.380   7.218  0.6834  0.1131 -0.8836
   76SLPC   H7S 6849   6.487   0.307   7.232  2.0959 -1.7500 -1.2796
   76SLPC   C28 6850   6.512   0.502   7.323 -0.3984  0.0735 -0.6375
   76SLPC   H8R 6851   6.569   0.462   7.410 -2.9737 -0.2413  0.9390
   76SLPC   H8S 6852   6.553   0.603   7.305 -1.1864  0.5551  0.2519
   76SLPC   C29 6853   6.364   0.514   7.360 -0.6809  0.4527 -0.1369
   76SLPC   H9R 6854   6.316   0.598   7.308 -0.2139 -0.4676 -2.1470
   76SLPC  C210 6855   6.296   0.425   7.437 -0.6028 -0.1164 -0.2930
   76SLPC  H10R 6856   6.186   0.434   7.444 -0.6962  0.6026 -2.4313
   76SLPC  C211 6857   6.356   0.308   7.511 -0.3367  0.1235  1.1383
   76SLPC  H11R 6858   6.384   0.336   7.614  0.8153 -1.2074  1.2110
   76SLPC  H11S 6859   6.456   0.287   7.467 -0.3781 -0.0173  1.1112
   76SLPC  C212 6860   6.287   0.173   7.519  0.1128  0.2790 -0.2965
   76SLPC  H12R 6861   6.291   0.117   7.424 -0.9949 -0.9583  0.3609
   76SLPC  C213 6862   6.251   0.105   7.628 -0.1028  0.0735  0.7928
   76SLPC  H13R 6863   6.200   0.010   7.606  0.1016 -0.0618  0.9068
   76SLPC  C214 6864   6.258   0.150   7.768 -0.8127  0.3989  0.4620
   76SLPC  H14R 6865   6.159   0.195   7.791 -1.4247  0.1321 -1.5467
   76SLPC  H14S 6866   6.333   0.230   7.784 -0.3050 -0.0164  0.1333
   76SLPC  C215 6867   6.305   0.026   7.847 -0.2822 -0.0606  0.1501
   76SLPC  H15R 6868   6.236  -0.060   7.838 -0.9849  0.4780  0.3744
   76SLPC  H15S 6869   6.299   0.056   7.954  1.3160  0.1395  0.1950
   76SLPC  C216 6870   6.451  -0.020   7.825 -0.0723 -0.0348 -0.2570
   76SLPC  H16R 6871   6.471  -0.053   7.721  2.6731  0.5133  0.0631
   76SLPC  H16S 6872   6.468  -0.112   7.885 -1.8910  0.2376  0.7037
   76SLPC  C217 6873   6.555   0.080   7.876 -0.0201 -0.0587  0.5927
   76SLPC  H17R 6874   6.546   0.183   7.834  0.3495 -1.2077 -2.4687
   76SLPC  H17S 6875   6.649   0.048   7.827 -1.3095  0.9622 -2.7086
   76SLPC  C218 6876   6.585   0.082   8.027  0.9119  0.5484  0.8668
   76SLPC  H18R 6877   6.604  -0.018   8.072 -0.0113  1.3348  3.0882
   76SLPC  H18S 6878   6.502   0.141   8.071  0.7404  1.6869 -0.9516
   76SLPC  H18T 6879   6.680   0.133   8.051  0.6681 -0.7149  4.9758
   76SLPC   C33 6880   6.077   0.436   6.844  0.4438  0.1623 -1.1183
   76SLPC   H3X 6881   6.102   0.525   6.783 -2.7803  1.8997 -0.0510
   76SLPC   H3Y 6882   6.158   0.409   6.916 -0.6101 -0.5057 -0.1642
   76SLPC   C34 6883   5.955   0.483   6.922  0.9333  0.2403  0.1226
   76SLPC   H4X 6884   5.861   0.479   6.864 -0.5495  0.9821  2.4009
   76SLPC   H4Y 6885   5.970   0.586   6.961 -1.0803 -0.0309  1.6959
   76SLPC   C35 6886   5.934   0.396   7.045  0.1179  0.3514 -0.3453
   76SLPC   H5X 6887   6.028   0.344   7.075 -0.8116 -1.0270  0.2411
   76SLPC   H5Y 6888   5.863   0.315   7.020  2.6304 -1.7526 -0.9411
   76SLPC   C36 6889   5.866   0.477   7.166 -0.3216  0.6274 -0.3465
   76SLPC   H6X 6890   5.764   0.512   7.136  0.8616  5.6521  0.9315
   76SLPC   H6Y 6891   5.931   0.567   7.166 -0.9012  1.0519 -1.1382
   76SLPC   C37 6892   5.887   0.399   7.300 -0.6476  0.3368  0.6692
   76SLPC   H7X 6893   5.982   0.343   7.296  0.0660  1.2855  3.2287
   76SLPC   H7Y 6894   5.811   0.319   7.312  0.6854 -0.6790  2.4106
   76SLPC   C38 6895   5.905   0.497   7.418  0.2670 -0.3532 -0.6151
   76SLPC   H8X 6896   5.833   0.582   7.419  1.5806  0.7918 -0.6604
   76SLPC   H8Y 6897   6.002   0.551   7.426  0.1118 -0.3778  1.8482
   76SLPC   C39 6898   5.896   0.428   7.553 -0.6042  0.7463  0.1407
   76SLPC   H9X 6899   5.937   0.325   7.548  1.7110  1.4460  3.1469
   76SLPC   H9Y 6900   5.788   0.427   7.581 -0.2460  0.9420  1.5737
   76SLPC  C310 6901   5.963   0.501   7.664  0.2527  0.2185 -0.4410
   76SLPC  H10X 6902   5.926   0.605   7.673 -0.4514 -0.1720  1.4456
   76SLPC  H10Y 6903   6.072   0.509   7.643  0.6005  0.0228  1.2140
   76SLPC  C311 6904   5.945   0.435   7.801 -0.1798  0.3251 -0.2320
   76SLPC  H11X 6905   5.955   0.329   7.770 -0.5586  0.7995 -2.0059
   76SLPC  H11Y 6906   5.840   0.440   7.836  0.0732 -0.5594  0.6692
   76SLPC  C312 6907   6.047   0.472   7.908  0.6261  0.3118  0.4436
   76SLPC  H12X 6908   6.019   0.574   7.942  2.1140  0.7291  0.4157
   76SLPC  H12Y 6909   6.153   0.464   7.878  0.9341 -0.0531  1.6068
   76SLPC  C313 6910   6.049   0.392   8.038 -0.4643  1.0018  0.2734
   76SLPC  H13X 6911   6.040   0.288   7.999  0.2302  2.9176 -5.4689
   76SLPC  H13Y 6912   5.964   0.415   8.106  0.5606  0.0425  1.9283
   76SLPC  C314 6913   6.182   0.410   8.116  0.4529 -0.3595 -0.4514
   76SLPC  H14X 6914   6.260   0.362   8.054 -0.7727  0.2637 -2.5407
   76SLPC  H14Y 6915   6.189   0.357   8.213  2.1886  0.0208 -0.3513
   76SLPC  C315 6916   6.232   0.554   8.137  0.6553  0.7866 -0.1765
   76SLPC  H15X 6917   6.239   0.610   8.041 -4.3881 -1.2764 -1.9105
   76SLPC  H15Y 6918   6.340   0.542   8.159  0.4635  0.8132  0.8219
   76SLPC  C316 6919   6.156   0.625   8.249 -0.2486 -0.4448 -0.3864
   76SLPC  H16X 6920   6.046   0.620   8.240 -0.2930  1.2554 -1.0365
   76SLPC  H16Y 6921   6.187   0.731   8.242 -4.3271  0.8058 -0.2518
   76SLPC  C317 6922   6.209   0.581   8.383 -0.1707 -0.0001 -0.2467
   76SLPC  H17X 6923   6.319   0.570   8.395  0.1571  1.7869 -1.4497
   76SLPC  H17Y 6924   6.168   0.479   8.401  1.2727 -0.3665  1.1922
   76SLPC  C318 6925   6.164   0.683   8.495  0.5272  0.9492  0.3890
   76SLPC  H18X 6926   6.194   0.642   8.594  2.1109  0.6667 -0.1965
   76SLPC  H18Y 6927   6.053   0.690   8.492  0.3971 -0.6150  1.0834
   76SLPC  H18Z 6928   6.220   0.777   8.478 -0.0848  0.9011 -1.9894
   77SLPC     N 6929   2.983   0.453   6.333 -0.3915 -1.1552  0.6585
   77SLPC   C13 6930   2.968   0.306   6.353 -0.6716  0.1853  0.1178
   77SLPC  H13A 6931   2.874   0.283   6.401 -0.5170 -0.5776  0.0649
   77SLPC  H13B 6932   2.966   0.253   6.259 -2.7056 -1.1623  0.8929
   77SLPC  H13C 6933   3.051   0.278   6.416 -0.4945  1.7105  0.5939
   77SLPC   C14 6934   2.870   0.507   6.256 -0.0665  0.7082  0.1227
   77SLPC  H14A 6935   2.878   0.479   6.152  0.9741  4.1999 -0.8238
   77SLPC  H14B 6936   2.778   0.471   6.299  0.4563 -0.7331  0.0620
   77SLPC  H14C 6937   2.857   0.614   6.265 -1.8055  0.7321 -2.2155
   77SLPC   C15 6938   3.101   0.482   6.239 -0.1531  0.3651 -0.0328
   77SLPC  H15A 6939   3.123   0.587   6.240  3.2967 -0.3185  0.5433
   77SLPC  H15B 6940   3.191   0.427   6.262 -0.8520 -1.1850 -0.8793
   77SLPC  H15C 6941   3.083   0.453   6.137  1.1349  1.1887 -0.4987
   77SLPC   C12 6942   3.003   0.527   6.466 -0.2694  0.0286 -0.0013
   77SLPC  H12A 6943   3.072   0.475   6.531  0.2560  0.9992  0.2268
   77SLPC  H12B 6944   2.912   0.542   6.521  0.5026  1.7178  0.8560
   77SLPC   C11 6945   3.067   0.668   6.447  0.3451 -0.4560  0.3551
   77SLPC  H11A 6946   3.171   0.663   6.407  0.9890 -2.4365  2.1716
   77SLPC  H11B 6947   3.090   0.711   6.548 -0.3966  1.1723 -0.1517
   77SLPC     P 6948   2.863   0.827   6.450  1.0033 -0.0815  0.0982
   77SLPC   O13 6949   2.906   0.933   6.543 -0.0317 -0.5101 -0.3166
   77SLPC   O14 6950   2.772   0.875   6.341  0.9305  0.0882  0.8603
   77SLPC   O12 6951   2.981   0.751   6.372 -1.1151 -0.6277 -0.3686
   77SLPC   O11 6952   2.792   0.710   6.529 -0.2077 -0.1607  0.0819
   77SLPC    C1 6953   2.648   0.688   6.515 -0.5586  0.1063  0.6209
   77SLPC    HA 6954   2.587   0.781   6.512  0.6294  0.8814 -0.4004
   77SLPC    HB 6955   2.623   0.623   6.428 -0.9407  2.6129 -1.2231
   77SLPC    C2 6956   2.598   0.619   6.648  0.8072  0.3201  0.3386
   77SLPC    HS 6957   2.592   0.702   6.722  0.7453  0.2443  0.4197
   77SLPC   O21 6958   2.697   0.525   6.690 -0.0528  0.1042 -0.0273
   77SLPC   C21 6959   2.704   0.507   6.822 -0.3344  0.6451 -0.3203
   77SLPC   O22 6960   2.633   0.553   6.910 -0.0788  0.5043  0.0127
   77SLPC   C22 6961   2.808   0.398   6.852 -0.4614  0.3956  0.9722
   77SLPC   H2R 6962   2.906   0.449   6.837  0.5698 -1.0838  2.5444
   77SLPC   H2S 6963   2.801   0.380   6.961 -1.1168  1.8576  1.1815
   77SLPC    C3 6964   2.460   0.555   6.633  0.0159  0.2205  0.3152
   77SLPC    HX 6965   2.467   0.478   6.553 -0.9466  0.4594 -0.0075
   77SLPC    HY 6966   2.385   0.624   6.590 -0.1631 -0.0808  0.1471
   77SLPC   O31 6967   2.416   0.494   6.755 -0.0478  0.1025  0.3974
   77SLPC   C31 6968   2.356   0.582   6.838  0.5610  0.0203  0.4734
   77SLPC   O32 6969   2.350   0.702   6.822  0.5486  0.1137 -0.2814
   77SLPC   C32 6970   2.292   0.520   6.972 -0.8458 -0.2676  0.8890
   77SLPC   H2X 6971   2.382   0.510   7.036  0.0042  3.1771  0.3430
   77SLPC   H2Y 6972   2.241   0.425   6.947  1.0371 -1.6173  1.9957
   77SLPC   C23 6973   2.790   0.264   6.771  0.2846 -0.0476 -0.2996
   77SLPC   H3R 6974   2.880   0.202   6.791  1.0122  1.2286  0.4151
   77SLPC   H3S 6975   2.791   0.278   6.661  1.9622 -0.1974 -0.3206
   77SLPC   C24 6976   2.672   0.180   6.821 -0.4002 -0.3128 -0.4402
   77SLPC   H4R 6977   2.634   0.105   6.749 -1.1192 -0.2700 -0.1102
   77SLPC   H4S 6978   2.579   0.239   6.840 -1.8920 -2.6591 -0.3257
   77SLPC   C25 6979   2.711   0.111   6.950 -0.9653  0.1404 -0.5692
   77SLPC   H5R 6980   2.614   0.101   7.004  0.0884 -0.1999  1.3023
   77SLPC   H5S 6981   2.769   0.172   7.022 -2.6372 -0.0672  1.0095
   77SLPC   C26 6982   2.772  -0.024   6.933  0.5741  0.0929  0.0826
   77SLPC   H6R 6983   2.853  -0.026   6.857 -0.6965  1.2391 -1.3263
   77SLPC   H6S 6984   2.693  -0.087   6.887  0.4186  1.0500 -0.9932
   77SLPC   C27 6985   2.831  -0.089   7.055 -0.2066 -0.5328  0.5286
   77SLPC   H7R 6986   2.882  -0.014   7.120 -0.1148  1.5013 -1.7867
   77SLPC   H7S 6987   2.920  -0.149   7.026  1.4809  0.6903  2.9470
   77SLPC   C28 6988   2.721  -0.175   7.126  0.5384  0.1485 -0.3033
   77SLPC   H8R 6989   2.684  -0.254   7.058 -1.2892  0.3990  0.3753
   77SLPC   H8S 6990   2.631  -0.111   7.139  0.1248 -0.0311 -2.2265
   77SLPC   C29 6991   2.775  -0.241   7.248 -0.1578  0.2522  0.5660
   77SLPC   H9R 6992   2.842  -0.325   7.227  0.7052  1.6424 -2.4907
   77SLPC  C210 6993   2.753  -0.205   7.376 -0.5955 -0.5338  0.0229
   77SLPC  H10R 6994   2.795  -0.273   7.451  4.1126 -0.5008 -2.3514
   77SLPC  C211 6995   2.664  -0.089   7.428  0.1125 -0.2614 -0.0595
   77SLPC  H11R 6996   2.658  -0.012   7.348 -3.2408 -0.8811 -0.4753
   77SLPC  H11S 6997   2.719  -0.047   7.514  0.6777 -0.0225 -0.5403
   77SLPC  C212 6998   2.522  -0.134   7.476 -0.2464 -0.5566  0.1993
   77SLPC  H12R 6999   2.438  -0.105   7.411 -0.2183  2.0568  1.2484
   77SLPC  C213 7000   2.498  -0.202   7.591 -0.2870 -0.0051 -1.0812
   77SLPC  H13R 7001   2.392  -0.218   7.616 -0.0745 -0.7988 -0.6663
   77SLPC  C214 7002   2.606  -0.243   7.685  0.3826 -0.2591  0.5394
   77SLPC  H14R 7003   2.701  -0.186   7.691  1.1344 -1.5620  1.2456
   77SLPC  H14S 7004   2.631  -0.348   7.657 -0.7307 -0.3970 -0.0042
   77SLPC  C215 7005   2.544  -0.235   7.823 -0.1077 -0.7639  0.1193
   77SLPC  H15R 7006   2.606  -0.299   7.890 -2.3773 -0.9948  2.0650
   77SLPC  H15S 7007   2.440  -0.274   7.834 -0.9315  1.5867  1.0029
   77SLPC  C216 7008   2.566  -0.096   7.889  0.2551 -0.3409 -0.2494
   77SLPC  H16R 7009   2.531  -0.016   7.819 -0.3523  1.6381  2.2516
   77SLPC  H16S 7010   2.674  -0.071   7.901 -0.0410  0.3232  0.9972
   77SLPC  C217 7011   2.494  -0.070   8.025 -0.9279 -0.2768 -1.1690
   77SLPC  H17R 7012   2.515  -0.155   8.093 -1.5317 -0.4293 -1.1666
   77SLPC  H17S 7013   2.386  -0.076   8.002 -1.7886  1.0245  2.1558
   77SLPC  C218 7014   2.529   0.059   8.100  0.4138 -1.2518  0.2234
   77SLPC  H18R 7015   2.520   0.147   8.033 -0.6872 -1.7260 -0.2816
   77SLPC  H18S 7016   2.633   0.053   8.138  0.1605 -1.0967  0.9533
   77SLPC  H18T 7017   2.456   0.079   8.182  2.3708  0.2955  1.6313
   77SLPC   C33 7018   2.203   0.617   7.056  0.3125  0.6142  0.6154
   77SLPC   H3X 7019   2.123   0.652   6.987  2.4869  0.1905 -2.2181
   77SLPC   H3Y 7020   2.259   0.704   7.097  1.3184 -0.7479  2.2139
   77SLPC   C34 7021   2.124   0.566   7.175  0.2202  0.4039  0.4751
   77SLPC   H4X 7022   2.066   0.649   7.222  1.6074  0.9037  1.3402
   77SLPC   H4Y 7023   2.204   0.538   7.245  3.2084 -3.2662 -4.1035
   77SLPC   C35 7024   2.033   0.436   7.161 -0.6160 -0.8737 -0.2480
   77SLPC   H5X 7025   2.094   0.350   7.127  1.1552  0.5448 -0.7659
   77SLPC   H5Y 7026   1.950   0.452   7.089 -0.7201  1.1075  0.2904
   77SLPC   C36 7027   1.992   0.386   7.301  0.2660 -0.1249  0.0935
   77SLPC   H6X 7028   2.086   0.363   7.354  0.2008  0.6386  0.5404
   77SLPC   H6Y 7029   1.938   0.291   7.279  0.4845 -0.4017  0.7613
   77SLPC   C37 7030   1.919   0.481   7.393 -0.0151  0.2033 -0.5241
   77SLPC   H7X 7031   1.823   0.498   7.339  0.7949  0.8050 -1.8045
   77SLPC   H7Y 7032   1.974   0.575   7.414  2.6953 -1.4476  0.0977
   77SLPC   C38 7033   1.874   0.420   7.527 -0.8385 -1.2133 -0.0993
   77SLPC   H8X 7034   1.962   0.379   7.581 -0.4058  1.0746  1.0127
   77SLPC   H8Y 7035   1.803   0.340   7.498 -0.9273 -0.8366 -0.9513
   77SLPC   C39 7036   1.822   0.530   7.623  0.6958  0.5994  1.1000
   77SLPC   H9X 7037   1.716   0.559   7.608  1.3070  1.4911 -1.6672
   77SLPC   H9Y 7038   1.882   0.622   7.602 -1.0581  2.2198  2.9346
   77SLPC  C310 7039   1.853   0.505   7.773 -1.2797 -0.0450  0.2841
   77SLPC  H10X 7040   1.962   0.494   7.792 -1.2984  0.3954  0.6590
   77SLPC  H10Y 7041   1.805   0.408   7.798  2.0733 -2.0335 -0.6134
   77SLPC  C311 7042   1.795   0.613   7.862 -0.3897  0.1874  0.2733
   77SLPC  H11X 7043   1.688   0.631   7.840 -0.1478  0.9707 -0.2652
   77SLPC  H11Y 7044   1.866   0.694   7.835 -1.8581  1.6071  0.6195
   77SLPC  C312 7045   1.809   0.580   8.010  0.4221 -0.0508 -0.4709
   77SLPC  H12X 7046   1.898   0.514   8.018  0.2594 -0.2670 -0.4198
   77SLPC  H12Y 7047   1.722   0.526   8.054  0.0209 -0.4318 -1.6929
   77SLPC  C313 7048   1.807   0.705   8.102 -0.0271  0.2423  0.1865
   77SLPC  H13X 7049   1.707   0.753   8.098  0.3051  1.1263  2.0878
   77SLPC  H13Y 7050   1.884   0.777   8.066 -0.1229 -1.0527 -2.8532
   77SLPC  C314 7051   1.839   0.661   8.247 -0.5040  0.7779  0.1275
   77SLPC  H14X 7052   1.925   0.591   8.240 -1.0394  0.3725 -2.7984
   77SLPC  H14Y 7053   1.753   0.602   8.285 -0.1669  0.1067 -0.1347
   77SLPC  C315 7054   1.881   0.777   8.328 -0.7089  0.8957 -0.1649
   77SLPC  H15X 7055   1.818   0.866   8.305 -0.4638  1.3303  0.8146
   77SLPC  H15Y 7056   1.980   0.812   8.294 -0.8257  0.4262 -1.0246
   77SLPC  C316 7057   1.880   0.756   8.477  0.2956  0.3971  0.3742
   77SLPC  H16X 7058   1.806   0.679   8.507 -0.4109 -0.1145 -2.4841
   77SLPC  H16Y 7059   1.835   0.846   8.524 -2.9053 -0.9853  0.0590
   77SLPC  C317 7060   2.016   0.713   8.535 -0.6783 -0.4035 -0.8162
   77SLPC  H17X 7061   2.091   0.684   8.459  0.3578  2.9674 -1.1606
   77SLPC  H17Y 7062   2.010   0.623   8.600  2.6111  0.1695  0.3707
   77SLPC  C318 7063   2.082   0.817   8.629  0.6731 -0.5686  0.5379
   77SLPC  H18X 7064   2.185   0.792   8.660  1.3308 -1.6504 -2.3508
   77SLPC  H18Y 7065   2.019   0.838   8.718  0.1079 -1.2655  0.3053
   77SLPC  H18Z 7066   2.093   0.909   8.567  1.2151 -0.6788  0.4689
   78SLPC     N 7067   4.999   1.316   6.040  0.1973  0.2891 -0.3443
   78SLPC   C13 7068   4.966   1.453   5.980 -0.4024 -0.1533 -0.2800
   78SLPC  H13A 7069   4.974   1.541   6.042 -1.1251 -0.4126  0.1906
   78SLPC  H13B 7070   5.035   1.481   5.901  1.9442 -1.1301  1.3581
   78SLPC  H13C 7071   4.867   1.459   5.938  0.3595  0.3086 -2.0841
   78SLPC   C14 7072   5.140   1.317   6.094 -0.0847  0.1956 -0.0016
   78SLPC  H14A 7073   5.211   1.337   6.015 -0.9354  0.2172 -0.7668
   78SLPC  H14B 7074   5.151   1.399   6.164 -0.2250 -0.7494  1.1292
   78SLPC  H14C 7075   5.168   1.218   6.126 -1.1928 -0.5498 -1.3070
   78SLPC   C15 7076   4.990   1.223   5.929  0.1048  0.4839 -0.4320
   78SLPC  H15A 7077   4.992   1.122   5.966  3.3694  0.9104  0.6631
   78SLPC  H15B 7078   4.901   1.243   5.870 -0.2943 -0.1991 -0.0674
   78SLPC  H15C 7079   5.074   1.236   5.862 -0.5291  0.0732 -1.3264
   78SLPC   C12 7080   4.899   1.280   6.148 -0.0579  0.3578 -0.1373
   78SLPC  H12A 7081   4.800   1.271   6.105  0.1411 -1.8454 -0.2243
   78SLPC  H12B 7082   4.898   1.361   6.220 -0.5644 -0.8954  1.3056
   78SLPC   C11 7083   4.933   1.147   6.222  0.2574 -0.6572 -0.1628
   78SLPC  H11A 7084   4.931   1.158   6.332  1.1407  1.7645 -0.3527
   78SLPC  H11B 7085   5.034   1.105   6.202  0.8902 -0.1479  1.8657
   78SLPC     P 7086   4.838   0.913   6.144  0.2072  0.0751 -0.0434
   78SLPC   O13 7087   4.706   0.858   6.115 -0.0979  0.1305  0.5216
   78SLPC   O14 7088   4.935   0.898   6.038 -0.4849 -0.1014  0.0175
   78SLPC   O12 7089   4.824   1.063   6.194 -0.1833 -1.0460 -0.5648
   78SLPC   O11 7090   4.906   0.845   6.275 -0.5125 -0.3620  0.0886
   78SLPC    C1 7091   4.815   0.797   6.377 -0.1992 -0.2103  0.2035
   78SLPC    HA 7092   4.721   0.856   6.383 -1.4689 -2.0484 -1.2940
   78SLPC    HB 7093   4.787   0.691   6.357  1.4747 -0.7635  0.7132
   78SLPC    C2 7094   4.880   0.821   6.520  0.0401  0.1672 -0.2924
   78SLPC    HS 7095   4.885   0.932   6.528  1.4992  0.2311 -1.7527
   78SLPC   O21 7096   5.012   0.768   6.521  0.1255  0.8951 -0.2132
   78SLPC   C21 7097   5.101   0.830   6.592 -0.8144  0.0438  0.0119
   78SLPC   O22 7098   5.087   0.941   6.644  0.5895 -0.3481 -0.3401
   78SLPC   C22 7099   5.232   0.750   6.598  0.6002 -0.3984 -0.1953
   78SLPC   H2R 7100   5.232   0.665   6.527 -1.0570 -0.6434  0.0602
   78SLPC   H2S 7101   5.311   0.822   6.570  0.4383 -0.8505 -1.8517
   78SLPC    C3 7102   4.784   0.773   6.627  0.3495 -0.1289  0.2396
   78SLPC    HX 7103   4.772   0.663   6.622  1.0834 -0.2121  0.3400
   78SLPC    HY 7104   4.681   0.815   6.621 -0.5876 -2.5153 -1.1487
   78SLPC   O31 7105   4.845   0.788   6.754 -0.5152 -0.0415 -0.7473
   78SLPC   C31 7106   4.840   0.910   6.816 -0.1000 -0.6710  0.2528
   78SLPC   O32 7107   4.770   1.000   6.776 -0.1603  0.5323  0.0906
   78SLPC   C32 7108   4.897   0.904   6.956  0.5140  0.4349  0.4287
   78SLPC   H2X 7109   5.004   0.937   6.958 -0.3373  3.2853  1.7616
   78SLPC   H2Y 7110   4.888   0.797   6.985  0.7374  0.0897 -0.7296
   78SLPC   C23 7111   5.272   0.703   6.736  0.1878 -0.0423  0.3990
   78SLPC   H3R 7112   5.286   0.784   6.810  3.1326  0.3116 -0.4659
   78SLPC   H3S 7113   5.358   0.634   6.753 -0.3689 -0.3086  2.3003
   78SLPC   C24 7114   5.165   0.605   6.805  0.1988  0.7346 -0.8540
   78SLPC   H4R 7115   5.175   0.505   6.756 -0.8683 -0.2347  0.8622
   78SLPC   H4S 7116   5.059   0.634   6.792  1.5107  4.7016 -3.8432
   78SLPC   C25 7117   5.173   0.604   6.957 -0.4923  0.2767 -0.0754
   78SLPC   H5R 7118   5.105   0.527   6.997  0.9807  0.2248  2.4601
   78SLPC   H5S 7119   5.140   0.704   6.992 -0.5402  0.3309 -0.2713
   78SLPC   C26 7120   5.319   0.582   7.011 -0.3154  0.2037  0.3038
   78SLPC   H6R 7121   5.373   0.677   6.988  0.7094 -0.2163  0.9398
   78SLPC   H6S 7122   5.365   0.508   6.942  0.8869 -0.1789  1.4999
   78SLPC   C27 7123   5.327   0.530   7.155  0.1656 -0.8654 -0.4542
   78SLPC   H7R 7124   5.280   0.429   7.155  0.3254 -1.0091 -4.0054
   78SLPC   H7S 7125   5.277   0.605   7.220  3.4714  0.4504  0.6855
   78SLPC   C28 7126   5.465   0.510   7.206  0.3917 -0.7397 -0.1889
   78SLPC   H8R 7127   5.528   0.463   7.128 -0.6188 -0.4485 -1.1915
   78SLPC   H8S 7128   5.449   0.452   7.299  0.9772  0.0092  0.3892
   78SLPC   C29 7129   5.545   0.638   7.234 -0.0617 -0.4887 -0.1323
   78SLPC   H9R 7130   5.564   0.701   7.145 -1.7319  1.7900  1.0703
   78SLPC  C210 7131   5.573   0.697   7.354 -0.0583  0.1162 -0.5009
   78SLPC  H10R 7132   5.625   0.794   7.350 -0.0097  0.0438 -1.7011
   78SLPC  C211 7133   5.532   0.640   7.486 -0.5451 -0.7399  0.6436
   78SLPC  H11R 7134   5.616   0.586   7.534 -0.2718 -2.6283 -1.8343
   78SLPC  H11S 7135   5.454   0.562   7.466 -2.2437  1.3744 -1.3528
   78SLPC  C212 7136   5.476   0.745   7.582 -0.2798  0.0724 -0.3223
   78SLPC  H12R 7137   5.414   0.825   7.538 -2.2768  0.7241  3.4076
   78SLPC  C213 7138   5.500   0.751   7.718 -0.9682 -0.1860 -0.1721
   78SLPC  H13R 7139   5.449   0.829   7.776 -1.9967 -0.3370 -0.8487
   78SLPC  C214 7140   5.592   0.662   7.797  0.4596 -0.0398 -0.4080
   78SLPC  H14R 7141   5.662   0.716   7.865  1.2008 -1.2938 -0.1401
   78SLPC  H14S 7142   5.657   0.601   7.731 -0.6021 -0.4365 -1.0974
   78SLPC  C215 7143   5.504   0.580   7.894  0.1893  0.0646  1.4087
   78SLPC  H15R 7144   5.427   0.535   7.828  2.5268 -0.2556 -1.1988
   78SLPC  H15S 7145   5.449   0.640   7.969 -1.2631  0.2676  0.2064
   78SLPC  C216 7146   5.576   0.463   7.956  1.0829  0.2960 -0.9857
   78SLPC  H16R 7147   5.662   0.502   8.014  1.9424  0.7659 -2.5460
   78SLPC  H16S 7148   5.628   0.397   7.883  0.7569  0.5786 -1.4766
   78SLPC  C217 7149   5.485   0.374   8.050 -0.6668 -0.3734 -0.3018
   78SLPC  H17R 7150   5.419   0.447   8.102  2.3025  2.1314  0.1524
   78SLPC  H17S 7151   5.550   0.316   8.120  2.4229  1.5909 -1.4247
   78SLPC  C218 7152   5.416   0.263   7.971 -0.5590 -0.3938 -0.0865
   78SLPC  H18R 7153   5.340   0.309   7.905 -2.9122 -2.6459  0.9493
   78SLPC  H18S 7154   5.381   0.182   8.039  0.8528 -2.1438 -1.3768
   78SLPC  H18T 7155   5.491   0.209   7.909 -1.3172 -2.2623  0.5664
   78SLPC   C33 7156   4.820   0.992   7.063  0.3697  0.0488  0.0029
   78SLPC   H3X 7157   4.714   0.958   7.061  0.7251 -1.0423 -3.7628
   78SLPC   H3Y 7158   4.825   1.097   7.029 -0.7729  0.4165  0.9277
   78SLPC   C34 7159   4.887   0.975   7.203  0.2652  0.6870 -0.5140
   78SLPC   H4X 7160   4.997   0.991   7.198  0.7890 -2.4785 -0.1480
   78SLPC   H4Y 7161   4.878   0.869   7.233 -1.8696  0.3446 -2.2694
   78SLPC   C35 7162   4.836   1.077   7.305  0.3415 -0.5622 -0.3524
   78SLPC   H5X 7163   4.880   1.174   7.271 -1.0886 -0.9105 -3.3697
   78SLPC   H5Y 7164   4.878   1.062   7.406 -0.9922  1.6575  0.5537
   78SLPC   C36 7165   4.684   1.072   7.318  0.5301  0.4236  0.3465
   78SLPC   H6X 7166   4.639   1.121   7.229 -0.5318 -0.3396  0.4491
   78SLPC   H6Y 7167   4.655   1.131   7.408 -1.1570 -0.4304  0.3921
   78SLPC   C37 7168   4.626   0.929   7.346 -0.8120 -0.1865 -0.1093
   78SLPC   H7X 7169   4.641   0.861   7.259  0.5809  1.0677 -0.8685
   78SLPC   H7Y 7170   4.515   0.934   7.353 -0.8278 -0.4233 -0.2019
   78SLPC   C38 7171   4.671   0.864   7.477  0.2076 -0.3227  0.2213
   78SLPC   H8X 7172   4.780   0.873   7.497 -0.1423  2.0099  1.1854
   78SLPC   H8Y 7173   4.649   0.755   7.480 -0.9611 -0.1003 -0.1363
   78SLPC   C39 7174   4.593   0.921   7.602 -0.0990 -0.5569  0.5039
   78SLPC   H9X 7175   4.486   0.912   7.573 -0.1718  1.3883  0.1082
   78SLPC   H9Y 7176   4.604   1.030   7.614 -2.2087 -0.2760  0.1115
   78SLPC  C310 7177   4.614   0.847   7.730  0.2274 -0.3412  0.3802
   78SLPC  H10X 7178   4.529   0.867   7.799  0.9313  1.4867  0.7347
   78SLPC  H10Y 7179   4.708   0.870   7.784 -0.5012  3.3205  0.1905
   78SLPC  C311 7180   4.608   0.693   7.719 -0.0420  0.5224  0.8484
   78SLPC  H11X 7181   4.695   0.660   7.658 -1.4416 -1.4937 -0.1234
   78SLPC  H11Y 7182   4.507   0.676   7.675  0.5430 -3.2418  0.8390
   78SLPC  C312 7183   4.625   0.624   7.860  0.2082 -0.2274 -0.7124
   78SLPC  H12X 7184   4.602   0.517   7.841  2.6734 -0.9921  0.4065
   78SLPC  H12Y 7185   4.543   0.658   7.927  0.1365 -0.2282 -0.7993
   78SLPC  C313 7186   4.766   0.638   7.919  0.2976  0.0483 -1.2074
   78SLPC  H13X 7187   4.772   0.728   7.985  1.9990 -1.0211  0.1272
   78SLPC  H13Y 7188   4.849   0.646   7.846  1.9233 -0.3729  0.5641
   78SLPC  C314 7189   4.810   0.524   8.023 -0.4281  0.4279  0.2752
   78SLPC  H14X 7190   4.858   0.448   7.957  2.0763  1.4003  0.9068
   78SLPC  H14Y 7191   4.714   0.481   8.057 -0.6666 -0.6755 -1.6859
   78SLPC  C315 7192   4.905   0.574   8.134 -0.8438  1.0664  0.0418
   78SLPC  H15X 7193   4.928   0.481   8.191 -2.2716 -1.0329 -2.6755
   78SLPC  H15Y 7194   4.840   0.641   8.193 -0.8190  0.7996  0.3723
   78SLPC  C316 7195   5.029   0.657   8.090  0.6890 -0.2333  0.0775
   78SLPC  H16X 7196   5.028   0.748   8.153 -0.3603 -1.2434  1.5614
   78SLPC  H16Y 7197   5.020   0.692   7.985  1.1668  1.5167  0.5975
   78SLPC  C317 7198   5.165   0.578   8.113  0.4791  0.7427  0.3218
   78SLPC  H17X 7199   5.240   0.627   8.047 -1.9992  3.6290 -0.4497
   78SLPC  H17Y 7200   5.137   0.476   8.080 -0.5932  0.6605  1.4529
   78SLPC  C318 7201   5.209   0.574   8.261 -0.6598  0.5172  0.3564
   78SLPC  H18X 7202   5.237   0.674   8.302 -1.3493  0.7944  0.1432
   78SLPC  H18Y 7203   5.291   0.499   8.266 -0.1705  0.8218 -2.4734
   78SLPC  H18Z 7204   5.122   0.530   8.314 -0.6433  0.6792  0.5170
   79SLPC     N 7205   2.459   3.145   6.089 -0.1998 -0.0568  0.2409
   79SLPC   C13 7206   2.389   3.268   6.048  0.3089 -0.0614  0.1320
   79SLPC  H13A 7207   2.370   3.255   5.942  1.6037 -1.6541  0.0912
   79SLPC  H13B 7208   2.294   3.281   6.098 -0.6633 -0.5462 -1.5665
   79SLPC  H13C 7209   2.452   3.355   6.060  2.7358 -1.9451  1.4411
   79SLPC   C14 7210   2.597   3.149   6.020 -0.3976 -0.0634  0.4154
   79SLPC  H14A 7211   2.578   3.153   5.914 -2.9582  0.1153  0.8311
   79SLPC  H14B 7212   2.652   3.236   6.054 -1.1021  0.7274 -0.4367
   79SLPC  H14C 7213   2.641   3.053   6.040 -1.3397 -0.6403 -0.2232
   79SLPC   C15 7214   2.391   3.026   6.040 -0.3693 -0.5341 -0.5644
   79SLPC  H15A 7215   2.289   3.021   6.076 -0.5854 -0.1235 -1.1209
   79SLPC  H15B 7216   2.390   3.031   5.932 -0.3872  0.0874 -0.5354
   79SLPC  H15C 7217   2.439   2.934   6.071  1.9051  0.9046  0.3231
   79SLPC   C12 7218   2.475   3.146   6.240 -0.2376  0.0560 -0.0798
   79SLPC  H12A 7219   2.522   3.240   6.266  0.9445 -1.1471  2.2506
   79SLPC  H12B 7220   2.543   3.064   6.260 -0.2365 -0.0602 -0.5626
   79SLPC   C11 7221   2.351   3.138   6.337 -0.2381  0.4233 -0.2043
   79SLPC  H11A 7222   2.288   3.228   6.321  0.6376  1.0590 -0.1233
   79SLPC  H11B 7223   2.381   3.134   6.444  0.4959 -0.1285 -0.4266
   79SLPC     P 7224   2.325   2.885   6.345  0.1697 -0.1099  0.2882
   79SLPC   O13 7225   2.277   2.789   6.244  0.2501 -0.0223  0.0414
   79SLPC   O14 7226   2.474   2.887   6.355 -0.2617  1.0152  0.3566
   79SLPC   O12 7227   2.267   3.026   6.315  0.8100  0.0609  0.2245
   79SLPC   O11 7228   2.263   2.848   6.477  0.6504  0.3824  0.1255
   79SLPC    C1 7229   2.128   2.850   6.512  0.4807  0.0868 -0.2904
   79SLPC    HA 7230   2.068   2.848   6.419 -0.2815 -0.3345  0.2097
   79SLPC    HB 7231   2.106   2.761   6.575 -0.8320  0.2408 -0.5270
   79SLPC    C2 7232   2.095   2.972   6.601 -0.3874 -0.6205  0.4976
   79SLPC    HS 7233   2.125   3.064   6.548 -0.5144 -1.7634 -1.6194
   79SLPC   O21 7234   2.154   2.947   6.729  0.0763  0.1631 -0.4425
   79SLPC   C21 7235   2.279   2.985   6.753 -0.4703  0.2628 -0.2952
   79SLPC   O22 7236   2.357   3.038   6.676 -0.5716 -0.5677 -0.0068
   79SLPC   C22 7237   2.315   2.931   6.893 -0.2346 -0.6723 -0.6765
   79SLPC   H2R 7238   2.320   2.822   6.875 -1.0431 -0.3196 -3.4374
   79SLPC   H2S 7239   2.414   2.971   6.924 -0.4623  0.2353 -1.0799
   79SLPC    C3 7240   1.946   2.989   6.632  0.2188 -0.6979  0.5070
   79SLPC    HX 7241   1.926   2.888   6.675 -0.6021 -1.0175 -0.6160
   79SLPC    HY 7242   1.894   2.978   6.534  0.7122 -0.0867  0.1747
   79SLPC   O31 7243   1.902   3.089   6.717  0.1434  0.1211  0.2339
   79SLPC   C31 7244   1.921   3.221   6.694  0.1910 -0.2099  0.0102
   79SLPC   O32 7245   1.973   3.264   6.589 -0.4251  0.3539 -0.0877
   79SLPC   C32 7246   1.868   3.313   6.798 -0.2376  0.5270 -0.1371
   79SLPC   H2X 7247   1.924   3.409   6.793  0.2608  0.2380 -0.1192
   79SLPC   H2Y 7248   1.866   3.262   6.897  1.2775 -0.4312 -0.5748
   79SLPC   C23 7249   2.211   2.956   7.012 -0.3947  0.3101  0.1919
   79SLPC   H3R 7250   2.117   2.898   7.000 -0.5636  0.4271  0.8719
   79SLPC   H3S 7251   2.175   3.061   7.000 -2.1404 -0.5595 -2.4064
   79SLPC   C24 7252   2.282   2.951   7.147 -0.1232 -0.1732 -0.9206
   79SLPC   H4R 7253   2.361   3.028   7.142 -0.6203  0.4128  0.1319
   79SLPC   H4S 7254   2.336   2.855   7.164 -0.5394 -0.3163 -0.3685
   79SLPC   C25 7255   2.189   2.953   7.269  1.4265  0.2621 -0.5203
   79SLPC   H5R 7256   2.120   2.870   7.241  0.0186  0.9109  0.9194
   79SLPC   H5S 7257   2.112   3.034   7.274  0.2122 -0.9798  1.7310
   79SLPC   C26 7258   2.271   2.924   7.393  0.0776 -0.4140 -0.0552
   79SLPC   H6R 7259   2.327   3.017   7.418 -0.4384  0.1413 -0.9373
   79SLPC   H6S 7260   2.351   2.848   7.379 -0.2063 -0.3101 -2.3461
   79SLPC   C27 7261   2.183   2.893   7.513  0.2520  0.4752 -0.5788
   79SLPC   H7R 7262   2.165   2.783   7.517  1.0287  0.4057  2.8843
   79SLPC   H7S 7263   2.088   2.944   7.490 -0.4766 -0.0560  1.1565
   79SLPC   C28 7264   2.256   2.949   7.632 -0.3239 -0.1339 -0.3086
   79SLPC   H8R 7265   2.286   3.052   7.606  1.6903  0.0707  2.6717
   79SLPC   H8S 7266   2.349   2.891   7.648 -2.0740 -3.1940 -0.7027
   79SLPC   C29 7267   2.152   2.970   7.746  0.3155  0.5874  0.1364
   79SLPC   H9R 7268   2.049   2.993   7.714  0.1798 -2.1433 -1.5359
   79SLPC  C210 7269   2.181   2.970   7.880 -0.7158 -0.0726 -0.3455
   79SLPC  H10R 7270   2.103   2.985   7.957 -0.2040  0.5802  0.0532
   79SLPC  C211 7271   2.314   2.944   7.949 -0.8412 -0.7252  0.0255
   79SLPC  H11R 7272   2.395   2.912   7.880  0.1273  1.0174  0.3195
   79SLPC  H11S 7273   2.305   2.870   8.032 -1.2675  0.9460  1.5050
   79SLPC  C212 7274   2.357   3.076   8.017 -0.3153 -0.3036  0.2245
   79SLPC  H12R 7275   2.306   3.170   7.989 -0.0028  0.1883  1.2640
   79SLPC  C213 7276   2.451   3.086   8.115  0.6521 -0.2304 -0.4363
   79SLPC  H13R 7277   2.466   3.192   8.140  0.5893  0.0609 -1.6058
   79SLPC  C214 7278   2.525   2.967   8.181  0.1137 -0.8260 -0.1442
   79SLPC  H14R 7279   2.633   2.983   8.159 -0.1452 -0.1487 -0.9595
   79SLPC  H14S 7280   2.495   2.871   8.134 -0.3063 -1.4103  1.3060
   79SLPC  C215 7281   2.489   2.957   8.333 -0.2140  0.4747  0.3603
   79SLPC  H15R 7282   2.536   2.860   8.360  0.5158  0.4155 -1.0700
   79SLPC  H15S 7283   2.378   2.948   8.336 -0.0907 -1.2441  0.4025
   79SLPC  C216 7284   2.537   3.078   8.406  0.0337 -0.8379  1.0261
   79SLPC  H16R 7285   2.513   3.169   8.349  0.1022 -1.8933 -0.7226
   79SLPC  H16S 7286   2.648   3.072   8.402  0.0116 -0.8404  0.3386
   79SLPC  C217 7287   2.486   3.072   8.547 -0.5702  0.2947 -0.4156
   79SLPC  H17R 7288   2.378   3.097   8.537 -0.7105 -0.8554 -1.9361
   79SLPC  H17S 7289   2.540   3.145   8.612  0.8354 -1.8676  0.9291
   79SLPC  C218 7290   2.498   2.944   8.631 -0.0953  0.0792 -0.0892
   79SLPC  H18R 7291   2.603   2.913   8.653  0.2280  0.2852 -1.3382
   79SLPC  H18S 7292   2.453   2.854   8.583  2.3422 -0.7440 -0.8923
   79SLPC  H18T 7293   2.456   2.955   8.733 -0.5404  1.1836 -0.3842
   79SLPC   C33 7294   1.722   3.360   6.757  0.0452  0.7579  0.1722
   79SLPC   H3X 7295   1.657   3.270   6.753  2.0524 -0.7534  0.9884
   79SLPC   H3Y 7296   1.723   3.405   6.655  1.4196 -0.8744 -0.5528
   79SLPC   C34 7297   1.667   3.453   6.864 -0.4702  0.5679  0.5928
   79SLPC   H4X 7298   1.562   3.468   6.832 -1.2208 -2.9333  1.2505
   79SLPC   H4Y 7299   1.711   3.552   6.838  1.9279  0.3019  3.3717
   79SLPC   C35 7300   1.664   3.412   7.012 -0.2118  0.3760  0.7338
   79SLPC   H5X 7301   1.762   3.429   7.060  0.5906  0.8904 -1.0446
   79SLPC   H5Y 7302   1.611   3.316   7.034 -0.2900  0.5363  1.2486
   79SLPC   C36 7303   1.576   3.523   7.076 -0.4675  0.3866 -0.3427
   79SLPC   H6X 7304   1.473   3.522   7.034  0.1591 -0.3598 -1.9022
   79SLPC   H6Y 7305   1.625   3.618   7.048 -0.4934 -0.4055 -3.3083
   79SLPC   C37 7306   1.563   3.507   7.223  0.5596 -0.5269  0.4165
   79SLPC   H7X 7307   1.665   3.503   7.267 -0.0553  1.6299  2.1072
   79SLPC   H7Y 7308   1.503   3.417   7.250 -0.2551  0.4873  2.1094
   79SLPC   C38 7309   1.488   3.630   7.280  0.7149 -0.0007  0.1594
   79SLPC   H8X 7310   1.386   3.629   7.236  0.4368 -1.5039  0.8024
   79SLPC   H8Y 7311   1.546   3.714   7.237  0.5884 -0.8096 -1.6462
   79SLPC   C39 7312   1.481   3.640   7.436 -0.2763  0.4385  0.2015
   79SLPC   H9X 7313   1.454   3.746   7.452 -0.7170  0.1341  1.5779
   79SLPC   H9Y 7314   1.587   3.648   7.468  0.1558 -2.5028 -0.3110
   79SLPC  C310 7315   1.398   3.536   7.514 -0.1154  0.5126  0.3196
   79SLPC  H10X 7316   1.421   3.434   7.476 -0.8912  0.1450  0.7958
   79SLPC  H10Y 7317   1.291   3.552   7.489 -0.1021  1.4187  0.8381
   79SLPC  C311 7318   1.409   3.537   7.660 -0.3404 -0.5535 -1.1363
   79SLPC  H11X 7319   1.515   3.518   7.688 -0.3328 -0.1543 -0.8916
   79SLPC  H11Y 7320   1.351   3.455   7.706  0.2367 -0.4464 -0.2018
   79SLPC  C312 7321   1.361   3.671   7.722 -0.4654 -0.3525 -0.0511
   79SLPC  H12X 7322   1.252   3.683   7.700 -0.6228 -2.6321 -0.6768
   79SLPC  H12Y 7323   1.425   3.756   7.690  0.1683 -0.7188  0.2406
   79SLPC  C313 7324   1.375   3.670   7.872  0.3404 -0.3876  0.1775
   79SLPC  H13X 7325   1.368   3.778   7.897  4.5619 -0.1660  0.7810
   79SLPC  H13Y 7326   1.475   3.639   7.909 -0.8932 -1.4579  2.7789
   79SLPC  C314 7327   1.265   3.592   7.955  0.3034  0.1439  0.2299
   79SLPC  H14X 7328   1.242   3.496   7.904  3.1015  0.7437 -2.2596
   79SLPC  H14Y 7329   1.176   3.658   7.944  1.1099  0.9906 -1.3209
   79SLPC  C315 7330   1.310   3.568   8.098  0.0101  0.3262 -0.3603
   79SLPC  H15X 7331   1.413   3.526   8.107 -1.2717 -3.0995 -1.0695
   79SLPC  H15Y 7332   1.258   3.494   8.162  1.7935 -1.1357 -0.5508
   79SLPC  C316 7333   1.304   3.698   8.181 -0.5811  0.0224 -0.2767
   79SLPC  H16X 7334   1.388   3.766   8.154 -1.4623  0.5830 -1.6637
   79SLPC  H16Y 7335   1.339   3.673   8.283  0.3253  0.5459 -0.4569
   79SLPC  C317 7336   1.172   3.780   8.178 -0.0867 -0.8485  0.4855
   79SLPC  H17X 7337   1.095   3.708   8.214 -1.4672 -0.7540 -2.1305
   79SLPC  H17Y 7338   1.140   3.819   8.079  2.4128 -1.4315 -0.6015
   79SLPC  C318 7339   1.188   3.903   8.260  0.4973 -0.0126  0.8648
   79SLPC  H18X 7340   1.261   3.971   8.211  0.4945  0.5426  1.6059
   79SLPC  H18Y 7341   1.233   3.887   8.361  1.1180 -2.0991  0.2716
   79SLPC  H18Z 7342   1.085   3.944   8.276  1.0243  2.2000 -1.1059
   80SLPC     N 7343   3.665   1.429   6.271 -0.3525  1.0955  0.7840
   80SLPC   C13 7344   3.808   1.417   6.225  0.1217 -0.9700  0.4054
   80SLPC  H13A 7345   3.838   1.514   6.190 -1.4296 -0.0040  1.6480
   80SLPC  H13B 7346   3.873   1.384   6.304 -0.8883 -0.9559  1.2672
   80SLPC  H13C 7347   3.820   1.348   6.143  0.2808 -0.8019  0.2893
   80SLPC   C14 7348   3.573   1.456   6.152  0.1474  0.1289 -0.7804
   80SLPC  H14A 7349   3.573   1.378   6.077  0.0032 -0.9937  0.3852
   80SLPC  H14B 7350   3.469   1.462   6.182  0.9680  1.3998  1.9611
   80SLPC  H14C 7351   3.610   1.541   6.095 -0.6873  0.2255 -1.1924
   80SLPC   C15 7352   3.655   1.545   6.371  0.0448 -0.0275  0.0162
   80SLPC  H15A 7353   3.555   1.551   6.412  0.4063 -2.7844  1.4469
   80SLPC  H15B 7354   3.727   1.537   6.451  1.3278 -1.6118 -1.2469
   80SLPC  H15C 7355   3.676   1.642   6.330  1.2358 -0.6061 -0.7916
   80SLPC   C12 7356   3.620   1.298   6.338  0.6039 -0.3940 -0.3105
   80SLPC  H12A 7357   3.617   1.218   6.265  0.1898  0.2269 -0.9764
   80SLPC  H12B 7358   3.521   1.310   6.381  0.3118  1.7667 -1.5170
   80SLPC   C11 7359   3.714   1.245   6.451  0.7357  0.9970 -0.3660
   80SLPC  H11A 7360   3.659   1.187   6.528  3.9436 -2.2167 -0.3158
   80SLPC  H11B 7361   3.750   1.337   6.501  0.9007  1.6943 -1.7288
   80SLPC     P 7362   3.792   1.032   6.326  0.1115  0.5278 -0.7722
   80SLPC   O13 7363   3.666   1.030   6.247  0.0670  0.3039  0.4351
   80SLPC   O14 7364   3.926   0.995   6.266  0.2207  0.4076 -0.4118
   80SLPC   O12 7365   3.820   1.171   6.390  0.6069 -0.3142 -0.3618
   80SLPC   O11 7366   3.772   0.938   6.452 -0.3555 -0.1026 -0.3862
   80SLPC    C1 7367   3.878   0.924   6.549 -0.5830  0.0658 -0.8512
   80SLPC    HA 7368   3.959   0.863   6.503 -0.9419 -0.2818 -1.0184
   80SLPC    HB 7369   3.920   1.023   6.574  0.4661 -0.6120  0.1176
   80SLPC    C2 7370   3.816   0.857   6.671  0.6314 -0.4217 -0.6646
   80SLPC    HS 7371   3.775   0.765   6.625 -1.3546  0.2013 -0.1770
   80SLPC   O21 7372   3.704   0.939   6.717 -0.4256 -0.5664 -0.3811
   80SLPC   C21 7373   3.609   0.892   6.793 -0.0540 -0.5545  0.5253
   80SLPC   O22 7374   3.609   0.784   6.846 -0.0980  0.1371  0.6033
   80SLPC   C22 7375   3.495   0.996   6.808 -0.5330 -0.1562  0.6736
   80SLPC   H2R 7376   3.532   1.096   6.779 -1.6922  0.0430 -0.1901
   80SLPC   H2S 7377   3.416   0.957   6.739  0.8462  1.7463 -2.0340
   80SLPC    C3 7378   3.922   0.842   6.788 -0.8044  0.0946  0.0143
   80SLPC    HX 7379   3.937   0.938   6.842  1.6819 -1.7610  2.7563
   80SLPC    HY 7380   4.021   0.830   6.739 -1.1117 -2.2836 -0.0451
   80SLPC   O31 7381   3.892   0.736   6.881  0.2916  0.2132  0.1377
   80SLPC   C31 7382   3.883   0.611   6.843  0.1712  0.0728 -0.0515
   80SLPC   O32 7383   3.902   0.572   6.729 -0.1946 -0.2602  0.5727
   80SLPC   C32 7384   3.846   0.528   6.966  0.7961 -0.1863 -0.0329
   80SLPC   H2X 7385   3.739   0.544   6.993  0.0198 -2.9618 -1.2248
   80SLPC   H2Y 7386   3.923   0.561   7.038 -0.6551  1.8722  0.6382
   80SLPC   C23 7387   3.436   0.996   6.944 -0.2022  0.0558 -0.0784
   80SLPC   H3R 7388   3.512   1.036   7.015 -1.1011 -0.4825  1.1967
   80SLPC   H3S 7389   3.417   0.891   6.973 -1.1057  0.3361  0.3856
   80SLPC   C24 7390   3.317   1.088   6.958 -0.3516  0.2291 -0.5573
   80SLPC   H4R 7391   3.231   1.042   6.906 -0.2748  0.4042 -0.8408
   80SLPC   H4S 7392   3.349   1.188   6.921  1.0265 -0.2643 -0.7307
   80SLPC   C25 7393   3.290   1.111   7.110  0.4845  0.6862 -0.2128
   80SLPC   H5R 7394   3.385   1.141   7.160  1.3985  1.4216 -2.3599
   80SLPC   H5S 7395   3.253   1.012   7.145 -1.4516  1.6814  0.6606
   80SLPC   C26 7396   3.178   1.213   7.118 -0.6229 -0.3568  0.3352
   80SLPC   H6R 7397   3.093   1.197   7.048 -0.8372  1.0924  0.2481
   80SLPC   H6S 7398   3.221   1.314   7.100  2.7777 -1.0901  3.7111
   80SLPC   C27 7399   3.113   1.221   7.259 -0.8005  0.2357  0.2625
   80SLPC   H7R 7400   3.059   1.128   7.286 -1.8875  0.4770 -1.0308
   80SLPC   H7S 7401   3.033   1.298   7.248 -0.3389  0.8383  1.0158
   80SLPC   C28 7402   3.208   1.265   7.379  0.1875  0.2642 -0.7543
   80SLPC   H8R 7403   3.269   1.354   7.351  1.2892 -0.0173  0.7227
   80SLPC   H8S 7404   3.289   1.191   7.399  1.8683  1.9732 -1.0688
   80SLPC   C29 7405   3.133   1.311   7.504  0.1665  0.2053 -0.2852
   80SLPC   H9R 7406   3.052   1.381   7.481  0.1889  1.2334  2.5613
   80SLPC  C210 7407   3.141   1.263   7.629  0.1067 -0.3601  0.0841
   80SLPC  H10R 7408   3.059   1.295   7.695  0.4820 -0.9749  0.8522
   80SLPC  C211 7409   3.224   1.144   7.673 -0.4346  0.3393 -0.3387
   80SLPC  H11R 7410   3.262   1.169   7.774 -0.4548  1.6231 -0.6441
   80SLPC  H11S 7411   3.315   1.131   7.610 -0.7492  1.2001 -0.9883
   80SLPC  C212 7412   3.135   1.021   7.684 -0.1412 -0.1230 -0.4404
   80SLPC  H12R 7413   3.036   1.045   7.726  0.4878 -0.4616  1.2824
   80SLPC  C213 7414   3.171   0.890   7.661  0.3382 -0.4877  0.0208
   80SLPC  H13R 7415   3.088   0.818   7.656 -1.0524  1.1467 -1.2368
   80SLPC  C214 7416   3.300   0.841   7.590 -0.7768  0.9611 -0.1001
   80SLPC  H14R 7417   3.336   0.753   7.649  1.0624  2.6680  1.3961
   80SLPC  H14S 7418   3.381   0.916   7.584 -0.8174  1.0095 -0.0420
   80SLPC  C215 7419   3.279   0.796   7.440  0.9286  0.5905 -0.1780
   80SLPC  H15R 7420   3.236   0.887   7.392 -0.4403 -0.0685 -0.2187
   80SLPC  H15S 7421   3.195   0.723   7.443  1.6577 -0.2160  1.0953
   80SLPC  C216 7422   3.403   0.738   7.368 -0.3857 -0.2939 -0.2564
   80SLPC  H16R 7423   3.450   0.654   7.424  1.4594  0.0568 -1.2105
   80SLPC  H16S 7424   3.485   0.813   7.364 -0.1448 -0.5896 -1.0869
   80SLPC  C217 7425   3.375   0.719   7.217  0.0615  0.4291  0.1079
   80SLPC  H17R 7426   3.330   0.813   7.178 -0.5355 -0.3369 -1.0952
   80SLPC  H17S 7427   3.303   0.636   7.204 -0.7389  0.9937  0.9248
   80SLPC  C218 7428   3.493   0.666   7.138  0.6274  0.4108  0.1941
   80SLPC  H18R 7429   3.469   0.623   7.039  2.3478  0.7909 -0.4038
   80SLPC  H18S 7430   3.547   0.580   7.183 -3.1275 -1.1336  1.8952
   80SLPC  H18T 7431   3.564   0.751   7.124 -0.7394  1.7256  1.0976
   80SLPC   C33 7432   3.858   0.377   6.936 -0.4826 -0.1602  0.0039
   80SLPC   H3X 7433   3.957   0.367   6.886 -0.1556  2.2826  0.1255
   80SLPC   H3Y 7434   3.784   0.346   6.859  1.2891  0.2309 -1.9199
   80SLPC   C34 7435   3.842   0.280   7.050 -0.2440 -0.1346 -0.1923
   80SLPC   H4X 7436   3.921   0.277   7.129  0.7820  1.4407 -1.1292
   80SLPC   H4Y 7437   3.837   0.179   7.003  1.3235 -0.3318  0.0169
   80SLPC   C35 7438   3.718   0.304   7.129 -0.8738 -0.2571  0.6073
   80SLPC   H5X 7439   3.639   0.322   7.053  0.2791  1.1171 -0.2949
   80SLPC   H5Y 7440   3.715   0.399   7.188 -1.7369 -0.9542  1.7131
   80SLPC   C36 7441   3.672   0.175   7.211  0.1122 -0.1398  0.3808
   80SLPC   H6X 7442   3.699   0.086   7.150 -1.5651  0.1785 -0.8535
   80SLPC   H6Y 7443   3.562   0.185   7.220  0.0385  0.1019 -0.6945
   80SLPC   C37 7444   3.728   0.173   7.350  0.2231  0.0254 -0.8470
   80SLPC   H7X 7445   3.838   0.161   7.340  0.0510 -2.1313 -0.5152
   80SLPC   H7Y 7446   3.687   0.087   7.407  0.1758  0.9778  0.5649
   80SLPC   C38 7447   3.703   0.299   7.433  0.4019 -0.1502  0.0471
   80SLPC   H8X 7448   3.595   0.316   7.411 -0.1175 -4.0015 -0.9140
   80SLPC   H8Y 7449   3.767   0.384   7.400  0.9333 -0.7406 -0.4749
   80SLPC   C39 7450   3.741   0.268   7.581  0.0713 -0.6092  0.6542
   80SLPC   H9X 7451   3.850   0.246   7.591  0.0091 -1.9088 -1.1294
   80SLPC   H9Y 7452   3.682   0.177   7.605  1.0247 -1.2010  0.7872
   80SLPC  C310 7453   3.710   0.376   7.686 -0.1277  0.0036 -0.0239
   80SLPC  H10X 7454   3.599   0.382   7.678 -0.0742  0.4858 -0.4610
   80SLPC  H10Y 7455   3.763   0.465   7.647  1.9021 -1.5067 -0.7812
   80SLPC  C311 7456   3.765   0.346   7.827  0.1954 -0.1128  0.4334
   80SLPC  H11X 7457   3.719   0.417   7.899  1.0080  1.0463 -0.1745
   80SLPC  H11Y 7458   3.876   0.350   7.825  0.2693 -1.8520  0.4534
   80SLPC  C312 7459   3.745   0.201   7.873  0.0993  0.0061 -0.4632
   80SLPC  H12X 7460   3.813   0.140   7.811 -1.1420 -1.5324 -0.3650
   80SLPC  H12Y 7461   3.639   0.169   7.860 -0.2796  1.4070 -0.8722
   80SLPC  C313 7462   3.765   0.181   8.028 -0.5966 -0.2126  0.2607
   80SLPC  H13X 7463   3.843   0.251   8.066 -0.1932  0.3923 -1.6380
   80SLPC  H13Y 7464   3.787   0.075   8.054 -1.5512 -0.4813 -0.0201
   80SLPC  C314 7465   3.645   0.212   8.124  0.3272 -0.1337  0.3293
   80SLPC  H14X 7466   3.567   0.140   8.090  1.9965 -1.1610 -1.3915
   80SLPC  H14Y 7467   3.605   0.315   8.119  1.0038  0.0834 -0.7743
   80SLPC  C315 7468   3.695   0.190   8.273 -0.3910  0.1308  0.2621
   80SLPC  H15X 7469   3.767   0.271   8.298 -0.3201 -0.1905  1.0868
   80SLPC  H15Y 7470   3.752   0.095   8.280 -0.8895 -0.2199 -0.3387
   80SLPC  C316 7471   3.587   0.196   8.377  0.3262 -0.5699  0.4370
   80SLPC  H16X 7472   3.623   0.163   8.477 -0.1976 -0.9793  0.4953
   80SLPC  H16Y 7473   3.516   0.114   8.352 -1.0542 -0.2140  2.9674
   80SLPC  C317 7474   3.498   0.327   8.386  0.1598  0.0413  0.2780
   80SLPC  H17X 7475   3.406   0.300   8.444 -0.1802 -1.2609 -0.8302
   80SLPC  H17Y 7476   3.474   0.350   8.280  1.1823  0.9188  0.2366
   80SLPC  C318 7477   3.562   0.453   8.431  1.2475  0.1755  0.8716
   80SLPC  H18X 7478   3.613   0.434   8.528 -2.0047  2.6010  3.1840
   80SLPC  H18Y 7479   3.484   0.528   8.458  0.2309  0.1392 -1.8562
   80SLPC  H18Z 7480   3.645   0.488   8.366  0.0094  2.2088  0.3300
   81SAPS     N 7481   3.134   3.289  10.941 -0.0018 -0.1174 -0.1602
   81SAPS   HN1 7482   3.100   3.368  10.882 -0.7900 -1.0669 -0.9950
   81SAPS   HN2 7483   3.236   3.310  10.938  0.1910 -1.0507 -0.3603
   81SAPS   HN3 7484   3.124   3.188  10.919 -0.1722  0.1407 -1.3223
   81SAPS   C12 7485   3.066   3.312  11.072  0.9207  0.1434  0.6765
   81SAPS  H12A 7486   3.012   3.404  11.057  2.1062  0.4073 -2.2032
   81SAPS   C13 7487   2.962   3.202  11.102  0.2839 -0.9495 -0.0446
   81SAPS  O13A 7488   2.941   3.113  11.013 -0.4461 -0.0796 -0.3982
   81SAPS  O13B 7489   2.874   3.218  11.195  0.4499 -0.3404 -0.1984
   81SAPS   C11 7490   3.162   3.324  11.193  0.1273 -0.1095 -0.5033
   81SAPS  H11A 7491   3.227   3.235  11.210 -0.4842 -0.7865 -1.6704
   81SAPS  H11B 7492   3.099   3.317  11.285  0.0261 -0.3490 -0.5892
   81SAPS     P 7493   3.384   3.464  11.151  0.0756 -0.0798  0.3452
   81SAPS   O13 7494   3.424   3.602  11.169  0.1748  0.1943 -0.4871
   81SAPS   O14 7495   3.473   3.362  11.214  0.1850  0.3740 -0.1228
   81SAPS   O12 7496   3.230   3.445  11.199 -0.4659 -0.2745 -0.1713
   81SAPS   O11 7497   3.362   3.433  10.997  0.2184 -0.0351  0.1580
   81SAPS    C1 7498   3.455   3.374  10.909 -0.3629  0.8676  0.1398
   81SAPS    HA 7499   3.557   3.412  10.929 -0.4810  0.9262  0.6379
   81SAPS    HB 7500   3.449   3.264  10.920 -0.6246  0.6221 -2.1598
   81SAPS    C2 7501   3.428   3.421  10.762  0.6163  0.3046  0.6938
   81SAPS    HS 7502   3.413   3.531  10.767  0.8940  0.3988 -0.3731
   81SAPS   O21 7503   3.303   3.359  10.712  1.4509  0.5089  0.5827
   81SAPS   C21 7504   3.251   3.425  10.602 -0.4884 -0.4088  0.0296
   81SAPS   O22 7505   3.282   3.532  10.558 -0.9825  0.1356  0.0786
   81SAPS   C22 7506   3.137   3.340  10.555 -0.2740  0.9432  0.1177
   81SAPS   H2R 7507   3.171   3.234  10.558 -1.6972  0.4755 -0.1777
   81SAPS   H2S 7508   3.059   3.348  10.633 -0.2699 -0.2357  0.2429
   81SAPS    C3 7509   3.552   3.384  10.676 -0.7128 -0.1493  1.0302
   81SAPS    HX 7510   3.579   3.276  10.688 -0.5566 -0.2875 -0.5235
   81SAPS    HY 7511   3.642   3.443  10.704  1.4041 -2.4077 -0.7147
   81SAPS   O31 7512   3.532   3.419  10.538  0.0319 -0.1132 -0.2665
   81SAPS   C31 7513   3.526   3.323  10.448 -0.1415 -0.5107 -0.2656
   81SAPS   O32 7514   3.528   3.200  10.472  0.3890 -0.0988 -0.2629
   81SAPS   C32 7515   3.502   3.383  10.312 -0.3548 -0.3730  0.3317
   81SAPS   H2X 7516   3.601   3.410  10.269  0.1703 -0.6376  1.3635
   81SAPS   H2Y 7517   3.448   3.478  10.326 -3.3066 -2.0835  0.9285
   81SAPS   C23 7518   3.092   3.396  10.412  0.2922  0.2777 -0.6830
   81SAPS   H3R 7519   3.188   3.417  10.360  0.6182  0.6294  0.0594
   81SAPS   H3S 7520   3.039   3.489  10.441  0.0806 -0.2420  0.6465
   81SAPS   C24 7521   3.013   3.290  10.331 -0.0449 -0.2600 -0.5299
   81SAPS   H4R 7522   2.967   3.343  10.244  0.4826 -1.5586 -1.6140
   81SAPS   H4S 7523   2.941   3.261  10.411 -0.4044  0.5629 -0.5497
   81SAPS   C25 7524   3.082   3.165  10.287 -0.5938  0.2433  0.6891
   81SAPS   H5R 7525   3.158   3.123  10.354  1.4788  1.2498 -0.9808
   81SAPS   C26 7526   3.064   3.101  10.169  0.0623 -0.0067 -0.4958
   81SAPS   H6R 7527   3.129   3.013  10.157  1.9533  0.9349  2.2578
   81SAPS   C27 7528   2.971   3.133  10.058 -0.9965 -0.6920  0.1379
   81SAPS   H7R 7529   3.026   3.146   9.962 -0.4119  0.8546  0.6676
   81SAPS   H7S 7530   2.918   3.227  10.083 -0.4335  0.1802 -1.8542
   81SAPS   C28 7531   2.875   3.021  10.040 -0.2291 -0.3051 -1.3263
   81SAPS   H8R 7532   2.831   2.982  10.133  2.7272 -1.1268 -0.2189
   81SAPS   C29 7533   2.836   2.957   9.927  0.8084  0.4448  0.1084
   81SAPS   H9R 7534   2.761   2.876   9.928  1.3285 -0.0553 -1.2457
   81SAPS  C210 7535   2.887   3.003   9.791 -0.8050  0.2928 -0.5206
   81SAPS  H10R 7536   2.905   3.113   9.794  0.3555  0.0689  0.9252
   81SAPS  H10S 7537   2.811   2.993   9.710 -2.9061  1.6659  1.2314
   81SAPS  C211 7538   3.020   2.942   9.756  0.6895 -0.1826  0.6363
   81SAPS  H11R 7539   3.092   2.936   9.840  2.0086  0.9458 -0.3815
   81SAPS  C212 7540   3.058   2.887   9.639 -0.2606 -0.0571 -0.0886
   81SAPS  H12R 7541   3.159   2.845   9.624  1.1846  3.8730 -2.1973
   81SAPS  C213 7542   2.975   2.878   9.518  0.0319 -0.5810 -0.3504
   81SAPS  H13R 7543   3.045   2.890   9.432  0.2521 -0.7699 -0.1965
   81SAPS  H13S 7544   2.910   2.968   9.513  0.6598 -0.1198 -0.2675
   81SAPS  C214 7545   2.886   2.753   9.517 -0.2336 -0.0118  0.4093
   81SAPS  H14R 7546   2.840   2.728   9.613  0.5328  0.2029  0.8322
   81SAPS  C215 7547   2.851   2.677   9.413 -0.2383  0.4133 -0.8997
   81SAPS  H15R 7548   2.771   2.604   9.429 -0.4077  0.4997 -1.3495
   81SAPS  C216 7549   2.900   2.697   9.273  0.3494  0.6038 -0.2864
   81SAPS  H16R 7550   3.007   2.727   9.274  0.8067 -0.9168 -0.9950
   81SAPS  H16S 7551   2.851   2.788   9.231  1.0470  0.7691 -0.7708
   81SAPS  C217 7552   2.877   2.578   9.177  0.0973 -0.0825 -0.0581
   81SAPS  H17R 7553   2.768   2.565   9.160 -0.1184  0.1360  1.1179
   81SAPS  H17S 7554   2.903   2.487   9.234 -1.4446 -0.0959  0.6581
   81SAPS  C218 7555   2.942   2.595   9.041 -0.3835  0.7091  0.8490
   81SAPS  H18R 7556   3.053   2.599   9.048  0.0691 -0.5825 -3.7501
   81SAPS  H18S 7557   2.907   2.695   9.010  0.4583  0.4618 -0.9673
   81SAPS  C219 7558   2.886   2.498   8.937 -0.6031  0.3588  0.4063
   81SAPS  H19R 7559   2.780   2.526   8.919 -0.3121  0.1544 -1.6646
   81SAPS  H19S 7560   2.894   2.400   8.989  2.1328  1.0336  1.3759
   81SAPS  C220 7561   2.948   2.503   8.797 -0.4654 -0.4887 -0.5019
   81SAPS  H20R 7562   2.899   2.448   8.713 -0.6464 -0.2073 -0.5831
   81SAPS  H20S 7563   3.049   2.460   8.809 -0.2069  0.2650  0.0387
   81SAPS  H20T 7564   2.963   2.609   8.769 -0.3199  0.2143  2.1206
   81SAPS   C33 7565   3.432   3.287  10.207 -0.0603  0.2562 -0.4441
   81SAPS   H3X 7566   3.329   3.272  10.247 -0.8370  1.7065 -1.8706
   81SAPS   H3Y 7567   3.489   3.192  10.199 -1.0916 -0.4880  0.8030
   81SAPS   C34 7568   3.434   3.348  10.065  0.1945  0.1206  0.3796
   81SAPS   H4X 7569   3.535   3.372  10.026  0.3730 -0.2282  0.6315
   81SAPS   H4Y 7570   3.377   3.443  10.073 -2.9168 -1.5352 -1.1614
   81SAPS   C35 7571   3.350   3.251   9.970 -0.1878 -0.5590  0.8268
   81SAPS   H5X 7572   3.250   3.238  10.016 -1.5378  0.8256 -1.5900
   81SAPS   H5Y 7573   3.403   3.155   9.955  0.7631  0.4033 -2.3576
   81SAPS   C36 7574   3.331   3.315   9.828  0.1511  0.4975 -0.3205
   81SAPS   H6X 7575   3.282   3.414   9.838  3.4743  2.2083 -0.2798
   81SAPS   H6Y 7576   3.278   3.233   9.776 -0.5812 -1.1612  2.8996
   81SAPS   C37 7577   3.469   3.348   9.753  0.3559  0.0127 -1.2137
   81SAPS   H7X 7578   3.538   3.260   9.755 -0.0158 -0.3147 -2.3078
   81SAPS   H7Y 7579   3.517   3.437   9.798  0.0676 -0.6441  0.4075
   81SAPS   C38 7580   3.453   3.354   9.603 -0.1738 -0.3772  1.0390
   81SAPS   H8X 7581   3.406   3.442   9.556  2.9485  1.2921  0.9400
   81SAPS   H8Y 7582   3.392   3.267   9.572 -0.8954  0.7305 -0.6950
   81SAPS   C39 7583   3.582   3.333   9.515 -1.2016  0.3394 -0.2345
   81SAPS   H9X 7584   3.619   3.230   9.531  0.1107  0.7061 -0.8660
   81SAPS   H9Y 7585   3.657   3.404   9.555  1.5629 -1.4115 -2.1415
   81SAPS  C310 7586   3.565   3.356   9.362 -0.6065 -0.0438 -0.1346
   81SAPS  H10X 7587   3.524   3.456   9.338  0.0364  0.0739 -0.7830
   81SAPS  H10Y 7588   3.489   3.287   9.319  2.0925 -1.8817 -2.1915
   81SAPS  C311 7589   3.696   3.329   9.292 -0.2349  0.2971  0.0197
   81SAPS  H11X 7590   3.745   3.235   9.323  0.5980  0.2861 -1.2588
   81SAPS  H11Y 7591   3.766   3.410   9.322 -0.4152  0.2558  0.5449
   81SAPS  C312 7592   3.668   3.325   9.139 -0.4640 -0.0340  0.1548
   81SAPS  H12X 7593   3.584   3.256   9.117  1.0659 -2.2965  1.1942
   81SAPS  H12Y 7594   3.747   3.280   9.074 -1.0574 -1.6845  0.5562
   81SAPS  C313 7595   3.643   3.465   9.073 -0.4218 -0.6142  0.4164
   81SAPS  H13X 7596   3.746   3.504   9.057 -0.8665 -0.1139 -1.3861
   81SAPS  H13Y 7597   3.589   3.526   9.149 -2.1861  0.1491 -1.4160
   81SAPS  C314 7598   3.573   3.473   8.942  0.0995 -0.6123  0.2010
   81SAPS  H14X 7599   3.553   3.579   8.916 -0.4824 -0.0226  2.8754
   81SAPS  H14Y 7600   3.475   3.422   8.955  0.0458 -0.3271  0.9245
   81SAPS  C315 7601   3.639   3.410   8.818  0.3109 -0.0932  0.0221
   81SAPS  H15X 7602   3.559   3.362   8.757  2.1066 -1.8022 -1.0683
   81SAPS  H15Y 7603   3.708   3.330   8.851 -0.6205 -1.0916 -0.4112
   81SAPS  C316 7604   3.709   3.512   8.725  0.1163  0.2560 -0.0819
   81SAPS  H16X 7605   3.775   3.465   8.649  0.4348  0.1362  0.2665
   81SAPS  H16Y 7606   3.770   3.578   8.789  0.5303  0.4963 -0.7232
   81SAPS  C317 7607   3.607   3.593   8.653  0.1307  0.4917  0.0989
   81SAPS  H17X 7608   3.549   3.654   8.726 -1.1451  0.4407 -0.8539
   81SAPS  H17Y 7609   3.533   3.523   8.609 -3.0891  2.1066  2.7545
   81SAPS  C318 7610   3.648   3.694   8.543 -0.0559 -0.3383 -0.2219
   81SAPS  H18X 7611   3.702   3.637   8.465  1.9388  3.3427 -1.6838
   81SAPS  H18Y 7612   3.704   3.781   8.585  1.3247 -1.6617  0.6974
   81SAPS  H18Z 7613   3.562   3.738   8.488 -0.0050  0.3721  0.2528
   82SAPS     N 7614   2.277   2.113  10.900 -0.0890 -0.1575  0.1955
   82SAPS   HN1 7615   2.246   2.083  10.994 -0.7282 -0.0281  0.0293
   82SAPS   HN2 7616   2.194   2.086  10.842 -0.3283  0.2675  0.3315
   82SAPS   HN3 7617   2.359   2.055  10.875 -1.5397 -1.6404 -1.3504
   82SAPS   C12 7618   2.310   2.258  10.880 -0.4858  0.3220 -0.1823
   82SAPS  H12A 7619   2.226   2.313  10.920 -0.7951  0.1043 -0.5345
   82SAPS   C13 7620   2.438   2.302  10.953 -0.0960  0.8833 -0.1232
   82SAPS  O13A 7621   2.499   2.214  11.026  0.0261 -0.7122 -0.1337
   82SAPS  O13B 7622   2.473   2.417  10.945 -0.1242 -0.2460 -0.2891
   82SAPS   C11 7623   2.323   2.283  10.731  0.7927  0.2243 -0.4120
   82SAPS  H11A 7624   2.414   2.241  10.683  0.6263 -0.1267 -0.4139
   82SAPS  H11B 7625   2.337   2.393  10.722  2.0712  0.1571  0.5535
   82SAPS     P 7626   2.089   2.341  10.633 -0.1788  0.4024 -0.2607
   82SAPS   O13 7627   1.984   2.284  10.542 -0.1885 -0.3637 -0.3378
   82SAPS   O14 7628   2.040   2.372  10.767 -0.0078  0.1534 -0.1475
   82SAPS   O12 7629   2.209   2.241  10.651  0.2186  0.4754  0.0412
   82SAPS   O11 7630   2.150   2.474  10.572 -0.1338 -0.1213 -0.2076
   82SAPS    C1 7631   2.108   2.523  10.439 -0.5478 -0.4022 -0.8823
   82SAPS    HA 7632   2.004   2.501  10.408  0.1518  0.7290 -4.2699
   82SAPS    HB 7633   2.117   2.634  10.447  0.7149 -0.5296 -0.3583
   82SAPS    C2 7634   2.218   2.486  10.336 -0.0600  0.1073  0.3506
   82SAPS    HS 7635   2.213   2.549  10.245  0.3396  3.1960  2.3963
   82SAPS   O21 7636   2.210   2.346  10.299 -0.9383  0.7347  0.4691
   82SAPS   C21 7637   2.103   2.314  10.234 -0.4083 -0.2443 -0.4988
   82SAPS   O22 7638   2.032   2.391  10.177 -0.2996 -0.1429 -0.0654
   82SAPS   C22 7639   2.077   2.156  10.259  0.4964 -0.7064  0.3387
   82SAPS   H2R 7640   2.176   2.108  10.274  1.5706  0.7781 -1.6986
   82SAPS   H2S 7641   2.006   2.139  10.342  1.1151  1.5820  1.3838
   82SAPS    C3 7642   2.363   2.506  10.383 -0.6290  0.6238  0.0870
   82SAPS    HX 7643   2.383   2.441  10.470  1.7507  0.1509 -0.7579
   82SAPS    HY 7644   2.389   2.609  10.416  1.5733  0.6525 -1.5387
   82SAPS   O31 7645   2.447   2.484  10.266  0.4008 -0.4188 -0.3954
   82SAPS   C31 7646   2.526   2.375  10.273 -0.1900  0.9476 -0.4119
   82SAPS   O32 7647   2.524   2.286  10.353  0.3475  0.7330  0.1787
   82SAPS   C32 7648   2.640   2.395  10.163 -0.2191  0.5581  0.5652
   82SAPS   H2X 7649   2.732   2.355  10.211  1.3766  0.8889 -2.1032
   82SAPS   H2Y 7650   2.653   2.505  10.150 -2.2870  0.9087  1.2991
   82SAPS   C23 7651   2.008   2.081  10.144 -0.1103  0.8907 -0.2598
   82SAPS   H3R 7652   1.934   2.155  10.105 -2.4531 -0.3334  1.6935
   82SAPS   H3S 7653   1.947   1.999  10.188 -0.5880  1.7340  0.6831
   82SAPS   C24 7654   2.088   2.044  10.021 -0.2653  0.1571 -0.2073
   82SAPS   H4R 7655   2.155   2.129   9.994 -1.1333  0.5377 -1.1872
   82SAPS   H4S 7656   2.012   2.032   9.941  0.7109 -4.4460 -0.5809
   82SAPS   C25 7657   2.159   1.917  10.031  0.3413  0.1059 -0.0002
   82SAPS   H5R 7658   2.213   1.905  10.126  3.4086 -1.1215 -1.8483
   82SAPS   C26 7659   2.176   1.819   9.941  0.4233 -0.7416  0.7600
   82SAPS   H6R 7660   2.237   1.731   9.964  0.4909 -0.8135  0.3077
   82SAPS   C27 7661   2.132   1.848   9.800 -0.0706  0.1892  0.3895
   82SAPS   H7R 7662   2.149   1.955   9.775  0.4457  0.2375  0.9358
   82SAPS   H7S 7663   2.023   1.828   9.797 -0.0425  0.0566  0.1967
   82SAPS   C28 7664   2.190   1.750   9.703  0.3618 -0.2360  0.3092
   82SAPS   H8R 7665   2.192   1.647   9.743  0.2393 -0.9275 -1.4142
   82SAPS   C29 7666   2.224   1.780   9.583 -0.4642  0.2449  0.7364
   82SAPS   H9R 7667   2.247   1.695   9.516  1.1315  1.0600  0.2300
   82SAPS  C210 7668   2.216   1.915   9.512 -0.3686  0.2575 -0.4722
   82SAPS  H10R 7669   2.312   1.945   9.464 -0.1942 -0.0453 -0.3104
   82SAPS  H10S 7670   2.193   1.996   9.584 -0.6130  0.3251 -0.6259
   82SAPS  C211 7671   2.099   1.898   9.414 -0.0564  0.0229  0.3385
   82SAPS  H11R 7672   1.996   1.904   9.452 -1.0352 -0.5453 -2.0877
   82SAPS  C212 7673   2.106   1.897   9.279  0.6767  0.2022 -0.3192
   82SAPS  H12R 7674   2.016   1.868   9.222  0.1389  1.7569 -0.2875
   82SAPS  C213 7675   2.227   1.904   9.197 -0.5144  0.0314  1.2343
   82SAPS  H13R 7676   2.298   1.829   9.238 -1.6441 -1.8163 -0.0847
   82SAPS  H13S 7677   2.275   2.002   9.215 -1.3328  1.2413 -2.6778
   82SAPS  C214 7678   2.214   1.879   9.049 -0.7639 -0.1766  0.6340
   82SAPS  H14R 7679   2.229   1.965   8.983  0.3202 -0.9662 -0.1595
   82SAPS  C215 7680   2.175   1.767   8.980 -0.0539  0.8274 -0.1558
   82SAPS  H15R 7681   2.155   1.768   8.872 -2.2885  2.8827  0.2251
   82SAPS  C216 7682   2.134   1.630   9.044 -0.6171 -0.0006 -0.1815
   82SAPS  H16R 7683   2.148   1.642   9.153 -1.0676  1.1146 -0.2354
   82SAPS  H16S 7684   2.202   1.550   9.008  0.9734  2.0610 -1.8644
   82SAPS  C217 7685   1.989   1.581   9.028 -0.3188  0.5285 -0.2466
   82SAPS  H17R 7686   1.982   1.548   8.922 -2.9883 -0.0891  0.0982
   82SAPS  H17S 7687   1.922   1.665   9.056 -0.5867 -0.4306  2.0750
   82SAPS  C218 7688   1.957   1.457   9.102  0.0858  0.2248 -0.3085
   82SAPS  H18R 7689   1.983   1.461   9.210 -0.8866  0.9536 -0.0972
   82SAPS  H18S 7690   2.023   1.375   9.065  0.8890  0.9697 -0.5445
   82SAPS  C219 7691   1.806   1.419   9.086 -0.4642  0.2891 -0.2654
   82SAPS  H19R 7692   1.773   1.432   8.981  0.7140  1.5628 -0.5079
   82SAPS  H19S 7693   1.730   1.486   9.131 -2.7251 -1.6641 -1.0530
   82SAPS  C220 7694   1.767   1.282   9.135  0.2369 -0.8278  0.1365
   82SAPS  H20R 7695   1.775   1.288   9.246  0.2873  1.7394  0.0184
   82SAPS  H20S 7696   1.836   1.200   9.105  0.9650 -0.0306 -0.3972
   82SAPS  H20T 7697   1.670   1.249   9.093 -0.4745 -0.8280  1.7695
   82SAPS   C33 7698   2.612   2.319  10.029  0.0857  0.0863 -0.6126
   82SAPS   H3X 7699   2.586   2.212  10.043  0.7571  0.1118  0.9180
   82SAPS   H3Y 7700   2.710   2.327   9.977  0.6487 -1.3962  0.2091
   82SAPS   C34 7701   2.509   2.375   9.925 -0.1581  0.0195 -0.3598
   82SAPS   H4X 7702   2.547   2.343   9.826  1.4953  0.7915 -0.0084
   82SAPS   H4Y 7703   2.517   2.486   9.930 -1.3195  0.1346 -0.9674
   82SAPS   C35 7704   2.360   2.346   9.957  0.0373 -0.3491  0.0732
   82SAPS   H5X 7705   2.336   2.402  10.050  0.5604 -1.5976  0.9675
   82SAPS   H5Y 7706   2.366   2.237   9.979 -2.7001 -0.6632 -0.6292
   82SAPS   C36 7707   2.256   2.380   9.849 -0.1699 -0.4245 -1.3473
   82SAPS   H6X 7708   2.257   2.490   9.837 -4.8096 -0.1167 -0.0491
   82SAPS   H6Y 7709   2.156   2.361   9.895  0.1540  0.5046 -0.2528
   82SAPS   C37 7710   2.266   2.316   9.708 -0.0435 -0.2488 -0.6652
   82SAPS   H7X 7711   2.244   2.207   9.716 -1.5126 -0.0954 -2.1851
   82SAPS   H7Y 7712   2.371   2.330   9.676  0.3543 -1.3657  0.1408
   82SAPS   C38 7713   2.158   2.364   9.606 -0.6934  0.2818 -0.2328
   82SAPS   H8X 7714   2.162   2.474   9.589  0.4431 -0.0815 -2.3860
   82SAPS   H8Y 7715   2.062   2.341   9.656  0.1802  0.6863  1.7305
   82SAPS   C39 7716   2.164   2.289   9.475 -0.0262  0.4746  0.9039
   82SAPS   H9X 7717   2.103   2.197   9.484 -1.0927  1.1222  0.4795
   82SAPS   H9Y 7718   2.265   2.258   9.442 -1.0220 -0.2476 -1.5688
   82SAPS  C310 7719   2.096   2.362   9.353  0.2016  0.2462  0.1199
   82SAPS  H10X 7720   2.150   2.459   9.347  1.1427 -0.3922 -2.4576
   82SAPS  H10Y 7721   1.992   2.381   9.385  0.2683  1.6992 -0.5107
   82SAPS  C311 7722   2.100   2.269   9.232  0.0867 -0.1510  1.1668
   82SAPS  H11X 7723   2.029   2.183   9.228 -1.6381  1.2735  0.8890
   82SAPS  H11Y 7724   2.202   2.224   9.226 -0.8714 -2.0487 -1.6637
   82SAPS  C312 7725   2.068   2.348   9.112  0.5623 -0.0146  0.1556
   82SAPS  H12X 7726   2.134   2.437   9.100  0.6629  0.0270  0.9558
   82SAPS  H12Y 7727   1.961   2.378   9.102  0.6107 -0.0524 -0.5079
   82SAPS  C313 7728   2.099   2.269   8.986 -0.0406  0.1685 -0.5485
   82SAPS  H13X 7729   2.061   2.165   8.989  0.1037  0.0395 -2.7183
   82SAPS  H13Y 7730   2.209   2.250   8.985  0.0608  0.5638  0.9128
   82SAPS  C314 7731   2.061   2.351   8.858 -0.4850 -0.3505  0.1221
   82SAPS  H14X 7732   2.084   2.460   8.856 -0.0590 -0.4162  1.0961
   82SAPS  H14Y 7733   1.951   2.340   8.859 -0.3387 -2.0200  0.2616
   82SAPS  C315 7734   2.115   2.280   8.739 -0.3967  0.2272 -0.2416
   82SAPS  H15X 7735   2.088   2.172   8.742  5.1562 -1.2721  0.0626
   82SAPS  H15Y 7736   2.225   2.281   8.754 -0.3880 -1.4534 -0.1074
   82SAPS  C316 7737   2.062   2.345   8.610  0.0147  0.6193 -0.0234
   82SAPS  H16X 7738   2.109   2.299   8.520 -3.7246  0.0484 -1.7931
   82SAPS  H16Y 7739   2.105   2.447   8.600 -0.3704  0.6918 -1.1234
   82SAPS  C317 7740   1.918   2.349   8.584 -0.2324 -0.2676 -0.1913
   82SAPS  H17X 7741   1.870   2.409   8.664  1.0909 -0.5009  0.8043
   82SAPS  H17Y 7742   1.893   2.242   8.603  0.4008 -0.4117 -0.1662
   82SAPS  C318 7743   1.881   2.400   8.448  1.0357  0.1162  0.4596
   82SAPS  H18X 7744   1.918   2.332   8.369  3.2631  1.7110  0.0806
   82SAPS  H18Y 7745   1.909   2.504   8.422  3.3209  0.5445  4.1983
   82SAPS  H18Z 7746   1.772   2.381   8.438  1.5231 -1.1736 -3.0833
   83SAPS     N 7747   4.062   4.135  11.141 -0.2204  0.3250  0.1283
   83SAPS   HN1 7748   4.091   4.234  11.134 -0.0660  0.3096  0.5151
   83SAPS   HN2 7749   4.088   4.091  11.051  2.7017 -0.9353  1.5296
   83SAPS   HN3 7750   3.958   4.142  11.151  0.0790  4.7059  0.9341
   83SAPS   C12 7751   4.127   4.076  11.259  0.2881  0.2655  0.3154
   83SAPS  H12A 7752   4.235   4.082  11.247  0.1878  0.3347 -0.5422
   83SAPS   C13 7753   4.099   4.157  11.382  0.7718 -0.1261 -0.2631
   83SAPS  O13A 7754   4.010   4.252  11.373 -0.6713 -0.0828  0.1206
   83SAPS  O13B 7755   4.169   4.139  11.489  0.6091 -0.0468  0.0709
   83SAPS   C11 7756   4.078   3.930  11.288  0.5762 -0.5442 -0.4219
   83SAPS  H11A 7757   3.971   3.941  11.312  0.8958  1.4248  0.1775
   83SAPS  H11B 7758   4.138   3.879  11.367  0.4546 -1.7911 -1.1147
   83SAPS     P 7759   4.001   3.723  11.146 -0.1434  0.1975  0.1516
   83SAPS   O13 7760   4.069   3.611  11.220 -0.2431  0.1275  0.3421
   83SAPS   O14 7761   3.859   3.762  11.184 -0.1181  0.1714  0.8106
   83SAPS   O12 7762   4.093   3.856  11.164  0.3603  0.0907 -0.6132
   83SAPS   O11 7763   4.021   3.690  10.992  0.5771 -0.2375 -0.1083
   83SAPS    C1 7764   4.063   3.804  10.908  0.0548  0.2740 -0.6181
   83SAPS    HA 7765   4.005   3.895  10.932  0.1179  0.1728 -0.0770
   83SAPS    HB 7766   4.169   3.835  10.924 -0.1945  1.1038 -0.5641
   83SAPS    C2 7767   4.051   3.768  10.757 -0.4301  0.9333  0.2216
   83SAPS    HS 7768   4.086   3.856  10.700  0.6752  1.5986  1.8995
   83SAPS   O21 7769   3.914   3.747  10.717 -0.5832 -0.9943  0.1842
   83SAPS   C21 7770   3.836   3.857  10.705  0.2175 -0.8540 -0.9225
   83SAPS   O22 7771   3.868   3.966  10.739  0.0829 -0.3499  0.0514
   83SAPS   C22 7772   3.707   3.814  10.639 -0.3069  1.0201  0.5419
   83SAPS   H2R 7773   3.633   3.787  10.718 -0.9090  1.8832  0.2849
   83SAPS   H2S 7774   3.661   3.907  10.599  0.3055  1.5458  1.0552
   83SAPS    C3 7775   4.131   3.637  10.729  0.3528 -0.3391 -0.1621
   83SAPS    HX 7776   4.117   3.598  10.626 -0.5958 -1.9054  0.5380
   83SAPS    HY 7777   4.108   3.558  10.804 -0.3622 -0.3799 -0.4258
   83SAPS   O31 7778   4.263   3.669  10.753 -0.3314  0.5405 -0.6833
   83SAPS   C31 7779   4.348   3.659  10.647 -0.0143  0.1537 -0.3391
   83SAPS   O32 7780   4.309   3.626  10.536  0.2031 -0.5052  0.0931
   83SAPS   C32 7781   4.496   3.703  10.687 -0.1905  0.1784  0.8391
   83SAPS   H2X 7782   4.547   3.616  10.735  0.4174  0.8786  1.4693
   83SAPS   H2Y 7783   4.472   3.781  10.762 -1.9176  0.1917  0.2926
   83SAPS   C23 7784   3.710   3.713  10.520  0.7625  0.3935  0.0979
   83SAPS   H3R 7785   3.714   3.612  10.567  1.3636  0.5795  0.4611
   83SAPS   H3S 7786   3.808   3.735  10.472  0.8155  3.1061  1.3695
   83SAPS   C24 7787   3.595   3.711  10.419  0.0892  0.0944  0.4165
   83SAPS   H4R 7788   3.508   3.687  10.484 -0.1779 -0.1980 -0.0504
   83SAPS   H4S 7789   3.613   3.632  10.343 -0.5545  1.0690 -0.7597
   83SAPS   C25 7790   3.569   3.841  10.350  0.1406 -0.4723 -0.7380
   83SAPS   H5R 7791   3.524   3.919  10.414 -0.8645 -0.7318 -1.1189
   83SAPS   C26 7792   3.568   3.868  10.221 -0.8541 -0.3402 -0.6792
   83SAPS   H6R 7793   3.546   3.973  10.193  0.4398  0.7557  2.2125
   83SAPS   C27 7794   3.591   3.782  10.099  0.1488 -0.2877 -0.0939
   83SAPS   H7R 7795   3.654   3.696  10.131 -1.7524 -1.9433 -0.7013
   83SAPS   H7S 7796   3.648   3.839  10.022 -0.8966 -0.4251 -0.9785
   83SAPS   C28 7797   3.454   3.754  10.035 -0.2613 -0.6460 -1.4051
   83SAPS   H8R 7798   3.385   3.709  10.109 -1.9184  0.7482 -2.0646
   83SAPS   C29 7799   3.422   3.767   9.909  0.2923  0.0085 -0.2687
   83SAPS   H9R 7800   3.320   3.736   9.881  0.1100 -0.9126  1.3395
   83SAPS  C210 7801   3.499   3.810   9.788 -0.5158  0.0272 -0.2891
   83SAPS  H10R 7802   3.608   3.807   9.812 -0.3177  0.3271 -1.1576
   83SAPS  H10S 7803   3.479   3.917   9.768  1.7146  0.7915  1.2756
   83SAPS  C211 7804   3.490   3.726   9.663  0.7309 -0.8453 -0.4944
   83SAPS  H11R 7805   3.528   3.624   9.677 -0.3995 -1.0101  1.5151
   83SAPS  C212 7806   3.428   3.759   9.547 -0.4976 -0.2841 -0.4283
   83SAPS  H12R 7807   3.425   3.680   9.470  0.6835 -1.7222  0.9662
   83SAPS  C213 7808   3.362   3.889   9.526  0.2143  0.2061  0.3027
   83SAPS  H13R 7809   3.333   3.936   9.623 -0.5081 -0.4629  0.4145
   83SAPS  H13S 7810   3.275   3.854   9.468  0.6303  0.5751 -0.5543
   83SAPS  C214 7811   3.443   3.991   9.444 -0.0759 -0.4824 -0.7214
   83SAPS  H14R 7812   3.484   4.077   9.500  1.0189 -0.7542 -1.1039
   83SAPS  C215 7813   3.468   3.980   9.311  0.0919 -0.2605  0.7052
   83SAPS  H15R 7814   3.530   4.060   9.268 -1.8079  1.5043  1.1240
   83SAPS  C216 7815   3.422   3.870   9.220 -0.0175 -0.0415 -0.2867
   83SAPS  H16R 7816   3.319   3.830   9.238 -0.4766 -0.6100 -3.7982
   83SAPS  H16S 7817   3.497   3.789   9.230 -0.5233 -0.5377 -0.4256
   83SAPS  C217 7818   3.413   3.915   9.070  0.0984  0.0992 -0.0978
   83SAPS  H17R 7819   3.398   3.818   9.018 -1.1374 -1.3870  2.9135
   83SAPS  H17S 7820   3.499   3.973   9.030  2.1825 -0.6386  3.1106
   83SAPS  C218 7821   3.291   4.009   9.056  0.0920  0.2044 -0.5296
   83SAPS  H18R 7822   3.316   4.093   9.124 -1.9846  1.1589 -0.8841
   83SAPS  H18S 7823   3.199   3.960   9.095  0.4587  0.4449  0.6619
   83SAPS  C219 7824   3.278   4.063   8.912  0.2025 -0.4637 -0.6299
   83SAPS  H19R 7825   3.377   4.065   8.862 -0.8119 -1.1691 -2.7334
   83SAPS  H19S 7826   3.242   4.169   8.916  2.4629  0.2627  1.0535
   83SAPS  C220 7827   3.179   3.989   8.825 -0.0936  0.4379 -0.6725
   83SAPS  H20R 7828   3.214   3.896   8.775  1.7057  0.8473 -0.2328
   83SAPS  H20S 7829   3.157   4.062   8.744  1.6209 -1.1455 -2.6344
   83SAPS  H20T 7830   3.089   3.962   8.884 -1.8344  1.0542 -2.9773
   83SAPS   C33 7831   4.578   3.760  10.580 -0.1243  0.9712  0.2511
   83SAPS   H3X 7832   4.579   3.694  10.491  0.5667  0.5809  0.5464
   83SAPS   H3Y 7833   4.679   3.769  10.625  0.2773  0.4869 -0.5490
   83SAPS   C34 7834   4.532   3.905  10.534  0.3817 -0.4075 -1.1475
   83SAPS   H4X 7835   4.536   3.969  10.625 -0.9003 -1.5682 -0.2656
   83SAPS   H4Y 7836   4.431   3.926  10.492  0.3290  1.6869 -0.0401
   83SAPS   C35 7837   4.647   3.964  10.449  0.3940  0.2975 -0.2319
   83SAPS   H5X 7838   4.743   3.968  10.505  0.4218  1.4266 -0.3540
   83SAPS   H5Y 7839   4.612   4.068  10.430 -1.2566 -0.0014  1.0665
   83SAPS   C36 7840   4.664   3.896  10.318 -0.1529 -0.6492  0.1853
   83SAPS   H6X 7841   4.713   3.799  10.338 -3.6955 -2.8661 -1.3629
   83SAPS   H6Y 7842   4.743   3.945  10.258 -0.8848  0.8725  0.4376
   83SAPS   C37 7843   4.530   3.881  10.237  0.0569  0.2299 -0.8638
   83SAPS   H7X 7844   4.479   3.973  10.272 -1.3730 -0.2212 -1.7650
   83SAPS   H7Y 7845   4.483   3.785  10.270 -1.4303  0.4567 -2.2616
   83SAPS   C38 7846   4.546   3.883  10.085 -0.7824  0.8196 -0.2751
   83SAPS   H8X 7847   4.621   3.815  10.039 -3.7251 -0.8402 -2.7953
   83SAPS   H8Y 7848   4.573   3.984  10.050  2.2149 -0.1132 -0.7953
   83SAPS   C39 7849   4.414   3.840  10.021 -0.6378  0.6281 -0.0449
   83SAPS   H9X 7850   4.352   3.930  10.001  1.0698  1.7228 -0.5438
   83SAPS   H9Y 7851   4.361   3.760  10.078 -2.0478 -0.6700 -3.0915
   83SAPS  C310 7852   4.440   3.768   9.887  0.2245 -0.6065  0.3990
   83SAPS  H10X 7853   4.515   3.687   9.893  0.8532 -0.0287  0.4208
   83SAPS  H10Y 7854   4.481   3.854   9.831 -2.1343  1.4764  1.7160
   83SAPS  C311 7855   4.311   3.722   9.819  0.1685  0.0623 -0.5296
   83SAPS  H11X 7856   4.229   3.796   9.833  0.2902  0.1570 -0.3191
   83SAPS  H11Y 7857   4.292   3.633   9.883 -0.3594 -1.0881 -2.2374
   83SAPS  C312 7858   4.316   3.678   9.676  0.6622 -0.2999  0.4936
   83SAPS  H12X 7859   4.230   3.607   9.669 -1.6783  2.4529  0.2354
   83SAPS  H12Y 7860   4.408   3.621   9.654  0.8676  0.6070 -1.1051
   83SAPS  C313 7861   4.308   3.795   9.574  0.5033 -0.0320  0.3914
   83SAPS  H13X 7862   4.382   3.875   9.594  1.0182 -0.5535  0.5846
   83SAPS  H13Y 7863   4.204   3.833   9.576  0.9627  1.2285  0.4619
   83SAPS  C314 7864   4.331   3.736   9.427  0.4844  0.8445 -0.1449
   83SAPS  H14X 7865   4.260   3.653   9.406  0.9467  0.3411  0.2492
   83SAPS  H14Y 7866   4.430   3.685   9.434 -1.5632 -3.3987 -0.2123
   83SAPS  C315 7867   4.337   3.852   9.327  0.2497  0.3452 -0.3538
   83SAPS  H15X 7868   4.368   3.941   9.387 -0.3951 -0.0044  0.4974
   83SAPS  H15Y 7869   4.235   3.880   9.293  0.2576  1.1065  0.2143
   83SAPS  C316 7870   4.430   3.815   9.201  0.8213 -0.2997  0.7919
   83SAPS  H16X 7871   4.407   3.717   9.155  2.7869 -0.0179 -0.8874
   83SAPS  H16Y 7872   4.532   3.806   9.244 -0.4342 -0.9983  3.7436
   83SAPS  C317 7873   4.439   3.936   9.098  0.1746  0.3520 -0.4050
   83SAPS  H17X 7874   4.518   3.913   9.024 -0.5397  1.7801 -1.6423
   83SAPS  H17Y 7875   4.472   4.025   9.157 -0.7574  0.2347  0.3090
   83SAPS  C318 7876   4.314   3.972   9.020  0.4034  0.5283 -0.0720
   83SAPS  H18X 7877   4.265   3.879   8.984  0.7629  0.3814 -0.1851
   83SAPS  H18Y 7878   4.331   4.050   8.943 -2.1415  0.6466 -0.5382
   83SAPS  H18Z 7879   4.234   4.013   9.086 -0.8397 -1.2764 -0.4246
   84SAPS     N 7880   5.452   2.282  11.368  0.3831  0.0398 -0.3019
   84SAPS   HN1 7881   5.452   2.236  11.274  0.0448 -1.5813  0.4783
   84SAPS   HN2 7882   5.549   2.304  11.399  0.3965  1.6565 -1.3893
   84SAPS   HN3 7883   5.404   2.217  11.432  0.1533  0.0991 -0.4098
   84SAPS   C12 7884   5.366   2.410  11.346 -0.5932 -0.3638 -0.7215
   84SAPS  H12A 7885   5.277   2.388  11.288  0.5842 -0.4152 -2.5680
   84SAPS   C13 7886   5.318   2.473  11.478  1.0661  0.1086  0.3964
   84SAPS  O13A 7887   5.348   2.422  11.584 -1.4173 -0.2975  0.3676
   84SAPS  O13B 7888   5.234   2.568  11.475 -0.3884 -0.0867 -0.1534
   84SAPS   C11 7889   5.449   2.518  11.269  0.3228  0.1949  0.1500
   84SAPS  H11A 7890   5.538   2.545  11.331  0.4058  1.6946 -0.5879
   84SAPS  H11B 7891   5.384   2.608  11.261  2.5127  1.8644  0.3567
   84SAPS     P 7892   5.541   2.552  11.023 -0.3071  0.1006 -0.2658
   84SAPS   O13 7893   5.612   2.667  11.078  0.0238  0.0897 -0.3545
   84SAPS   O14 7894   5.633   2.466  10.948 -0.0413  0.3599  0.3053
   84SAPS   O12 7895   5.487   2.469  11.139 -0.1193 -0.1137 -0.1777
   84SAPS   O11 7896   5.416   2.594  10.937  0.1235 -0.1243  0.2633
   84SAPS    C1 7897   5.328   2.494  10.888 -0.3027 -0.1059 -0.2560
   84SAPS    HA 7898   5.298   2.415  10.960 -0.8006 -0.6194 -1.0106
   84SAPS    HB 7899   5.243   2.551  10.843  0.0808  1.7278  1.2742
   84SAPS    C2 7900   5.401   2.420  10.766 -0.1125  0.6495 -0.2691
   84SAPS    HS 7901   5.461   2.344  10.822  0.2563  2.5583  1.9912
   84SAPS   O21 7902   5.481   2.519  10.701 -0.2705  0.3198 -0.2320
   84SAPS   C21 7903   5.587   2.452  10.636 -0.7866 -0.0924 -0.1301
   84SAPS   O22 7904   5.600   2.331  10.637 -0.3300  0.1537  0.4485
   84SAPS   C22 7905   5.680   2.560  10.590 -0.1312  0.3830 -1.0917
   84SAPS   H2R 7906   5.618   2.626  10.527  1.8170  3.2386 -0.1338
   84SAPS   H2S 7907   5.699   2.618  10.684  2.2450 -0.8002 -0.7873
   84SAPS    C3 7908   5.299   2.345  10.670  0.2857 -0.3026  0.5400
   84SAPS    HX 7909   5.230   2.284  10.732  0.9863 -1.2465  0.4207
   84SAPS    HY 7910   5.354   2.272  10.607  1.9553  0.5871  0.9264
   84SAPS   O31 7911   5.215   2.430  10.601 -0.1702 -0.0767 -0.1636
   84SAPS   C31 7912   5.261   2.470  10.481 -0.0081 -0.6256 -0.6181
   84SAPS   O32 7913   5.370   2.430  10.438 -0.3747 -0.7143  0.0163
   84SAPS   C32 7914   5.165   2.566  10.413  0.3413 -0.2917  1.2722
   84SAPS   H2X 7915   5.079   2.589  10.479  0.6588  1.4303  1.0873
   84SAPS   H2Y 7916   5.112   2.506  10.335  0.7983 -0.0300  0.7602
   84SAPS   C23 7917   5.806   2.518  10.510 -0.0060 -0.7515 -0.8546
   84SAPS   H3R 7918   5.837   2.419  10.550  1.8665 -0.8018 -2.3782
   84SAPS   H3S 7919   5.894   2.585  10.521 -0.2733 -0.6053  0.4623
   84SAPS   C24 7920   5.785   2.513  10.355  0.0659  0.4598 -0.3539
   84SAPS   H4R 7921   5.877   2.495  10.295  0.9364  0.7586  0.8681
   84SAPS   H4S 7922   5.758   2.618  10.332 -0.4176  0.4169  0.0134
   84SAPS   C25 7923   5.693   2.410  10.311  0.6346  0.7715 -0.1543
   84SAPS   H5R 7924   5.659   2.343  10.391  0.6843  3.7855  2.4973
   84SAPS   C26 7925   5.629   2.408  10.192 -0.1141  0.5222 -0.5673
   84SAPS   H6R 7926   5.554   2.330  10.173  0.9427 -0.4511 -0.7636
   84SAPS   C27 7927   5.662   2.504  10.083  0.6261  0.6057  0.7428
   84SAPS   H7R 7928   5.627   2.460   9.988  1.1610 -1.6892  1.5896
   84SAPS   H7S 7929   5.773   2.503  10.082  0.6311 -2.1701 -2.0520
   84SAPS   C28 7930   5.609   2.646  10.101  0.5531 -0.0159  0.3271
   84SAPS   H8R 7931   5.601   2.681  10.205  0.5750  1.0922 -0.0354
   84SAPS   C29 7932   5.571   2.732  10.004 -0.6525  0.0432  0.5499
   84SAPS   H9R 7933   5.539   2.833  10.035 -0.4395  0.6064 -1.0283
   84SAPS  C210 7934   5.555   2.705   9.856 -0.1796 -0.7451 -0.5037
   84SAPS  H10R 7935   5.455   2.661   9.836  0.7775 -2.4283 -1.7566
   84SAPS  H10S 7936   5.626   2.630   9.814  0.1436 -0.1718 -0.9873
   84SAPS  C211 7937   5.577   2.817   9.757  0.0172 -0.1756  0.5010
   84SAPS  H11R 7938   5.616   2.908   9.805  2.3333  0.2604 -2.1130
   84SAPS  C212 7939   5.567   2.811   9.624  0.4419  0.2169 -0.2043
   84SAPS  H12R 7940   5.601   2.899   9.567 -0.9279  3.5276  3.8218
   84SAPS  C213 7941   5.510   2.700   9.542  0.5275  0.2700 -0.2338
   84SAPS  H13R 7942   5.491   2.619   9.616 -1.8612 -0.2614 -1.3983
   84SAPS  H13S 7943   5.587   2.661   9.472 -2.4714 -1.2789 -2.7787
   84SAPS  C214 7944   5.390   2.737   9.460 -0.5072 -0.4264 -0.2510
   84SAPS  H14R 7945   5.305   2.771   9.522 -0.3672  0.9154 -0.7745
   84SAPS  C215 7946   5.385   2.735   9.326  0.0656  0.3908 -0.2500
   84SAPS  H15R 7947   5.291   2.753   9.271  0.6235  0.9128 -1.0572
   84SAPS  C216 7948   5.493   2.702   9.222 -0.7643  0.1462  0.2362
   84SAPS  H16R 7949   5.588   2.727   9.273 -0.0528 -0.5191 -0.7620
   84SAPS  H16S 7950   5.496   2.763   9.129 -1.3316 -0.8124 -0.4218
   84SAPS  C217 7951   5.488   2.550   9.212  0.7342  0.8496 -0.5432
   84SAPS  H17R 7952   5.488   2.506   9.314 -0.8588  0.9105 -0.5083
   84SAPS  H17S 7953   5.585   2.516   9.168  1.4714  2.1918  0.0097
   84SAPS  C218 7954   5.374   2.499   9.128  0.5298  1.0774 -0.1916
   84SAPS  H18R 7955   5.388   2.542   9.027  1.2682  0.5764 -0.3068
   84SAPS  H18S 7956   5.276   2.543   9.158  0.3314  0.9873 -0.7145
   84SAPS  C219 7957   5.369   2.343   9.109 -0.7360 -0.1130 -0.2413
   84SAPS  H19R 7958   5.457   2.311   9.050 -0.9309 -0.8118 -0.1543
   84SAPS  H19S 7959   5.284   2.314   9.043 -1.4195  1.2348  0.0170
   84SAPS  C220 7960   5.370   2.259   9.235  0.3334 -0.1306  0.0433
   84SAPS  H20R 7961   5.348   2.152   9.215  0.9371 -0.2270 -0.1182
   84SAPS  H20S 7962   5.302   2.304   9.311  1.0428  0.9699  0.0361
   84SAPS  H20T 7963   5.468   2.257   9.288  0.5506 -0.6290 -0.3764
   84SAPS   C33 7964   5.224   2.687  10.336  0.4933 -0.0790 -0.1612
   84SAPS   H3X 7965   5.314   2.649  10.285  1.9457  1.4535  1.2047
   84SAPS   H3Y 7966   5.254   2.767  10.407  1.6429 -1.5147  1.0023
   84SAPS   C34 7967   5.130   2.748  10.230  0.6308 -0.0353  0.6150
   84SAPS   H4X 7968   5.176   2.847  10.205 -2.8885  1.9442  1.7112
   84SAPS   H4Y 7969   5.029   2.773  10.268  0.3807  1.3669 -0.8843
   84SAPS   C35 7970   5.112   2.661  10.103  0.0871 -0.2056  0.4157
   84SAPS   H5X 7971   5.066   2.561  10.118 -0.9470  0.1968 -0.0070
   84SAPS   H5Y 7972   5.214   2.653  10.060 -0.9445  0.4531 -2.3180
   84SAPS   C36 7973   5.031   2.745   9.999  0.5136 -0.4998 -0.2428
   84SAPS   H6X 7974   5.094   2.829   9.963  1.2100 -1.3623 -1.0502
   84SAPS   H6Y 7975   4.937   2.777  10.049  0.6311 -0.4830 -0.0304
   84SAPS   C37 7976   5.000   2.659   9.874 -0.1088 -0.2531  1.0345
   84SAPS   H7X 7977   4.955   2.563   9.907 -0.5173  0.0301  1.3062
   84SAPS   H7Y 7978   5.098   2.641   9.825  0.3272  1.5137  1.1983
   84SAPS   C38 7979   4.919   2.734   9.762  0.6536  0.3020 -0.7802
   84SAPS   H8X 7980   4.975   2.828   9.742  0.4921  0.4680 -0.4504
   84SAPS   H8Y 7981   4.823   2.773   9.801  1.4063  3.3145 -1.7856
   84SAPS   C39 7982   4.894   2.646   9.645 -0.0920  0.2054 -0.2633
   84SAPS   H9X 7983   4.828   2.559   9.668  0.0780  0.3108  0.6510
   84SAPS   H9Y 7984   4.986   2.597   9.608 -0.8822 -1.4077 -0.1386
   84SAPS  C310 7985   4.826   2.736   9.538  0.1116  0.5201  0.0833
   84SAPS  H10X 7986   4.885   2.827   9.514 -1.1106  0.6433 -2.6215
   84SAPS  H10Y 7987   4.724   2.765   9.571  1.0215  0.3435  3.2069
   84SAPS  C311 7988   4.799   2.648   9.408 -0.5778 -0.0920 -0.6619
   84SAPS  H11X 7989   4.715   2.578   9.425 -1.1492  0.8218  0.3365
   84SAPS  H11Y 7990   4.895   2.600   9.379  0.0865 -0.3182  1.8669
   84SAPS  C312 7991   4.756   2.723   9.281 -0.0177  0.0344 -0.6128
   84SAPS  H12X 7992   4.665   2.776   9.314 -1.2126 -1.4563 -1.4871
   84SAPS  H12Y 7993   4.742   2.647   9.202  0.6561  1.2427 -1.9289
   84SAPS  C313 7994   4.856   2.826   9.234  0.3989  0.2311 -0.0162
   84SAPS  H13X 7995   4.905   2.885   9.315  0.6120 -0.1563  0.1405
   84SAPS  H13Y 7996   4.783   2.896   9.188 -1.3867 -1.7270 -0.2336
   84SAPS  C314 7997   4.963   2.764   9.148 -1.1021 -0.5031  0.2834
   84SAPS  H14X 7998   4.918   2.707   9.064  0.3527 -0.3907 -0.5892
   84SAPS  H14Y 7999   5.017   2.688   9.209  2.1625 -0.5087 -2.5021
   84SAPS  C315 8000   5.055   2.865   9.068 -1.0238 -0.1862 -0.0003
   84SAPS  H15X 8001   5.104   2.932   9.142  0.8031 -1.1317 -0.3005
   84SAPS  H15Y 8002   4.980   2.920   9.008 -0.6798  1.0113  0.6430
   84SAPS  C316 8003   5.159   2.792   8.985 -0.1976  0.4602  0.0424
   84SAPS  H16X 8004   5.120   2.735   8.898  1.8909  0.1505 -0.7079
   84SAPS  H16Y 8005   5.199   2.718   9.058 -0.6827  0.9508  0.8124
   84SAPS  C317 8006   5.271   2.890   8.940  0.4602 -0.2964 -0.0917
   84SAPS  H17X 8007   5.344   2.820   8.894  2.0793  0.7547  0.8438
   84SAPS  H17Y 8008   5.319   2.932   9.031  1.9945 -0.7347 -0.6852
   84SAPS  C318 8009   5.224   2.995   8.842  0.2828  0.4274  0.0920
   84SAPS  H18X 8010   5.150   3.060   8.893  0.4372  0.8707 -0.2500
   84SAPS  H18Y 8011   5.180   2.949   8.750  1.1993  0.5628 -0.4256
   84SAPS  H18Z 8012   5.305   3.062   8.807 -0.9350  1.9161  0.0541
   85SAPS     N 8013   2.394   5.201  11.292 -0.4718  0.8097 -0.1160
   85SAPS   HN1 8014   2.359   5.114  11.247 -2.1653  0.7377  1.2947
   85SAPS   HN2 8015   2.488   5.173  11.326 -1.2868  2.0759  3.3419
   85SAPS   HN3 8016   2.338   5.220  11.377 -0.8708  0.7912 -0.3757
   85SAPS   C12 8017   2.402   5.319  11.206  1.2086  0.3123 -0.4445
   85SAPS  H12A 8018   2.303   5.360  11.210  0.3019 -1.6747 -2.0230
   85SAPS   C13 8019   2.503   5.424  11.245 -0.5566 -0.1051 -0.3341
   85SAPS  O13A 8020   2.589   5.406  11.337  0.1896  0.1478  0.4798
   85SAPS  O13B 8021   2.499   5.537  11.188  0.0123 -0.1141 -0.0133
   85SAPS   C11 8022   2.436   5.274  11.061 -0.1200 -0.0815  0.2638
   85SAPS  H11A 8023   2.542   5.239  11.058  0.1096  0.5002  1.6194
   85SAPS  H11B 8024   2.425   5.367  11.002  1.5501  0.5910  0.9767
   85SAPS     P 8025   2.212   5.192  10.948 -0.2916 -0.5769  0.1856
   85SAPS   O13 8026   2.156   5.060  10.909 -0.2960  0.5708 -0.5974
   85SAPS   O14 8027   2.128   5.282  11.032 -0.4178  0.0889  0.5785
   85SAPS   O12 8028   2.351   5.166  11.011  0.5210  0.0454  0.3756
   85SAPS   O11 8029   2.255   5.275  10.815  0.0583  0.6965  0.2468
   85SAPS    C1 8030   2.356   5.229  10.728 -0.0654 -0.0938 -0.3036
   85SAPS    HA 8031   2.398   5.323  10.689 -0.0186  0.0905  0.1854
   85SAPS    HB 8032   2.443   5.180  10.777  0.1877  1.2273  0.5896
   85SAPS    C2 8033   2.315   5.148  10.601  0.4219  0.3790  0.1948
   85SAPS    HS 8034   2.396   5.149  10.526  0.9865 -0.7460  0.7845
   85SAPS   O21 8035   2.199   5.208  10.536 -0.1005  0.1497  0.2231
   85SAPS   C21 8036   2.211   5.309  10.463  0.1493 -0.3729  0.1460
   85SAPS   O22 8037   2.309   5.382  10.455  0.7099  0.3257 -0.1439
   85SAPS   C22 8038   2.083   5.332  10.378  0.3426 -0.3042 -0.3661
   85SAPS   H2R 8039   1.995   5.278  10.419 -0.5041  2.3359  1.3881
   85SAPS   H2S 8040   2.055   5.439  10.372 -0.9394 -0.5765  0.6386
   85SAPS    C3 8041   2.287   5.003  10.636 -0.0970  0.0665  1.0754
   85SAPS    HX 8042   2.182   4.991  10.670 -1.1807  1.0813 -1.8048
   85SAPS    HY 8043   2.342   4.972  10.728  0.1746  2.2283  1.6760
   85SAPS   O31 8044   2.311   4.916  10.513 -0.1168  0.0068 -0.3146
   85SAPS   C31 8045   2.295   4.789  10.542 -0.8158 -0.1607  0.0662
   85SAPS   O32 8046   2.248   4.748  10.644 -0.4148  0.0593 -0.8791
   85SAPS   C32 8047   2.342   4.698  10.429 -0.5006 -0.2792  0.2423
   85SAPS   H2X 8048   2.309   4.594  10.446 -0.4634 -0.3701 -0.2323
   85SAPS   H2Y 8049   2.452   4.705  10.442 -0.6229  2.9563  0.0608
   85SAPS   C23 8050   2.104   5.284  10.238 -0.0208 -0.2882  0.0676
   85SAPS   H3R 8051   2.196   5.337  10.203 -0.0991  0.7129  1.3514
   85SAPS   H3S 8052   2.020   5.307  10.168  0.9134  0.1842 -0.9219
   85SAPS   C24 8053   2.143   5.138  10.217  0.5963  0.4724 -0.1886
   85SAPS   H4R 8054   2.215   5.121  10.300  0.0237  3.2674  0.9228
   85SAPS   H4S 8055   2.204   5.137  10.124 -1.4056 -3.1119 -1.5861
   85SAPS   C25 8056   2.024   5.040  10.195  0.3541  0.5691 -0.8764
   85SAPS   H5R 8057   1.998   4.990  10.290  1.2375  3.1232  0.7589
   85SAPS   C26 8058   1.964   5.009  10.079  0.1140 -0.7781 -0.7713
   85SAPS   H6R 8059   1.878   4.940  10.079  0.2005 -0.9413  1.7778
   85SAPS   C27 8060   1.993   5.072   9.953 -0.5752  0.3808  0.5453
   85SAPS   H7R 8061   2.008   5.179   9.977 -2.9884  0.7466  0.5659
   85SAPS   H7S 8062   1.902   5.078   9.888 -0.9070 -0.7070  0.9000
   85SAPS   C28 8063   2.117   5.029   9.870  0.0282 -0.2266 -0.1367
   85SAPS   H8R 8064   2.214   5.013   9.919  0.3031  0.8731 -0.3158
   85SAPS   C29 8065   2.129   5.019   9.739  0.7969 -0.0773 -0.3146
   85SAPS   H9R 8066   2.225   5.001   9.688  0.6378  3.3829 -1.9758
   85SAPS  C210 8067   2.015   5.043   9.633 -0.3407 -0.5806 -0.7830
   85SAPS  H10R 8068   1.915   5.031   9.681 -0.7235 -0.5127 -1.5615
   85SAPS  H10S 8069   2.013   4.951   9.570  2.0037 -0.2622 -1.3603
   85SAPS  C211 8070   2.017   5.165   9.548  0.0594 -0.4230  0.2611
   85SAPS  H11R 8071   1.965   5.255   9.583 -1.5839 -1.5598  0.8444
   85SAPS  C212 8072   2.070   5.173   9.428 -0.4702 -0.0161  0.3012
   85SAPS  H12R 8073   2.085   5.270   9.379  0.5836 -0.8242 -1.0144
   85SAPS  C213 8074   2.131   5.060   9.344  0.0946 -0.0914 -0.2780
   85SAPS  H13R 8075   2.085   5.053   9.243  2.3336  1.3402 -1.4557
   85SAPS  H13S 8076   2.110   4.965   9.398 -0.3472 -0.4166 -1.0108
   85SAPS  C214 8077   2.283   5.054   9.337  0.2268 -0.0751  0.4431
   85SAPS  H14R 8078   2.323   5.081   9.436  0.5096  0.8421  0.0829
   85SAPS  C215 8079   2.363   5.012   9.237 -0.4760  1.0325  0.0878
   85SAPS  H15R 8080   2.473   5.024   9.247  0.0491 -2.4371 -1.1752
   85SAPS  C216 8081   2.332   4.967   9.102  0.3367  0.0063 -0.3892
   85SAPS  H16R 8082   2.221   4.960   9.098  0.1955  2.1118 -0.6530
   85SAPS  H16S 8083   2.381   4.871   9.076 -1.3612 -1.1444  0.5860
   85SAPS  C217 8084   2.374   5.059   8.993 -0.2291  0.4685 -0.0992
   85SAPS  H17R 8085   2.466   5.121   9.003 -0.2049  1.4449 -4.9677
   85SAPS  H17S 8086   2.299   5.139   8.977  0.2699  1.0449  0.4380
   85SAPS  C218 8087   2.386   4.984   8.858 -0.3208  0.2795 -0.5838
   85SAPS  H18R 8088   2.456   4.899   8.876 -0.6956  0.2607  0.8454
   85SAPS  H18S 8089   2.437   5.051   8.786 -1.0033 -0.1523 -1.4700
   85SAPS  C219 8090   2.253   4.922   8.807 -0.1646 -0.6523  0.5856
   85SAPS  H19R 8091   2.197   5.000   8.751 -0.2282  0.1884  1.8069
   85SAPS  H19S 8092   2.188   4.886   8.889 -2.1132  1.8444  0.2055
   85SAPS  C220 8093   2.284   4.798   8.716  0.0955  0.3617  0.2134
   85SAPS  H20R 8094   2.198   4.728   8.706  1.6377 -1.6948  0.9280
   85SAPS  H20S 8095   2.360   4.731   8.761 -1.1009 -0.8116  0.5372
   85SAPS  H20T 8096   2.325   4.832   8.619  0.5155 -2.7897 -0.7791
   85SAPS   C33 8097   2.299   4.752  10.288  0.1151 -0.3469 -0.0721
   85SAPS   H3X 8098   2.354   4.848  10.279 -1.5876  0.7465  0.8640
   85SAPS   H3Y 8099   2.190   4.775  10.288  0.3005  0.6755  2.1415
   85SAPS   C34 8100   2.340   4.646  10.182 -0.1148  0.1998  0.4016
   85SAPS   H4X 8101   2.276   4.557  10.196  0.1413 -0.5671 -3.0437
   85SAPS   H4Y 8102   2.443   4.608  10.203 -0.6816 -0.2954  2.3692
   85SAPS   C35 8103   2.332   4.702  10.043 -0.2083 -0.0743 -0.3142
   85SAPS   H5X 8104   2.401   4.788  10.036  0.6505 -0.7561 -0.3211
   85SAPS   H5Y 8105   2.228   4.735  10.020 -0.3970  1.3484  2.4050
   85SAPS   C36 8106   2.373   4.606   9.929  0.1424 -0.0285  0.7102
   85SAPS   H6X 8107   2.320   4.508   9.935  2.6320 -1.3709  1.6188
   85SAPS   H6Y 8108   2.484   4.597   9.928  0.3765  1.8644  3.8073
   85SAPS   C37 8109   2.341   4.663   9.791  0.4055  0.2725 -0.0039
   85SAPS   H7X 8110   2.392   4.761   9.779 -0.1117  0.8053  2.1123
   85SAPS   H7Y 8111   2.232   4.679   9.806  0.3312  1.0638 -1.2833
   85SAPS   C38 8112   2.351   4.566   9.670  0.0900 -0.0590 -0.1435
   85SAPS   H8X 8113   2.286   4.477   9.686  0.2023 -0.1549 -0.2256
   85SAPS   H8Y 8114   2.449   4.516   9.654  0.0022 -0.6477  1.0786
   85SAPS   C39 8115   2.287   4.622   9.536  0.3255  0.7032  0.2379
   85SAPS   H9X 8116   2.190   4.663   9.569 -0.2132 -0.5079  0.1877
   85SAPS   H9Y 8117   2.257   4.541   9.466  1.1923  2.1451 -1.8854
   85SAPS  C310 8118   2.375   4.722   9.455 -0.0463  0.6322  0.0413
   85SAPS  H10X 8119   2.427   4.792   9.523 -0.4058  0.8499  0.0899
   85SAPS  H10Y 8120   2.313   4.789   9.393  0.3035  2.4717  1.6515
   85SAPS  C311 8121   2.482   4.655   9.365 -0.6368  0.2602 -0.8118
   85SAPS  H11X 8122   2.563   4.613   9.428 -3.2530 -0.2261  2.3633
   85SAPS  H11Y 8123   2.536   4.733   9.308 -0.2019  0.8934  0.4422
   85SAPS  C312 8124   2.425   4.555   9.263 -0.7675 -0.0884  0.3791
   85SAPS  H12X 8125   2.350   4.604   9.198  1.4991  1.5877 -1.0367
   85SAPS  H12Y 8126   2.375   4.477   9.326  2.3020 -0.9404  1.8460
   85SAPS  C313 8127   2.540   4.474   9.198  0.7122  0.4328 -0.1795
   85SAPS  H13X 8128   2.512   4.371   9.169  3.2486  0.1442 -1.8289
   85SAPS  H13Y 8129   2.628   4.467   9.267  0.1321 -0.2803  0.4906
   85SAPS  C314 8130   2.599   4.542   9.077 -0.7171 -0.3560 -0.9634
   85SAPS  H14X 8131   2.697   4.492   9.060 -0.9345 -0.6218 -1.4716
   85SAPS  H14Y 8132   2.601   4.653   9.081  1.5136 -0.4306  1.8640
   85SAPS  C315 8133   2.515   4.520   8.951 -0.2469  0.1161  0.4546
   85SAPS  H15X 8134   2.545   4.596   8.876 -0.9193  0.0761  0.1349
   85SAPS  H15Y 8135   2.411   4.554   8.973 -1.3685 -1.9366 -1.5320
   85SAPS  C316 8136   2.513   4.379   8.902  0.2613  0.5055 -0.1761
   85SAPS  H16X 8137   2.450   4.305   8.956  0.4972 -0.5761 -1.3612
   85SAPS  H16Y 8138   2.619   4.344   8.905  0.0093 -0.2909 -0.3647
   85SAPS  C317 8139   2.454   4.359   8.754 -0.2272  0.6417  0.2705
   85SAPS  H17X 8140   2.483   4.260   8.711 -3.4944 -0.2843  0.0693
   85SAPS  H17Y 8141   2.495   4.445   8.696  1.8676 -1.5223 -1.5604
   85SAPS  C318 8142   2.306   4.368   8.746  0.3589 -0.2906  0.6203
   85SAPS  H18X 8143   2.284   4.361   8.637  1.6860  0.2737  0.3140
   85SAPS  H18Y 8144   2.282   4.469   8.785 -0.6306 -1.4080  2.9906
   85SAPS  H18Z 8145   2.254   4.285   8.798  1.9862 -0.0119  2.7874
   86SAPS     N 8146   4.242   4.735  11.403 -0.7759 -0.0337  0.5283
   86SAPS   HN1 8147   4.265   4.634  11.402  2.5900  0.6636  1.6022
   86SAPS   HN2 8148   4.297   4.787  11.332 -1.9539 -0.2499 -0.5524
   86SAPS   HN3 8149   4.260   4.773  11.499 -1.7995  0.3147  0.5902
   86SAPS   C12 8150   4.099   4.756  11.372  0.0441  0.3544  0.4058
   86SAPS  H12A 8151   4.060   4.655  11.372  0.6389  0.1067 -1.8365
   86SAPS   C13 8152   4.029   4.857  11.467  0.4625  0.0133  0.2402
   86SAPS  O13A 8153   4.084   4.892  11.574  0.5002  0.1210 -0.6699
   86SAPS  O13B 8154   3.912   4.893  11.440  0.3011  0.1167 -0.1226
   86SAPS   C11 8155   4.083   4.810  11.226 -0.4716  0.8211 -0.4213
   86SAPS  H11A 8156   4.145   4.900  11.207 -1.7998  1.6582 -0.8665
   86SAPS  H11B 8157   3.978   4.839  11.204 -0.4611  1.1356 -0.0501
   86SAPS     P 8158   4.116   4.703  10.990 -0.0686  0.2686  0.0550
   86SAPS   O13 8159   4.214   4.605  10.947  0.2293  0.0014 -0.0360
   86SAPS   O14 8160   3.977   4.688  10.942  0.4527  0.2246  0.0873
   86SAPS   O12 8161   4.114   4.699  11.145 -0.0412 -0.4376 -0.1876
   86SAPS   O11 8162   4.152   4.852  10.964 -0.4050 -0.2571  0.0704
   86SAPS    C1 8163   4.284   4.898  10.929  0.3956  0.1889  0.0638
   86SAPS    HA 8164   4.315   4.989  10.985 -0.2945  1.3938 -1.4841
   86SAPS    HB 8165   4.354   4.822  10.970 -2.2339 -1.2581  2.0551
   86SAPS    C2 8166   4.303   4.926  10.775  1.4673 -0.4632  0.0588
   86SAPS    HS 8167   4.255   5.026  10.772  1.3687 -0.5103  0.0600
   86SAPS   O21 8168   4.230   4.836  10.693  0.6963  0.0369 -0.0099
   86SAPS   C21 8169   4.160   4.890  10.597  0.1317  0.6223 -0.0535
   86SAPS   O22 8170   4.128   5.009  10.589 -0.4909  0.1140  0.0394
   86SAPS   C22 8171   4.120   4.784  10.489 -0.2990  0.1991 -0.0867
   86SAPS   H2R 8172   4.155   4.824  10.391  0.5237 -0.9914 -0.2809
   86SAPS   H2S 8173   4.169   4.685  10.500  3.6749  2.0375 -0.3669
   86SAPS    C3 8174   4.456   4.932  10.744 -0.3227  0.3211  0.2754
   86SAPS    HX 8175   4.510   4.841  10.778  0.1145  0.1293 -0.8940
   86SAPS    HY 8176   4.501   5.012  10.807 -1.1660 -0.1327  1.4789
   86SAPS   O31 8177   4.486   4.957  10.605 -0.4822 -0.4891  0.2491
   86SAPS   C31 8178   4.505   4.856  10.519  0.1026 -1.0202  0.0879
   86SAPS   O32 8179   4.493   4.735  10.544  0.0887 -0.1673 -0.0001
   86SAPS   C32 8180   4.551   4.900  10.386  0.3991  0.2878  0.7641
   86SAPS   H2X 8181   4.662   4.891  10.397  0.0751 -2.0866  2.5432
   86SAPS   H2Y 8182   4.523   5.007  10.379  0.8753  0.5034  1.9609
   86SAPS   C23 8183   3.970   4.765  10.484  0.3138  0.0950  0.0915
   86SAPS   H3R 8184   3.913   4.846  10.434  0.3446  0.5579  0.8031
   86SAPS   H3S 8185   3.938   4.743  10.588  1.0984  1.8134  0.7153
   86SAPS   C24 8186   3.934   4.647  10.395  0.2193  0.2056  0.2814
   86SAPS   H4R 8187   3.829   4.612  10.408 -0.5943  0.5680 -4.3418
   86SAPS   H4S 8188   3.995   4.565  10.437  1.5111  0.1337 -1.6820
   86SAPS   C25 8189   3.945   4.656  10.244  0.2837  0.3821  0.5121
   86SAPS   H5R 8190   3.901   4.747  10.199 -1.6961 -1.0671 -0.6121
   86SAPS   C26 8191   3.991   4.549  10.167  0.1231  0.8410  0.1805
   86SAPS   H6R 8192   4.010   4.561  10.059  0.7587  0.7794  0.2831
   86SAPS   C27 8193   4.031   4.417  10.224  0.1302  0.3154 -0.6361
   86SAPS   H7R 8194   4.028   4.339  10.145 -0.2159  0.4780 -0.7856
   86SAPS   H7S 8195   3.967   4.391  10.311  0.3032 -0.9719 -0.8908
   86SAPS   C28 8196   4.171   4.416  10.283  0.2096 -0.3859  0.1361
   86SAPS   H8R 8197   4.187   4.458  10.384  0.4898  3.4263 -1.4338
   86SAPS   C29 8198   4.284   4.375  10.215 -0.4130  0.2417  0.2136
   86SAPS   H9R 8199   4.382   4.372  10.265 -0.3935 -0.5065  0.1384
   86SAPS  C210 8200   4.280   4.316  10.073 -0.0263  0.1562 -0.5309
   86SAPS  H10R 8201   4.181   4.269  10.062 -0.0892 -0.2706  1.5907
   86SAPS  H10S 8202   4.356   4.235  10.061 -0.2767 -0.4788  1.9150
   86SAPS  C211 8203   4.293   4.420   9.973 -0.4920 -1.0111 -0.2742
   86SAPS  H11R 8204   4.277   4.523  10.007  1.7098  0.0336 -2.2217
   86SAPS  C212 8205   4.333   4.394   9.848 -0.3151  0.1226  0.1064
   86SAPS  H12R 8206   4.320   4.477   9.777 -0.1288 -0.5797 -0.7632
   86SAPS  C213 8207   4.351   4.258   9.789 -0.0020  0.4254 -0.2000
   86SAPS  H13R 8208   4.362   4.170   9.856  4.3603  0.9112 -0.1014
   86SAPS  H13S 8209   4.440   4.256   9.722  2.0977  1.2680  2.4449
   86SAPS  C214 8210   4.234   4.226   9.701  0.2082  0.4327 -0.6303
   86SAPS  H14R 8211   4.155   4.156   9.733  1.0077 -1.2458 -2.2304
   86SAPS  C215 8212   4.204   4.269   9.574 -0.7940 -0.9266  0.1756
   86SAPS  H15R 8213   4.110   4.245   9.522 -0.9433  1.3171 -0.6625
   86SAPS  C216 8214   4.287   4.363   9.487  0.4121 -0.3970 -0.0254
   86SAPS  H16R 8215   4.370   4.396   9.554 -1.6769  0.0145  2.4425
   86SAPS  H16S 8216   4.229   4.457   9.474  0.8293 -0.1344 -0.0009
   86SAPS  C217 8217   4.326   4.312   9.338  0.1132 -0.0170 -0.0788
   86SAPS  H17R 8218   4.379   4.214   9.345  0.7610  0.2322 -1.3914
   86SAPS  H17S 8219   4.391   4.389   9.292 -0.8118  0.3206 -0.8315
   86SAPS  C218 8220   4.214   4.297   9.231 -0.1967  0.9695  0.3556
   86SAPS  H18R 8221   4.137   4.376   9.245  1.0749  2.2576  0.1936
   86SAPS  H18S 8222   4.170   4.196   9.242  1.2667  0.1741 -0.9261
   86SAPS  C219 8223   4.281   4.306   9.090 -0.0021  0.8214 -0.0113
   86SAPS  H19R 8224   4.206   4.301   9.008 -1.5771 -0.6080  1.4585
   86SAPS  H19S 8225   4.355   4.226   9.070  3.4845  3.6269  1.0147
   86SAPS  C220 8226   4.363   4.433   9.051 -0.1729 -0.8559  0.6760
   86SAPS  H20R 8227   4.461   4.429   9.103  1.0894 -0.2473 -1.6019
   86SAPS  H20S 8228   4.311   4.529   9.072  3.3121  1.3267 -0.2413
   86SAPS  H20T 8229   4.380   4.425   8.942  3.7287  4.4913  0.7148
   86SAPS   C33 8230   4.492   4.823  10.263 -0.2975 -0.8236 -0.2314
   86SAPS   H3X 8231   4.382   4.840  10.273 -0.0596  0.2192  0.7953
   86SAPS   H3Y 8232   4.523   4.718  10.280 -0.6679 -0.6726  1.5428
   86SAPS   C34 8233   4.539   4.875  10.132 -0.0430 -0.0096 -0.3175
   86SAPS   H4X 8234   4.628   4.813  10.104 -1.1183 -2.0184  0.6037
   86SAPS   H4Y 8235   4.564   4.983  10.135  1.4855 -0.4033  4.1155
   86SAPS   C35 8236   4.427   4.871  10.027  0.0769 -0.0221  0.2413
   86SAPS   H5X 8237   4.334   4.919  10.062 -0.4270  0.3454 -1.5865
   86SAPS   H5Y 8238   4.407   4.762  10.025 -2.3268  0.4008  0.4938
   86SAPS   C36 8239   4.456   4.908   9.885 -0.3604  0.6192 -0.3914
   86SAPS   H6X 8240   4.396   4.852   9.811 -0.2044 -1.2935  0.8833
   86SAPS   H6Y 8241   4.564   4.881   9.876 -0.7096 -1.3088  0.9774
   86SAPS   C37 8242   4.435   5.055   9.872 -0.5314 -0.6436  0.0338
   86SAPS   H7X 8243   4.486   5.111   9.954  0.0519  0.7603 -1.2685
   86SAPS   H7Y 8244   4.328   5.084   9.881 -0.1094  0.4409  1.7132
   86SAPS   C38 8245   4.494   5.108   9.739  0.0043  0.0005  0.5094
   86SAPS   H8X 8246   4.604   5.100   9.739  0.1422  1.3435  2.8428
   86SAPS   H8Y 8247   4.453   5.210   9.723 -0.4188 -0.4937 -1.6926
   86SAPS   C39 8248   4.436   5.044   9.617  0.0197 -0.6329 -0.1767
   86SAPS   H9X 8249   4.329   5.069   9.606  0.4549  0.7010 -1.6191
   86SAPS   H9Y 8250   4.457   4.936   9.608  3.1560  0.0263 -1.6904
   86SAPS  C310 8251   4.505   5.106   9.489  0.5616  0.5819  0.3067
   86SAPS  H10X 8252   4.613   5.085   9.474  0.5528  0.6692  0.1239
   86SAPS  H10Y 8253   4.491   5.215   9.499 -0.0005  0.4834  0.6454
   86SAPS  C311 8254   4.431   5.062   9.356 -0.2495 -0.3024  0.0416
   86SAPS  H11X 8255   4.323   5.079   9.376  0.0184  1.3090  0.1346
   86SAPS  H11Y 8256   4.435   4.952   9.342 -2.2086 -0.1701 -1.9292
   86SAPS  C312 8257   4.475   5.133   9.223 -0.0936 -0.1669  0.0317
   86SAPS  H12X 8258   4.585   5.124   9.213 -0.2200 -1.2049 -0.4836
   86SAPS  H12Y 8259   4.462   5.242   9.235 -0.5162  0.3411 -4.2818
   86SAPS  C313 8260   4.431   5.071   9.095  0.1816  0.4867 -0.1195
   86SAPS  H13X 8261   4.322   5.073   9.076  0.3161 -1.4329 -1.2387
   86SAPS  H13Y 8262   4.466   4.965   9.093 -1.1320 -0.0214  2.1626
   86SAPS  C314 8263   4.483   5.146   8.969  0.0306 -0.0637 -0.6240
   86SAPS  H14X 8264   4.588   5.163   9.004  0.6143 -3.3242 -0.5897
   86SAPS  H14Y 8265   4.429   5.241   8.950 -0.6533 -0.3822 -0.2962
   86SAPS  C315 8266   4.478   5.054   8.847 -0.0301  0.0145 -0.7516
   86SAPS  H15X 8267   4.372   5.040   8.815 -0.2665  0.7508 -0.3005
   86SAPS  H15Y 8268   4.532   4.960   8.869  0.6006  0.6299  0.3643
   86SAPS  C316 8269   4.550   5.117   8.732  0.4452  0.5144  0.2972
   86SAPS  H16X 8270   4.652   5.148   8.761  0.7177 -0.6380  0.5899
   86SAPS  H16Y 8271   4.484   5.201   8.699 -1.0705 -1.2329 -1.2540
   86SAPS  C317 8272   4.545   5.010   8.624 -0.0846 -0.3906  0.6063
   86SAPS  H17X 8273   4.436   5.009   8.601  0.1210 -0.7809 -0.4032
   86SAPS  H17Y 8274   4.578   4.909   8.656 -1.5351 -1.8951 -2.3768
   86SAPS  C318 8275   4.613   5.056   8.497  0.0183 -0.2173  0.5616
   86SAPS  H18X 8276   4.709   5.101   8.529  0.9958 -0.5437 -1.7958
   86SAPS  H18Y 8277   4.542   5.124   8.445 -0.9551 -1.9081 -0.3513
   86SAPS  H18Z 8278   4.651   4.973   8.433 -0.7829  1.2368 -1.8456
   87SAPS     N 8279   5.439   5.428  10.901  0.1297  0.0341 -0.2066
   87SAPS   HN1 8280   5.377   5.417  10.818  0.1403 -3.0446  0.1109
   87SAPS   HN2 8281   5.465   5.528  10.908 -0.3824  0.0394  1.8959
   87SAPS   HN3 8282   5.525   5.377  10.871  1.3742  1.2900  1.1335
   87SAPS   C12 8283   5.384   5.384  11.032 -0.9279 -0.5655  0.5244
   87SAPS  H12A 8284   5.387   5.276  11.033 -1.0246 -0.5646  1.6984
   87SAPS   C13 8285   5.479   5.425  11.152  1.1293 -0.0671  0.3677
   87SAPS  O13A 8286   5.586   5.485  11.127  0.3426 -0.3998 -0.1588
   87SAPS  O13B 8287   5.439   5.405  11.269 -0.5102 -0.1338 -0.0169
   87SAPS   C11 8288   5.243   5.449  11.056  0.2496  0.0331 -0.7670
   87SAPS  H11A 8289   5.251   5.557  11.082  0.0525 -0.2317  0.4432
   87SAPS  H11B 8290   5.209   5.397  11.148  0.3500  1.7317  0.2468
   87SAPS     P 8291   5.073   5.316  10.909 -0.0809 -0.1133 -0.2030
   87SAPS   O13 8292   5.144   5.237  10.802  0.9035 -0.1816  0.0336
   87SAPS   O14 8293   5.029   5.252  11.035  0.0956 -0.2222  0.4648
   87SAPS   O12 8294   5.166   5.437  10.940  0.9551  0.5794 -0.3834
   87SAPS   O11 8295   4.945   5.383  10.848  0.5940  0.1501  0.4499
   87SAPS    C1 8296   4.826   5.303  10.813  0.3493  0.3456 -0.3631
   87SAPS    HA 8297   4.840   5.195  10.790 -0.5171  0.3684 -1.0543
   87SAPS    HB 8298   4.750   5.309  10.894  1.4314 -0.0339  0.6864
   87SAPS    C2 8299   4.762   5.359  10.683 -0.8254 -0.5589 -0.0196
   87SAPS    HS 8300   4.667   5.305  10.666 -0.4983 -0.7409 -1.3032
   87SAPS   O21 8301   4.855   5.334  10.574 -1.3425  0.1365  0.0595
   87SAPS   C21 8302   4.850   5.210  10.521 -0.1385 -0.1730  0.6550
   87SAPS   O22 8303   4.794   5.113  10.566 -0.4461  0.5122  0.3697
   87SAPS   C22 8304   4.926   5.210  10.398 -0.3343 -0.2195 -0.2469
   87SAPS   H2R 8305   4.860   5.266  10.328 -1.3560  0.3072  1.1109
   87SAPS   H2S 8306   5.028   5.252  10.415 -0.1489 -1.0604  0.8091
   87SAPS    C3 8307   4.732   5.510  10.685 -0.3377  0.0493  0.1678
   87SAPS    HX 8308   4.830   5.557  10.709  0.6878 -1.8058 -0.3054
   87SAPS    HY 8309   4.654   5.528  10.763 -0.7850 -1.7064  0.1520
   87SAPS   O31 8310   4.685   5.561  10.559  0.0734  0.3608 -0.0076
   87SAPS   C31 8311   4.726   5.676  10.521 -0.1007 -0.9102  0.2464
   87SAPS   O32 8312   4.791   5.756  10.592 -0.0724  0.3066 -0.4847
   87SAPS   C32 8313   4.683   5.711  10.379 -0.2756 -0.4224 -0.2197
   87SAPS   H2X 8314   4.689   5.610  10.331  0.3836 -1.2342  1.5412
   87SAPS   H2Y 8315   4.763   5.770  10.329  2.0855 -1.9150  1.7362
   87SAPS   C23 8316   4.940   5.062  10.326  0.1772  0.2394  0.0412
   87SAPS   H3R 8317   4.846   5.004  10.333  0.7817 -0.8617 -0.7170
   87SAPS   H3S 8318   5.023   5.001  10.369 -0.3877  0.3565  1.3335
   87SAPS   C24 8319   4.956   5.083  10.171 -0.4869  0.5013 -0.4135
   87SAPS   H4R 8320   5.056   5.127  10.154 -0.1819  0.0689  0.2323
   87SAPS   H4S 8321   4.878   5.155  10.138  0.7844  2.1069  0.0181
   87SAPS   C25 8322   4.951   4.949  10.100  0.1623 -0.3393  0.3299
   87SAPS   H5R 8323   4.980   4.862  10.160  1.8633 -1.8081 -2.5382
   87SAPS   C26 8324   4.904   4.936   9.972 -0.2662 -0.3422  0.0646
   87SAPS   H6R 8325   4.903   4.832   9.935 -1.1545 -0.5036  0.5418
   87SAPS   C27 8326   4.856   5.047   9.884 -0.0857 -0.0756 -0.7264
   87SAPS   H7R 8327   4.797   5.124   9.938 -0.7818 -1.4352  0.4799
   87SAPS   H7S 8328   4.794   4.993   9.808  0.7996 -1.6642 -0.3389
   87SAPS   C28 8329   4.969   5.126   9.828 -0.1561 -0.2248 -0.2261
   87SAPS   H8R 8330   5.046   5.155   9.901  0.3260 -1.1820 -0.3430
   87SAPS   C29 8331   4.995   5.143   9.698  0.4893  0.3862  0.1985
   87SAPS   H9R 8332   5.089   5.194   9.674 -1.1850  2.9883 -0.9690
   87SAPS  C210 8333   4.913   5.099   9.581 -0.3961 -0.3860  0.4860
   87SAPS  H10R 8334   4.916   5.190   9.517 -1.4748 -0.5505  0.1881
   87SAPS  H10S 8335   4.806   5.090   9.610 -0.8788  0.2703 -1.0650
   87SAPS  C211 8336   4.959   4.974   9.509 -0.6556  0.6511 -0.5786
   87SAPS  H11R 8337   4.966   4.882   9.568  0.0322  1.3016  0.3687
   87SAPS  C212 8338   4.952   4.964   9.376 -0.7964  0.4045 -0.5950
   87SAPS  H12R 8339   5.007   4.883   9.326 -0.4147  0.5551 -0.4224
   87SAPS  C213 8340   4.907   5.072   9.277 -0.0254  0.0359  1.0256
   87SAPS  H13R 8341   4.973   5.161   9.274  1.3752 -1.0458 -1.4422
   87SAPS  H13S 8342   4.807   5.119   9.293 -0.2854  0.5412 -1.8658
   87SAPS  C214 8343   4.895   5.015   9.137  0.0612  0.1955  0.2611
   87SAPS  H14R 8344   4.864   4.910   9.129 -2.9933  1.0315  0.7144
   87SAPS  C215 8345   4.933   5.076   9.025 -0.0242  1.0813  0.5593
   87SAPS  H15R 8346   4.917   5.029   8.926 -1.1835  0.2206  1.1413
   87SAPS  C216 8347   4.997   5.213   9.015  0.0059 -0.3624  0.2006
   87SAPS  H16R 8348   5.091   5.205   8.957  0.0254 -2.1135  0.4337
   87SAPS  H16S 8349   5.020   5.258   9.114 -1.5990 -1.2851  1.0100
   87SAPS  C217 8350   4.915   5.314   8.945 -0.0457 -0.0619 -0.0456
   87SAPS  H17R 8351   4.951   5.415   8.974 -1.2328  0.7838 -1.5164
   87SAPS  H17S 8352   4.809   5.308   8.977  0.2476  2.3027  1.4447
   87SAPS  C218 8353   4.929   5.308   8.793  1.6852  0.3922  0.9195
   87SAPS  H18R 8354   4.911   5.199   8.778 -0.0678  0.7941 -0.0229
   87SAPS  H18S 8355   5.031   5.334   8.761  0.8091  0.9459 -1.4825
   87SAPS  C219 8356   4.814   5.386   8.727 -0.3097  0.4927  0.2163
   87SAPS  H19R 8357   4.730   5.381   8.801  0.7156 -0.8728  1.3032
   87SAPS  H19S 8358   4.791   5.336   8.631  0.4319 -0.2093  0.4031
   87SAPS  C220 8359   4.849   5.535   8.706  0.2625  0.6465  0.3561
   87SAPS  H20R 8360   4.950   5.549   8.661 -0.1600  1.6931 -0.3000
   87SAPS  H20S 8361   4.834   5.597   8.797 -1.1649 -0.1799  0.6943
   87SAPS  H20T 8362   4.776   5.572   8.631  1.6272  1.3936 -0.6278
   87SAPS   C33 8363   4.549   5.769  10.370  0.3921 -0.4656 -0.1479
   87SAPS   H3X 8364   4.549   5.876  10.398 -0.8302 -1.0109  2.0411
   87SAPS   H3Y 8365   4.495   5.714  10.450  2.4572 -0.4035  1.3212
   87SAPS   C34 8366   4.480   5.738  10.236 -0.0107 -0.5185 -0.3575
   87SAPS   H4X 8367   4.370   5.739  10.252 -0.0468  1.0529 -0.6084
   87SAPS   H4Y 8368   4.514   5.637  10.202 -0.4667 -1.2681  1.3547
   87SAPS   C35 8369   4.528   5.837  10.127 -0.1414  0.2209 -0.3990
   87SAPS   H5X 8370   4.638   5.825  10.122 -0.4754 -2.7734 -1.6365
   87SAPS   H5Y 8371   4.500   5.939  10.162 -1.0313 -0.2571  0.3051
   87SAPS   C36 8372   4.475   5.825   9.988 -0.0006 -0.2236  0.8378
   87SAPS   H6X 8373   4.364   5.834   9.988  0.0758  0.9859 -1.1331
   87SAPS   H6Y 8374   4.491   5.727   9.939 -4.3360 -0.0520 -1.1771
   87SAPS   C37 8375   4.548   5.929   9.896 -0.1252  0.5567 -0.2469
   87SAPS   H7X 8376   4.653   5.894   9.907 -0.1556  0.8762  1.1449
   87SAPS   H7Y 8377   4.542   6.030   9.943 -2.8999  0.1439  0.3497
   87SAPS   C38 8378   4.515   5.926   9.744 -0.0875 -0.6322 -0.0294
   87SAPS   H8X 8379   4.417   5.976   9.729 -1.3935 -3.2493 -0.3569
   87SAPS   H8Y 8380   4.514   5.821   9.708  3.6444 -1.7428  2.7246
   87SAPS   C39 8381   4.617   6.002   9.654  0.4018  0.5138 -0.0110
   87SAPS   H9X 8382   4.715   5.961   9.686 -0.4730 -0.8204  1.0408
   87SAPS   H9Y 8383   4.614   6.111   9.672  1.0593  1.2679 -4.0389
   87SAPS  C310 8384   4.597   5.986   9.508  0.8022  0.6574  0.2596
   87SAPS  H10X 8385   4.539   6.075   9.476 -0.3615 -0.4861 -0.9159
   87SAPS  H10Y 8386   4.536   5.898   9.479  1.6862 -0.3444  1.3982
   87SAPS  C311 8387   4.722   5.994   9.429 -0.2935  0.3830 -0.1015
   87SAPS  H11X 8388   4.792   5.910   9.451 -1.7678 -0.8310  0.0049
   87SAPS  H11Y 8389   4.787   6.078   9.463  3.5382 -2.7900  0.8126
   87SAPS  C312 8390   4.699   5.990   9.276  0.1209 -0.2536  0.3275
   87SAPS  H12X 8391   4.671   5.888   9.240 -2.6597  0.0240  1.5844
   87SAPS  H12Y 8392   4.795   6.014   9.227 -1.1033  0.8715 -1.5678
   87SAPS  C313 8393   4.591   6.090   9.230 -0.3323  0.4563 -0.4477
   87SAPS  H13X 8394   4.592   6.187   9.285 -1.3108  0.9038 -1.2118
   87SAPS  H13Y 8395   4.492   6.040   9.233  0.6668 -1.7029 -2.2157
   87SAPS  C314 8396   4.603   6.120   9.081 -0.1743 -0.2644 -0.8773
   87SAPS  H14X 8397   4.692   6.186   9.070 -1.0171  1.0777  0.3132
   87SAPS  H14Y 8398   4.527   6.183   9.032 -0.1246  0.2727 -0.2615
   87SAPS  C315 8399   4.613   5.987   9.008  0.9890  0.6298 -0.2725
   87SAPS  H15X 8400   4.533   5.930   9.061  0.3109  1.4801 -0.3722
   87SAPS  H15Y 8401   4.709   5.930   9.014  2.6540  3.4646  1.0692
   87SAPS  C316 8402   4.559   5.994   8.861  0.5481  0.4021 -0.6715
   87SAPS  H16X 8403   4.621   6.065   8.802 -0.3101 -0.1337 -2.2563
   87SAPS  H16Y 8404   4.459   6.042   8.873  0.4527 -0.0217  0.2515
   87SAPS  C317 8405   4.553   5.860   8.788  0.2364  1.0776  0.4494
   87SAPS  H17X 8406   4.491   5.787   8.843 -1.4101  1.1231 -1.2884
   87SAPS  H17Y 8407   4.655   5.817   8.790 -0.2967 -0.1989  0.6135
   87SAPS  C318 8408   4.514   5.858   8.637  0.4646 -0.6449 -0.9671
   87SAPS  H18X 8409   4.571   5.941   8.588  1.5542 -1.3857 -0.9837
   87SAPS  H18Y 8410   4.404   5.870   8.633  0.2301 -1.7746  1.4868
   87SAPS  H18Z 8411   4.548   5.761   8.597  0.1484 -1.2236  0.1610
   88SAPS     N 8412   0.319   4.276  11.003  0.5630  0.1243  0.6790
   88SAPS   HN1 8413   0.262   4.358  11.029 -0.7092 -0.6906  0.4963
   88SAPS   HN2 8414   0.375   4.235  11.081 -1.6291 -0.2033  2.1249
   88SAPS   HN3 8415   0.368   4.314  10.920  0.0165  2.5238  1.4069
   88SAPS   C12 8416   0.217   4.176  10.962 -0.1978  0.3432 -0.8162
   88SAPS  H12A 8417   0.265   4.079  10.972  1.3397  1.2286  0.7308
   88SAPS   C13 8418   0.077   4.187  11.035 -0.5855  0.5018 -0.1848
   88SAPS  O13A 8419   0.063   4.278  11.120  0.0501  0.2640  0.3859
   88SAPS  O13B 8420   0.015   4.075  11.044  0.1568 -0.2473  0.2984
   88SAPS   C11 8421   0.186   4.202  10.808 -0.0970 -0.3427  0.3371
   88SAPS  H11A 8422   0.154   4.308  10.793 -0.8019 -0.4921  0.8002
   88SAPS  H11B 8423   0.094   4.147  10.780 -0.4626 -0.7062  2.2282
   88SAPS     P 8424   0.288   4.095  10.588 -0.0354 -0.0908  0.1926
   88SAPS   O13 8425   0.274   4.179  10.471 -0.8914  0.0787  0.6735
   88SAPS   O14 8426   0.413   4.016  10.582  0.1772  0.1874 -0.6365
   88SAPS   O12 8427   0.299   4.182  10.720  0.2571  0.2163 -0.0172
   88SAPS   O11 8428   0.169   4.005  10.622  0.5856  0.2160 -0.1286
   88SAPS    C1 8429   0.176   3.889  10.712  1.0983  0.0198  0.0865
   88SAPS    HA 8430   0.271   3.880  10.768  2.5725  1.1803 -2.1818
   88SAPS    HB 8431   0.093   3.906  10.785 -0.7134 -0.4314 -1.8062
   88SAPS    C2 8432   0.152   3.765  10.629 -0.4530  0.1589  0.2549
   88SAPS    HS 8433   0.243   3.749  10.566 -1.1111 -2.3368 -0.1125
   88SAPS   O21 8434   0.027   3.774  10.554 -0.4784 -0.3365  0.4808
   88SAPS   C21 8435   0.042   3.763  10.426  0.4414  0.1648 -0.3411
   88SAPS   O22 8436   0.143   3.754  10.359  0.1604  0.3150 -0.0372
   88SAPS   C22 8437  -0.103   3.772  10.373  0.6310  0.5577  1.2444
   88SAPS   H2R 8438  -0.150   3.672  10.385 -1.2516  1.4189  1.2956
   88SAPS   H2S 8439  -0.164   3.840  10.437  0.7439  1.9969 -0.1688
   88SAPS    C3 8440   0.138   3.643  10.716  0.4757 -0.2504 -0.7042
   88SAPS    HX 8441   0.047   3.665  10.777  2.7011 -1.4292  3.2138
   88SAPS    HY 8442   0.216   3.645  10.795  2.1465 -2.7436 -2.2108
   88SAPS   O31 8443   0.126   3.521  10.643  0.2454  0.3107  0.0887
   88SAPS   C31 8444   0.240   3.492  10.577 -0.8901  0.1266 -0.0211
   88SAPS   O32 8445   0.347   3.545  10.592 -0.3955 -0.4393  0.2451
   88SAPS   C32 8446   0.225   3.365  10.500 -0.9619  0.3626  0.0061
   88SAPS   H2X 8447   0.116   3.351  10.483 -0.8668 -1.1766  0.5139
   88SAPS   H2Y 8448   0.266   3.292  10.574  1.0800  1.1930 -0.2711
   88SAPS   C23 8449  -0.118   3.840  10.228  0.2371 -0.2124  0.4942
   88SAPS   H3R 8450  -0.083   3.763  10.156 -1.9695 -0.7565 -0.0207
   88SAPS   H3S 8451  -0.041   3.921  10.229  0.0315  0.0229 -1.5792
   88SAPS   C24 8452  -0.251   3.908  10.178  1.0497 -0.2243 -0.5355
   88SAPS   H4R 8453  -0.233   3.971  10.088  0.0042  0.6569 -0.1485
   88SAPS   H4S 8454  -0.280   3.974  10.263 -0.3782 -0.7505 -0.6044
   88SAPS   C25 8455  -0.374   3.821  10.182 -0.3170 -0.1904 -0.6944
   88SAPS   H5R 8456  -0.401   3.773  10.277  1.7461  0.3274  0.1772
   88SAPS   C26 8457  -0.456   3.804  10.075  0.1458 -0.0605  0.4831
   88SAPS   H6R 8458  -0.544   3.739  10.082 -0.9599  1.3974  0.1785
   88SAPS   C27 8459  -0.441   3.877   9.941 -0.5661 -0.0847 -0.6976
   88SAPS   H7R 8460  -0.342   3.885   9.892  0.1460 -0.8764  0.5957
   88SAPS   H7S 8461  -0.475   3.983   9.952 -0.6827 -0.3646  2.0793
   88SAPS   C28 8462  -0.519   3.813   9.832 -0.4039 -0.2894 -0.0593
   88SAPS   H8R 8463  -0.587   3.733   9.867 -0.3816  0.2401  1.2257
   88SAPS   C29 8464  -0.514   3.837   9.701  0.0046 -0.5201  0.5630
   88SAPS   H9R 8465  -0.602   3.797   9.650  1.0185 -1.0288 -0.8324
   88SAPS  C210 8466  -0.428   3.939   9.623  0.4197  0.2439 -0.2026
   88SAPS  H10R 8467  -0.341   3.885   9.580 -0.5882 -0.8644 -0.8692
   88SAPS  H10S 8468  -0.388   4.024   9.682  0.5664 -0.0752  0.1564
   88SAPS  C211 8469  -0.512   4.005   9.514 -0.0658  0.3267 -0.2259
   88SAPS  H11R 8470  -0.525   4.112   9.532 -0.1807  0.0180  1.5684
   88SAPS  C212 8471  -0.539   3.950   9.394  0.5599  0.3995  0.2414
   88SAPS  H12R 8472  -0.595   4.016   9.325 -0.0902 -0.1268  0.2624
   88SAPS  C213 8473  -0.496   3.805   9.359 -0.6218  0.9560 -0.9113
   88SAPS  H13R 8474  -0.584   3.760   9.308 -0.8083  0.3822 -0.0887
   88SAPS  H13S 8475  -0.485   3.754   9.456  0.6225 -1.2422 -2.1739
   88SAPS  C214 8476  -0.371   3.814   9.269 -0.5518 -0.0401  0.1409
   88SAPS  H14R 8477  -0.274   3.826   9.320  0.8901 -2.8962 -1.8270
   88SAPS  C215 8478  -0.366   3.805   9.128 -0.0839 -0.2128  0.1359
   88SAPS  H15R 8479  -0.266   3.803   9.082 -0.3293  0.1054 -0.4139
   88SAPS  C216 8480  -0.480   3.787   9.025 -0.3444  0.1800  1.1876
   88SAPS  H16R 8481  -0.473   3.857   8.939 -0.3296  1.0108  1.8665
   88SAPS  H16S 8482  -0.584   3.797   9.062 -1.1101 -1.2610 -0.4569
   88SAPS  C217 8483  -0.475   3.637   8.984 -0.1978 -0.1195  0.9295
   88SAPS  H17R 8484  -0.497   3.581   9.077 -2.7565 -0.4047  0.1955
   88SAPS  H17S 8485  -0.370   3.626   8.949 -0.3167  1.9044 -0.1369
   88SAPS  C218 8486  -0.575   3.593   8.875 -0.7202 -0.2304  0.3759
   88SAPS  H18R 8487  -0.565   3.661   8.787 -1.2402  0.1737  0.6308
   88SAPS  H18S 8488  -0.668   3.616   8.930  1.0871 -0.0586  3.4818
   88SAPS  C219 8489  -0.569   3.443   8.847 -0.8542 -0.5727 -0.2357
   88SAPS  H19R 8490  -0.596   3.384   8.938 -0.5857  0.3252  0.4309
   88SAPS  H19S 8491  -0.468   3.415   8.810 -1.2101 -1.9063 -0.2153
   88SAPS  C220 8492  -0.674   3.397   8.746 -0.1913 -0.0406  0.0208
   88SAPS  H20R 8493  -0.761   3.453   8.788  1.5250  2.4642  0.3761
   88SAPS  H20S 8494  -0.710   3.293   8.731  0.0673 -0.5362  2.5714
   88SAPS  H20T 8495  -0.654   3.442   8.647  0.3321 -1.4178 -0.5145
   88SAPS   C33 8496   0.318   3.355  10.378  0.1904  0.2472 -0.3328
   88SAPS   H3X 8497   0.420   3.384  10.410  0.7665 -0.5938 -1.3910
   88SAPS   H3Y 8498   0.283   3.429  10.302 -0.9181 -1.0117 -1.0674
   88SAPS   C34 8499   0.309   3.215  10.319 -0.1671 -0.4349  0.3548
   88SAPS   H4X 8500   0.202   3.187  10.311 -0.7249  1.8013 -0.5716
   88SAPS   H4Y 8501   0.359   3.144  10.388 -0.8261  0.6382  1.9506
   88SAPS   C35 8502   0.380   3.195  10.184  0.9340 -0.7799 -0.3633
   88SAPS   H5X 8503   0.382   3.086  10.165  0.2259 -0.6519 -1.2165
   88SAPS   H5Y 8504   0.479   3.245  10.192  1.3728 -1.8037  0.8456
   88SAPS   C36 8505   0.305   3.254  10.065 -0.0712  0.3334 -0.4908
   88SAPS   H6X 8506   0.337   3.360  10.062 -1.6089  1.0441  4.3298
   88SAPS   H6Y 8507   0.197   3.238  10.088 -0.5316  2.5243 -0.9932
   88SAPS   C37 8508   0.333   3.187   9.930 -0.0107 -0.1890  0.8368
   88SAPS   H7X 8509   0.285   3.087   9.928  0.9373 -0.6514  1.0445
   88SAPS   H7Y 8510   0.443   3.173   9.930  0.3498  2.2608  0.6986
   88SAPS   C38 8511   0.292   3.263   9.800  0.6517  0.2028 -0.6451
   88SAPS   H8X 8512   0.314   3.372   9.804  0.0376  0.2680  1.4336
   88SAPS   H8Y 8513   0.184   3.247   9.780  0.3196 -1.7177  2.3802
   88SAPS   C39 8514   0.375   3.209   9.679 -0.3267 -0.1281 -0.3196
   88SAPS   H9X 8515   0.340   3.108   9.649 -1.5845  0.4487 -0.8284
   88SAPS   H9Y 8516   0.482   3.211   9.710 -0.3006 -0.4753 -0.3918
   88SAPS  C310 8517   0.344   3.291   9.551  0.5073  0.4050  0.3810
   88SAPS  H10X 8518   0.422   3.367   9.529  0.0577  0.2418 -1.9768
   88SAPS  H10Y 8519   0.252   3.347   9.577  1.8071  2.1484  1.3282
   88SAPS  C311 8520   0.313   3.212   9.428  0.7163 -0.2317 -0.4766
   88SAPS  H11X 8521   0.276   3.281   9.348  1.0517 -0.0307 -0.4612
   88SAPS  H11Y 8522   0.221   3.153   9.449  1.1340 -1.2435 -1.4684
   88SAPS  C312 8523   0.428   3.132   9.374 -0.2627  0.4770 -0.0184
   88SAPS  H12X 8524   0.465   3.055   9.445  2.9736 -0.4843 -2.6116
   88SAPS  H12Y 8525   0.514   3.200   9.357  0.1946 -0.3962 -1.1944
   88SAPS  C313 8526   0.397   3.078   9.238  0.5683  0.2937 -0.0548
   88SAPS  H13X 8527   0.304   3.018   9.231  2.3227 -2.5301  0.1795
   88SAPS  H13Y 8528   0.481   3.011   9.211 -0.6815 -0.8142 -1.2230
   88SAPS  C314 8529   0.404   3.189   9.137 -0.4400  0.1514 -0.6405
   88SAPS  H14X 8530   0.497   3.249   9.142  0.5766 -1.3602 -1.0430
   88SAPS  H14Y 8531   0.321   3.262   9.149 -0.4148 -0.0691  0.9737
   88SAPS  C315 8532   0.411   3.140   8.991  0.0619  0.0175  0.2164
   88SAPS  H15X 8533   0.491   3.068   8.967 -1.2483 -1.7000  0.8592
   88SAPS  H15Y 8534   0.437   3.227   8.927 -1.4453 -0.6899 -1.3708
   88SAPS  C316 8535   0.276   3.092   8.953 -0.0777 -0.7407  0.5016
   88SAPS  H16X 8536   0.214   3.178   8.985 -0.4360 -1.4859  1.8429
   88SAPS  H16Y 8537   0.240   2.999   9.002 -0.5919 -0.6881  0.2236
   88SAPS  C317 8538   0.253   3.083   8.807  0.0795  0.1850  0.5078
   88SAPS  H17X 8539   0.274   2.981   8.769  2.3756  0.3737  1.2229
   88SAPS  H17Y 8540   0.313   3.154   8.745 -0.3955 -0.5672 -0.8335
   88SAPS  C318 8541   0.107   3.095   8.769 -0.1782  0.4452 -0.3432
   88SAPS  H18X 8542   0.064   3.197   8.777 -0.1206  0.5193 -0.9259
   88SAPS  H18Y 8543   0.037   3.022   8.815 -0.3969  1.4041  0.8827
   88SAPS  H18Z 8544   0.085   3.083   8.661 -2.0546  1.9559 -0.1630
   89SAPS     N 8545   0.072   0.160  11.059  0.3693  0.2865  0.6867
   89SAPS   HN1 8546   0.025   0.243  11.017  1.6378  0.4461 -0.4337
   89SAPS   HN2 8547   0.134   0.186  11.138  0.6478 -0.0594  0.5828
   89SAPS   HN3 8548   0.110   0.106  10.979 -0.0568  0.4221  0.3940
   89SAPS   C12 8549  -0.026   0.076  11.140  0.6971 -0.4529 -0.5265
   89SAPS  H12A 8550   0.023  -0.018  11.163 -1.3768 -1.0280  1.6773
   89SAPS   C13 8551  -0.068   0.139  11.277  0.9683  0.4099 -0.4402
   89SAPS  O13A 8552  -0.011   0.244  11.321  0.1948  0.5133 -0.5005
   89SAPS  O13B 8553  -0.127   0.060  11.354 -0.0419  0.3065  0.2790
   89SAPS   C11 8554  -0.146   0.048  11.054  0.5256  0.4225 -0.0550
   89SAPS  H11A 8555  -0.206   0.141  11.041 -2.9215 -1.6035  0.6702
   89SAPS  H11B 8556  -0.210  -0.025  11.108 -0.1320  2.6677  2.2984
   89SAPS     P 8557  -0.193  -0.110  10.833 -0.1238  0.3671 -0.1290
   89SAPS   O13 8558  -0.135  -0.249  10.821 -0.3056 -0.2034  0.4001
   89SAPS   O14 8559  -0.336  -0.101  10.874  0.1570 -0.2218 -0.3078
   89SAPS   O12 8560  -0.110  -0.018  10.933 -0.6030  0.0248  0.2929
   89SAPS   O11 8561  -0.164  -0.038  10.691 -0.2655 -0.4651 -0.4050
   89SAPS    C1 8562  -0.158   0.103  10.674 -0.4926 -0.3589  0.9756
   89SAPS    HA 8563  -0.260   0.147  10.674 -0.7677 -0.9744  2.3699
   89SAPS    HB 8564  -0.115   0.153  10.763 -0.0327 -0.6171  0.8961
   89SAPS    C2 8565  -0.076   0.127  10.549  0.0916 -0.5658  0.2176
   89SAPS    HS 8566  -0.069   0.236  10.526  0.9985 -1.1209 -2.2800
   89SAPS   O21 8567  -0.134   0.049  10.446 -0.0263  0.0751 -0.5087
   89SAPS   C21 8568  -0.235   0.113  10.381  1.3056  0.6215  0.0931
   89SAPS   O22 8569  -0.293   0.218  10.410 -0.0824  0.4329 -0.8947
   89SAPS   C22 8570  -0.277   0.032  10.261 -0.2662 -0.1581 -0.3344
   89SAPS   H2R 8571  -0.321  -0.064  10.294  0.9903 -0.1047  1.5754
   89SAPS   H2S 8572  -0.349   0.091  10.200 -1.1435  0.1061  0.9360
   89SAPS    C3 8573   0.069   0.076  10.568 -0.1256 -0.0890 -0.3291
   89SAPS    HX 8574   0.055  -0.034  10.573  0.8022 -0.2332 -0.7966
   89SAPS    HY 8575   0.096   0.117  10.668 -2.5495  0.3383  0.1900
   89SAPS   O31 8576   0.160   0.108  10.462 -0.0035 -0.3506  0.0921
   89SAPS   C31 8577   0.205   0.231  10.465 -0.1904  0.1865 -0.9290
   89SAPS   O32 8578   0.182   0.312  10.549  0.1413 -0.2920  0.0420
   89SAPS   C32 8579   0.301   0.261  10.346 -0.1544 -0.1315  0.1848
   89SAPS   H2X 8580   0.359   0.171  10.316  0.4167  1.1685 -2.7788
   89SAPS   H2Y 8581   0.360   0.351  10.373  0.9253 -0.2511 -1.6947
   89SAPS   C23 8582  -0.148   0.001  10.176  0.0134 -0.1229  0.4928
   89SAPS   H3R 8583  -0.064  -0.028  10.244  2.8314  2.4142 -1.7576
   89SAPS   H3S 8584  -0.122   0.092  10.117 -0.3860 -1.8008 -2.3117
   89SAPS   C24 8585  -0.173  -0.126  10.084 -0.3284  0.2028  1.2109
   89SAPS   H4R 8586  -0.194  -0.212  10.152 -0.2384 -0.2450  0.6721
   89SAPS   H4S 8587  -0.066  -0.141  10.056  0.2410  4.3464  0.8225
   89SAPS   C25 8588  -0.283  -0.110   9.980  0.5231 -0.2358  0.4262
   89SAPS   H5R 8589  -0.384  -0.143  10.008  0.3681 -2.3723 -2.4248
   89SAPS   C26 8590  -0.261  -0.095   9.850  0.0565 -0.2634 -0.1236
   89SAPS   H6R 8591  -0.349  -0.088   9.784 -0.0059 -1.5601 -0.1823
   89SAPS   C27 8592  -0.125  -0.090   9.783  0.2796  0.7379  0.5775
   89SAPS   H7R 8593  -0.127  -0.115   9.675  1.0867 -1.4848  1.0495
   89SAPS   H7S 8594  -0.059  -0.167   9.828  0.8949  0.3291 -0.9727
   89SAPS   C28 8595  -0.052   0.038   9.803  0.0421 -0.3279  0.2359
   89SAPS   H8R 8596   0.007   0.056   9.894  1.4167 -1.0927 -0.4901
   89SAPS   C29 8597  -0.048   0.142   9.713  0.0592 -0.5606 -0.0796
   89SAPS   H9R 8598   0.020   0.228   9.723 -2.3671  1.3165  1.0009
   89SAPS  C210 8599  -0.116   0.149   9.578  0.8208  0.8977 -0.0701
   89SAPS  H10R 8600  -0.149   0.251   9.547  0.9534  1.2139  0.8156
   89SAPS  H10S 8601  -0.209   0.089   9.568 -0.0593  2.5227 -1.9349
   89SAPS  C211 8602  -0.020   0.090   9.475 -0.3339 -0.0399  0.5678
   89SAPS  H11R 8603   0.035   0.001   9.508  1.9027  1.1391  0.1322
   89SAPS  C212 8604   0.003   0.136   9.352  0.4242  0.0956  0.0258
   89SAPS  H12R 8605   0.078   0.091   9.285 -0.5921 -0.4317 -0.7669
   89SAPS  C213 8606  -0.056   0.255   9.288 -0.0063  0.2496  0.6765
   89SAPS  H13R 8607   0.024   0.297   9.224 -1.0015 -0.0225 -0.7944
   89SAPS  H13S 8608  -0.087   0.332   9.361  0.8998 -0.3820  1.7540
   89SAPS  C214 8609  -0.182   0.230   9.203  0.6164  0.3206  0.4270
   89SAPS  H14R 8610  -0.275   0.218   9.260  0.4541  0.4898  0.1979
   89SAPS  C215 8611  -0.186   0.218   9.066  0.1782  0.6654 -0.0436
   89SAPS  H15R 8612  -0.280   0.198   9.014  0.6962  1.0885 -1.1641
   89SAPS  C216 8613  -0.062   0.222   8.982  0.3551  0.4327  0.4535
   89SAPS  H16R 8614  -0.072   0.138   8.910 -1.8574  2.4738 -1.7180
   89SAPS  H16S 8615   0.029   0.204   9.042  0.4926  0.2250  0.1803
   89SAPS  C217 8616  -0.040   0.352   8.902  0.8109  0.1855  0.3539
   89SAPS  H17R 8617  -0.122   0.368   8.828  1.2153  0.9856  0.0636
   89SAPS  H17S 8618   0.056   0.352   8.846  0.8699 -1.1438  0.4438
   89SAPS  C218 8619  -0.022   0.477   8.987 -0.8492 -0.0501  0.1070
   89SAPS  H18R 8620   0.079   0.461   9.031 -1.1021  2.6077  1.7695
   89SAPS  H18S 8621  -0.101   0.479   9.065  1.5351 -1.7901  2.6692
   89SAPS  C219 8622  -0.010   0.613   8.905  0.3380  0.2918 -0.1435
   89SAPS  H19R 8623   0.009   0.690   8.982  2.7088  0.4050 -0.8045
   89SAPS  H19S 8624  -0.112   0.643   8.873 -0.4475 -0.6822  1.4328
   89SAPS  C220 8625   0.073   0.607   8.778 -0.1213 -0.2041  0.0310
   89SAPS  H20R 8626   0.002   0.573   8.700 -0.7250  0.1724  0.4145
   89SAPS  H20S 8627   0.158   0.536   8.784 -1.0047 -1.4332 -1.5631
   89SAPS  H20T 8628   0.113   0.703   8.739  0.2407  0.2681  1.5484
   89SAPS   C33 8629   0.208   0.313  10.225  0.1402 -0.1385  0.0277
   89SAPS   H3X 8630   0.158   0.405  10.262 -1.2742 -0.1172 -1.8984
   89SAPS   H3Y 8631   0.138   0.228  10.209  0.3992 -0.1731 -0.9229
   89SAPS   C34 8632   0.297   0.345  10.101 -0.9386  0.7117  0.1270
   89SAPS   H4X 8633   0.381   0.273  10.099 -0.3263  1.4409 -1.1878
   89SAPS   H4Y 8634   0.336   0.449  10.101  3.0592 -0.6943  1.2336
   89SAPS   C35 8635   0.220   0.335   9.969  0.3025 -0.1530 -0.6166
   89SAPS   H5X 8636   0.145   0.416   9.968  1.6013  1.0824  1.0597
   89SAPS   H5Y 8637   0.157   0.243   9.962 -1.5420  0.8665  2.0663
   89SAPS   C36 8638   0.302   0.350   9.843  0.2906  0.0840 -0.3742
   89SAPS   H6X 8639   0.300   0.249   9.796  0.5769  0.3825 -1.0338
   89SAPS   H6Y 8640   0.404   0.386   9.868  0.0881 -0.4074  1.2158
   89SAPS   C37 8641   0.237   0.449   9.745 -0.2434  0.4883 -1.7730
   89SAPS   H7X 8642   0.268   0.547   9.786  0.5887 -1.3441  2.1827
   89SAPS   H7Y 8643   0.126   0.443   9.753 -0.1995  1.5961 -0.2485
   89SAPS   C38 8644   0.284   0.436   9.599 -1.0147  0.1935 -0.1159
   89SAPS   H8X 8645   0.256   0.523   9.535 -1.0419  0.6301  0.4825
   89SAPS   H8Y 8646   0.244   0.344   9.552  0.4306 -1.3563  1.6050
   89SAPS   C39 8647   0.433   0.407   9.590  0.3181 -0.4556  0.2918
   89SAPS   H9X 8648   0.448   0.297   9.598 -0.4105 -0.4860  1.2717
   89SAPS   H9Y 8649   0.494   0.468   9.660  2.8885 -0.8422 -1.5132
   89SAPS  C310 8650   0.488   0.444   9.451  0.0359  0.0404 -0.2658
   89SAPS  H10X 8651   0.472   0.553   9.437 -1.3644 -0.2335 -0.9971
   89SAPS  H10Y 8652   0.442   0.384   9.369  0.5247 -0.4106 -0.2117
   89SAPS  C311 8653   0.639   0.424   9.447 -0.1018 -0.4490 -0.5659
   89SAPS  H11X 8654   0.666   0.324   9.489 -0.4225 -0.4835 -0.4369
   89SAPS  H11Y 8655   0.681   0.487   9.528  0.2509  0.8481 -1.7396
   89SAPS  C312 8656   0.699   0.454   9.306 -0.3574 -0.3969 -0.3183
   89SAPS  H12X 8657   0.679   0.561   9.285  1.1453 -0.2194 -0.8964
   89SAPS  H12Y 8658   0.657   0.389   9.227 -0.8335  0.7236 -0.9940
   89SAPS  C313 8659   0.846   0.429   9.301  0.3968  0.2893 -0.0036
   89SAPS  H13X 8660   0.851   0.319   9.310 -0.8122  0.3329  1.3848
   89SAPS  H13Y 8661   0.897   0.469   9.392 -1.0529  1.0307  0.4952
   89SAPS  C314 8662   0.916   0.478   9.174  0.6426  0.0517  0.4910
   89SAPS  H14X 8663   0.915   0.589   9.179  0.5019  0.0301  1.0282
   89SAPS  H14Y 8664   0.855   0.443   9.088  1.5810 -0.6619  0.1024
   89SAPS  C315 8665   1.068   0.433   9.163 -0.2949 -0.7095 -0.0271
   89SAPS  H15X 8666   1.078   0.323   9.152 -1.2431 -0.8236  0.2685
   89SAPS  H15Y 8667   1.118   0.459   9.259 -1.0075  2.1173 -0.3544
   89SAPS  C316 8668   1.129   0.521   9.053 -0.8157 -0.4109  0.4486
   89SAPS  H16X 8669   1.094   0.626   9.063 -1.2492 -0.4486 -0.6280
   89SAPS  H16Y 8670   1.114   0.484   8.950  3.2463 -0.0705 -0.3660
   89SAPS  C317 8671   1.281   0.528   9.071  0.0492  0.2675 -0.2145
   89SAPS  H17X 8672   1.309   0.422   9.051 -1.4967 -0.1921 -0.0045
   89SAPS  H17Y 8673   1.325   0.560   9.168  0.5616 -1.1175  0.0320
   89SAPS  C318 8674   1.343   0.617   8.961  0.3000  1.2590  0.3519
   89SAPS  H18X 8675   1.421   0.682   9.007  3.0570 -2.5129  1.2916
   89SAPS  H18Y 8676   1.263   0.670   8.904  0.9893 -0.5854 -2.4554
   89SAPS  H18Z 8677   1.407   0.560   8.890  2.7756  0.9197  2.7777
   90SAPS     N 8678   1.786   6.704  10.627 -0.3317 -0.0312  0.5281
   90SAPS   HN1 8679   1.780   6.665  10.531 -0.4452 -1.7932  1.2452
   90SAPS   HN2 8680   1.703   6.762  10.649 -1.2137 -1.7786  1.8914
   90SAPS   HN3 8681   1.869   6.768  10.631  1.2086 -1.9553 -0.0533
   90SAPS   C12 8682   1.802   6.591  10.725 -0.7627  0.9111  0.3244
   90SAPS  H12A 8683   1.903   6.555  10.712 -0.9146  0.5075  0.2621
   90SAPS   C13 8684   1.800   6.638  10.873  0.1829 -0.2016  0.4350
   90SAPS  O13A 8685   1.772   6.752  10.904 -0.9087  0.2763  0.1949
   90SAPS  O13B 8686   1.854   6.551  10.955 -0.1386 -1.0455  0.0635
   90SAPS   C11 8687   1.700   6.483  10.695  0.2787  0.6541  0.3975
   90SAPS  H11A 8688   1.721   6.396  10.760 -0.2040 -0.9962 -1.6341
   90SAPS  H11B 8689   1.706   6.444  10.591 -0.2300  0.7941  0.3127
   90SAPS     P 8690   1.439   6.456  10.691  0.1070  0.3078  0.1106
   90SAPS   O13 8691   1.430   6.359  10.797 -0.4121  0.5316 -0.0670
   90SAPS   O14 8692   1.325   6.555  10.682  0.0970  0.0657 -0.7992
   90SAPS   O12 8693   1.568   6.543  10.706  0.1918 -0.2342 -0.0419
   90SAPS   O11 8694   1.450   6.368  10.555  0.0836  0.6021  0.1321
   90SAPS    C1 8695   1.448   6.439  10.425  0.0028 -0.9494  0.3236
   90SAPS    HA 8696   1.345   6.476  10.404 -0.7190 -2.4614  1.0878
   90SAPS    HB 8697   1.528   6.515  10.413 -0.7103 -0.0723  1.0228
   90SAPS    C2 8698   1.481   6.345  10.310  0.3126 -0.5258 -0.4821
   90SAPS    HS 8699   1.425   6.250  10.327  0.7285 -0.8086 -0.6607
   90SAPS   O21 8700   1.622   6.328  10.319 -0.0605  0.0576  0.0963
   90SAPS   C21 8701   1.662   6.214  10.377 -0.7148  0.7248 -0.2933
   90SAPS   O22 8702   1.594   6.117  10.401 -0.9263 -0.3683  0.2051
   90SAPS   C22 8703   1.820   6.223  10.393 -0.7779 -0.3029  0.0626
   90SAPS   H2R 8704   1.850   6.303  10.322  1.3267  0.7735  2.0752
   90SAPS   H2S 8705   1.839   6.255  10.498 -0.9141 -3.4072  1.0897
   90SAPS    C3 8706   1.439   6.406  10.177  0.0999  0.7643 -0.1284
   90SAPS    HX 8707   1.423   6.516  10.182 -0.3267  0.6412  1.6427
   90SAPS    HY 8708   1.336   6.372  10.154  0.1904  0.7855 -0.5642
   90SAPS   O31 8709   1.522   6.369  10.059  0.5819 -0.2682 -0.6249
   90SAPS   C31 8710   1.625   6.447  10.046  0.3887 -0.0039  0.3090
   90SAPS   O32 8711   1.670   6.530  10.126 -0.2914  0.1019 -0.1928
   90SAPS   C32 8712   1.679   6.418   9.908 -0.2073 -0.8851 -0.5375
   90SAPS   H2X 8713   1.691   6.308   9.900  3.6555 -0.5625 -0.1394
   90SAPS   H2Y 8714   1.778   6.466   9.922 -0.3366 -0.7554 -0.0705
   90SAPS   C23 8715   1.881   6.086  10.382  0.3351 -0.2838  0.4379
   90SAPS   H3R 8716   1.823   6.006  10.431  1.8270 -0.8602  1.2902
   90SAPS   H3S 8717   1.979   6.092  10.434  0.3291  1.5219  0.2873
   90SAPS   C24 8718   1.920   6.038  10.236 -0.4743  0.6327  0.4031
   90SAPS   H4R 8719   1.826   6.005  10.188  0.3684 -0.2014 -0.6914
   90SAPS   H4S 8720   1.994   5.956  10.246 -0.9020  0.2795  0.7311
   90SAPS   C25 8721   1.995   6.125  10.144 -0.8635  0.1477  0.0687
   90SAPS   H5R 8722   2.034   6.222  10.177  0.6750 -0.8535  1.2535
   90SAPS   C26 8723   1.983   6.111  10.005  0.0843 -0.8364  0.0244
   90SAPS   H6R 8724   2.042   6.180   9.942  2.0819 -1.5612  1.0554
   90SAPS   C27 8725   1.929   5.995   9.922  0.0067 -0.0180  0.4256
   90SAPS   H7R 8726   1.875   5.921   9.986 -0.1530 -0.2632  0.0100
   90SAPS   H7S 8727   2.013   5.932   9.884  0.2950 -0.6468  2.0304
   90SAPS   C28 8728   1.833   6.040   9.818 -0.5520  0.0423  0.4792
   90SAPS   H8R 8729   1.733   6.030   9.862 -1.4088  1.6777 -1.0377
   90SAPS   C29 8730   1.844   6.069   9.684 -0.3453  0.1608 -0.7497
   90SAPS   H9R 8731   1.751   6.098   9.634 -1.0443  1.2410  1.1032
   90SAPS  C210 8732   1.960   6.075   9.587  0.5413 -0.9163  0.6478
   90SAPS  H10R 8733   2.056   6.056   9.639  0.8091 -1.3916 -0.0237
   90SAPS  H10S 8734   1.969   6.181   9.553  0.8418 -0.7742  1.1657
   90SAPS  C211 8735   1.937   5.977   9.478  0.0478 -0.2051 -0.3357
   90SAPS  H11R 8736   1.965   5.875   9.508  1.1627  0.2321  0.1298
   90SAPS  C212 8737   1.875   6.007   9.359 -0.8337  0.3225 -0.8237
   90SAPS  H12R 8738   1.865   5.925   9.285  0.9212 -1.0302  0.3905
   90SAPS  C213 8739   1.810   6.140   9.324  0.8020  0.2366  0.1446
   90SAPS  H13R 8740   1.887   6.181   9.255 -0.8210  3.2520  0.0542
   90SAPS  H13S 8741   1.811   6.200   9.417  3.6400  0.0915  0.2571
   90SAPS  C214 8742   1.667   6.123   9.270 -0.3329  0.4990  0.1575
   90SAPS  H14R 8743   1.599   6.054   9.321  0.0646 -1.9713 -2.5174
   90SAPS  C215 8744   1.618   6.177   9.156 -0.1779  0.2180 -0.3441
   90SAPS  H15R 8745   1.513   6.152   9.135 -0.2212 -2.4304  2.6332
   90SAPS  C216 8746   1.683   6.261   9.047 -0.0042  0.1394  0.2639
   90SAPS  H16R 8747   1.784   6.295   9.078  0.9906  0.4309 -3.1741
   90SAPS  H16S 8748   1.622   6.354   9.048 -0.4101 -0.1194 -0.5259
   90SAPS  C217 8749   1.714   6.207   8.900  0.5545  0.1334  0.2354
   90SAPS  H17R 8750   1.762   6.107   8.912  2.1261  0.6402 -1.5976
   90SAPS  H17S 8751   1.790   6.279   8.863 -1.4352  2.6498  0.9100
   90SAPS  C218 8752   1.592   6.198   8.811 -0.1604  0.4424  0.3641
   90SAPS  H18R 8753   1.533   6.292   8.816  0.0386  0.5477  0.7054
   90SAPS  H18S 8754   1.521   6.120   8.845 -0.4639  0.9881  0.9963
   90SAPS  C219 8755   1.626   6.175   8.664 -0.1095  0.0436 -0.1197
   90SAPS  H19R 8756   1.705   6.247   8.635 -1.4088  0.6849 -2.1476
   90SAPS  H19S 8757   1.547   6.202   8.590 -2.2896 -0.6239  1.8744
   90SAPS  C220 8758   1.695   6.035   8.644 -0.4111 -0.4101  0.3793
   90SAPS  H20R 8759   1.797   6.028   8.687 -1.1545 -0.2602  2.2484
   90SAPS  H20S 8760   1.706   6.009   8.537 -2.5780 -0.3675  0.1130
   90SAPS  H20T 8761   1.624   5.966   8.696  0.1578  0.5155  2.4401
   90SAPS   C33 8762   1.611   6.477   9.791 -0.0394  0.6603  0.5347
   90SAPS   H3X 8763   1.613   6.587   9.808  1.5976  0.7236  0.0435
   90SAPS   H3Y 8764   1.505   6.447   9.773 -0.1145  1.0650  0.3001
   90SAPS   C34 8765   1.686   6.454   9.655  0.0277  0.7061 -0.0006
   90SAPS   H4X 8766   1.697   6.345   9.631  0.1499  0.2495  2.0655
   90SAPS   H4Y 8767   1.789   6.493   9.642  0.6912 -1.3539 -1.3440
   90SAPS   C35 8768   1.608   6.513   9.536 -0.3143 -0.5330  0.4700
   90SAPS   H5X 8769   1.582   6.617   9.565  1.8603 -0.3097  1.6971
   90SAPS   H5Y 8770   1.515   6.451   9.528 -1.9802  1.8022  1.1352
   90SAPS   C36 8771   1.672   6.503   9.397  0.4303 -0.0343  0.2167
   90SAPS   H6X 8772   1.600   6.522   9.315  0.3583 -1.8731 -0.1742
   90SAPS   H6Y 8773   1.710   6.399   9.382  0.0505  0.1605 -2.1592
   90SAPS   C37 8774   1.798   6.589   9.376  0.1444  0.3404  0.7060
   90SAPS   H7X 8775   1.867   6.564   9.459 -1.1245 -1.5979  1.2214
   90SAPS   H7Y 8776   1.764   6.693   9.394  2.7031  0.8874  2.5134
   90SAPS   C38 8777   1.865   6.583   9.235  0.2069  0.1114 -0.0107
   90SAPS   H8X 8778   1.884   6.476   9.212 -2.1994 -0.1819 -0.7771
   90SAPS   H8Y 8779   1.959   6.640   9.249  1.7998 -2.2289 -0.8637
   90SAPS   C39 8780   1.783   6.651   9.122 -0.6327 -0.8883  0.2189
   90SAPS   H9X 8781   1.785   6.760   9.145  0.4743 -0.0946 -3.3069
   90SAPS   H9Y 8782   1.679   6.614   9.118 -2.1688  3.1408  0.8327
   90SAPS  C310 8783   1.846   6.624   8.982 -0.3813 -0.2977  0.2057
   90SAPS  H10X 8784   1.839   6.514   8.976  0.7854 -0.2473 -3.0206
   90SAPS  H10Y 8785   1.950   6.658   9.001 -1.3630  1.8070  2.1147
   90SAPS  C311 8786   1.776   6.705   8.865 -0.5979  0.0987  0.3293
   90SAPS  H11X 8787   1.833   6.798   8.847  0.5117 -0.5907  0.2440
   90SAPS  H11Y 8788   1.671   6.722   8.900 -0.2466  0.9791  0.9585
   90SAPS  C312 8789   1.773   6.626   8.729 -0.2488  0.1327  0.4144
   90SAPS  H12X 8790   1.686   6.664   8.673  0.1945  1.5862  0.6858
   90SAPS  H12Y 8791   1.753   6.519   8.750  4.0597  0.0785  5.3205
   90SAPS  C313 8792   1.910   6.648   8.653  0.1509 -0.7395 -0.3314
   90SAPS  H13X 8793   1.925   6.563   8.582 -0.1285 -1.4796  0.4882
   90SAPS  H13Y 8794   1.990   6.635   8.729  1.0192  1.1642 -0.8995
   90SAPS  C314 8795   1.911   6.789   8.594  0.3125  0.5568  0.0580
   90SAPS  H14X 8796   1.930   6.857   8.681  2.3938  1.1862 -0.8727
   90SAPS  H14Y 8797   1.809   6.807   8.554  0.0014 -0.3791  0.3982
   90SAPS  C315 8798   2.022   6.827   8.497 -0.3017 -0.6295  0.8879
   90SAPS  H15X 8799   2.026   6.762   8.408 -0.1808 -0.8232  1.0336
   90SAPS  H15Y 8800   2.108   6.820   8.567 -0.1805 -1.0956  0.6944
   90SAPS  C316 8801   2.015   6.975   8.458  0.1353 -1.0407 -0.7315
   90SAPS  H16X 8802   2.017   7.038   8.549  0.5958 -0.4401 -1.1561
   90SAPS  H16Y 8803   1.925   7.011   8.402  0.9728 -0.9633 -2.0392
   90SAPS  C317 8804   2.134   6.999   8.367 -0.9124 -0.1472  0.0808
   90SAPS  H17X 8805   2.136   6.924   8.285  0.2079  0.7280 -0.7171
   90SAPS  H17Y 8806   2.227   6.986   8.427  0.2046  0.3274 -1.4955
   90SAPS  C318 8807   2.134   7.127   8.294  0.8438 -0.6063 -0.7697
   90SAPS  H18X 8808   2.028   7.152   8.272  0.8836  0.3624  0.1487
   90SAPS  H18Y 8809   2.199   7.134   8.204  0.5981  1.7529 -0.7930
   90SAPS  H18Z 8810   2.161   7.205   8.368  0.2086 -0.8583 -0.2671
   91SAPS     N 8811   6.220   2.853   5.837 -0.2932 -0.5204  0.0815
   91SAPS   HN1 8812   6.315   2.892   5.821 -1.6527  3.1153  0.3351
   91SAPS   HN2 8813   6.231   2.791   5.920  0.6426  0.2601  0.5572
   91SAPS   HN3 8814   6.192   2.801   5.752 -0.3804  4.0008 -2.8229
   91SAPS   C12 8815   6.134   2.963   5.876  0.0352 -0.6861  0.3004
   91SAPS  H12A 8816   6.134   3.031   5.792 -2.0846 -0.2054  0.6586
   91SAPS   C13 8817   5.999   2.903   5.907  0.1502 -0.3524  0.3469
   91SAPS  O13A 8818   5.951   2.813   5.832 -0.3347 -0.5342 -0.7143
   91SAPS  O13B 8819   5.936   2.938   6.009 -0.4692  0.2109 -0.3149
   91SAPS   C11 8820   6.192   3.037   5.995  0.7369  0.2935 -0.3429
   91SAPS  H11A 8821   6.190   2.967   6.082 -1.0733  0.6667 -0.0571
   91SAPS  H11B 8822   6.116   3.111   6.027 -1.0168 -1.3015 -0.7292
   91SAPS     P 8823   6.414   3.131   6.098 -0.2317 -0.5747  0.1852
   91SAPS   O13 8824   6.481   3.011   6.155  0.5412  0.2137 -0.4192
   91SAPS   O14 8825   6.504   3.232   6.041  0.4137 -0.2342  0.0633
   91SAPS   O12 8826   6.321   3.097   5.978 -0.0483  0.5344 -0.0701
   91SAPS   O11 8827   6.326   3.199   6.209 -0.0879  0.1222 -0.2506
   91SAPS    C1 8828   6.318   3.337   6.216 -0.5999 -0.2900  0.0375
   91SAPS    HA 8829   6.337   3.387   6.118 -0.8610 -0.0329  0.1168
   91SAPS    HB 8830   6.221   3.360   6.265 -0.9909 -2.4032  0.3155
   91SAPS    C2 8831   6.420   3.388   6.324  0.3049  0.4442  1.0514
   91SAPS    HS 8832   6.521   3.347   6.300  0.0337  0.3203  0.0907
   91SAPS   O21 8833   6.381   3.340   6.453 -0.1063  0.3832  1.3612
   91SAPS   C21 8834   6.475   3.337   6.540  0.3021  0.5120 -0.2325
   91SAPS   O22 8835   6.593   3.362   6.521 -0.5045 -0.5021  0.3877
   91SAPS   C22 8836   6.427   3.296   6.676  0.2800  0.2208 -1.2388
   91SAPS   H2R 8837   6.326   3.338   6.696  0.8944  2.2534 -2.2421
   91SAPS   H2S 8838   6.398   3.188   6.672 -0.4182  0.2674  1.4746
   91SAPS    C3 8839   6.420   3.541   6.311 -0.2308 -1.0168 -0.2847
   91SAPS    HX 8840   6.315   3.573   6.330 -0.3946 -0.5152 -1.9265
   91SAPS    HY 8841   6.437   3.573   6.206  2.4654  0.8553  0.6435
   91SAPS   O31 8842   6.510   3.621   6.401  0.1747  0.1636 -0.5485
   91SAPS   C31 8843   6.637   3.614   6.357  0.5286  0.0048  0.1379
   91SAPS   O32 8844   6.675   3.576   6.246 -0.5000  0.4781  0.8153
   91SAPS   C32 8845   6.728   3.690   6.455  0.1019 -0.1632  0.5556
   91SAPS   H2X 8846   6.828   3.645   6.442 -0.6929 -2.1448  1.0840
   91SAPS   H2Y 8847   6.686   3.656   6.553  0.5372  0.3762  0.9337
   91SAPS   C23 8848   6.520   3.325   6.795 -0.0423 -0.6480 -0.3232
   91SAPS   H3R 8849   6.623   3.302   6.761  0.9653  1.7135  1.0137
   91SAPS   H3S 8850   6.493   3.264   6.884 -1.6788  0.9555  0.2918
   91SAPS   C24 8851   6.511   3.477   6.834 -0.1579 -0.0692  0.1062
   91SAPS   H4R 8852   6.402   3.496   6.838  0.1754  1.9614  0.3896
   91SAPS   H4S 8853   6.563   3.526   6.748  0.0005 -0.6193 -0.1179
   91SAPS   C25 8854   6.585   3.503   6.963 -0.8470  1.4304  0.8461
   91SAPS   H5R 8855   6.691   3.474   6.961 -1.6633 -1.6145 -0.6902
   91SAPS   C26 8856   6.550   3.521   7.089 -0.0208  0.2272  0.1756
   91SAPS   H6R 8857   6.632   3.525   7.163  1.0635 -1.1089 -0.9326
   91SAPS   C27 8858   6.406   3.539   7.137 -0.1840 -0.4718  0.5429
   91SAPS   H7R 8859   6.333   3.490   7.069  1.3318 -1.7973 -0.1655
   91SAPS   H7S 8860   6.388   3.648   7.125 -0.0712 -0.3232  1.6658
   91SAPS   C28 8861   6.403   3.493   7.278  0.2706  0.1801  0.2603
   91SAPS   H8R 8862   6.367   3.391   7.295 -0.8258  0.3161 -1.1199
   91SAPS   C29 8863   6.426   3.567   7.389  0.3831  0.3653 -0.1485
   91SAPS   H9R 8864   6.412   3.520   7.488 -0.1131 -1.8383 -1.2324
   91SAPS  C210 8865   6.465   3.715   7.392  0.1516 -0.4180 -0.2979
   91SAPS  H10R 8866   6.390   3.776   7.447 -0.3954  1.1548 -2.6819
   91SAPS  H10S 8867   6.477   3.761   7.291 -0.0013  0.3861  0.0450
   91SAPS  C211 8868   6.592   3.746   7.458 -0.2614 -0.9809  0.0506
   91SAPS  H11R 8869   6.677   3.753   7.388  1.0651  2.0093  1.8243
   91SAPS  C212 8870   6.616   3.756   7.591 -0.4369 -0.2569 -0.5050
   91SAPS  H12R 8871   6.718   3.759   7.634 -0.2494 -3.0529 -0.6416
   91SAPS  C213 8872   6.519   3.720   7.698 -0.5916 -0.1372  0.1885
   91SAPS  H13R 8873   6.525   3.609   7.706  1.4398  0.0748  2.0725
   91SAPS  H13S 8874   6.413   3.730   7.667 -0.5470 -3.7372 -1.4217
   91SAPS  C214 8875   6.548   3.793   7.830  0.3647 -0.1685 -0.1273
   91SAPS  H14R 8876   6.616   3.879   7.823 -0.9032  0.9784  1.3046
   91SAPS  C215 8877   6.510   3.748   7.954 -0.2668 -0.2593 -0.3526
   91SAPS  H15R 8878   6.543   3.806   8.041 -1.3545  1.3581 -1.0025
   91SAPS  C216 8879   6.438   3.620   7.981  0.2068 -0.2336 -0.7758
   91SAPS  H16R 8880   6.501   3.530   7.994 -0.7201 -0.7593  0.1234
   91SAPS  H16S 8881   6.379   3.583   7.894  0.9803  1.6777 -2.1350
   91SAPS  C217 8882   6.324   3.639   8.092  0.5631 -0.3923  0.6768
   91SAPS  H17R 8883   6.267   3.544   8.086  0.1661 -0.2090  1.4527
   91SAPS  H17S 8884   6.270   3.732   8.063  0.6636 -0.9511 -1.3539
   91SAPS  C218 8885   6.390   3.641   8.224 -0.6214  0.1843  0.3635
   91SAPS  H18R 8886   6.448   3.735   8.239 -1.5316  0.7784  0.2239
   91SAPS  H18S 8887   6.462   3.558   8.238  1.5961  1.9656 -0.3045
   91SAPS  C219 8888   6.291   3.650   8.338 -0.0336 -0.7311  0.3336
   91SAPS  H19R 8889   6.228   3.559   8.344 -0.3260 -0.7341 -2.0741
   91SAPS  H19S 8890   6.220   3.727   8.300  2.8043  1.7249 -0.2362
   91SAPS  C220 8891   6.357   3.687   8.470  0.6196 -0.6500 -0.1717
   91SAPS  H20R 8892   6.284   3.721   8.546  1.2488  0.0957  0.1018
   91SAPS  H20S 8893   6.445   3.754   8.461  0.6994 -0.7928 -0.4586
   91SAPS  H20T 8894   6.397   3.590   8.509 -2.4164 -2.4733 -1.3821
   91SAPS   C33 8895   6.719   3.838   6.421 -0.5621 -0.4107 -0.4548
   91SAPS   H3X 8896   6.611   3.865   6.431 -0.5748 -0.6121 -0.0272
   91SAPS   H3Y 8897   6.756   3.858   6.318  0.3017  1.1211  0.1233
   91SAPS   C34 8898   6.797   3.928   6.514  0.3236  0.1820 -0.1633
   91SAPS   H4X 8899   6.906   3.911   6.496 -0.5245 -2.6297 -2.9644
   91SAPS   H4Y 8900   6.781   3.912   6.623  0.3315 -0.1890 -0.2190
   91SAPS   C35 8901   6.762   4.067   6.488 -0.1508 -0.0926 -0.6522
   91SAPS   H5X 8902   6.657   4.091   6.516  0.0825 -0.2240  0.3731
   91SAPS   H5Y 8903   6.768   4.088   6.379 -1.4173 -0.5906 -0.8367
   91SAPS   C36 8904   6.843   4.180   6.559 -0.2901  0.1046 -0.2020
   91SAPS   H6X 8905   6.815   4.277   6.512  3.4042  1.1699 -0.3606
   91SAPS   H6Y 8906   6.951   4.168   6.538 -0.0828 -0.0580  0.9386
   91SAPS   C37 8907   6.825   4.197   6.715 -0.5141 -0.1974  0.3559
   91SAPS   H7X 8908   6.863   4.109   6.772 -0.9136 -1.3393 -1.0982
   91SAPS   H7Y 8909   6.722   4.215   6.751 -1.6484 -1.5062 -2.0990
   91SAPS   C38 8910   6.904   4.315   6.771 -0.7730 -0.0971 -1.6059
   91SAPS   H8X 8911   6.895   4.406   6.709  1.2865  1.0812 -0.2598
   91SAPS   H8Y 8912   7.009   4.277   6.762 -1.0645 -1.5850  0.7203
   91SAPS   C39 8913   6.883   4.346   6.922 -0.2233 -0.3981  0.6276
   91SAPS   H9X 8914   6.919   4.269   6.993 -0.3592 -1.3929 -0.3686
   91SAPS   H9Y 8915   6.772   4.354   6.935 -0.2935 -0.3325 -0.0004
   91SAPS  C310 8916   6.939   4.480   6.954 -0.1518 -0.2727 -0.4434
   91SAPS  H10X 8917   6.876   4.564   6.918  0.8804  0.0212 -1.5871
   91SAPS  H10Y 8918   7.046   4.478   6.923 -0.2536 -0.9287 -0.7614
   91SAPS  C311 8919   6.956   4.517   7.102 -0.2966 -0.8500 -0.3439
   91SAPS  H11X 8920   7.017   4.609   7.106  2.3506 -2.6276  1.5120
   91SAPS  H11Y 8921   7.007   4.437   7.159 -2.8946 -0.4051  2.7004
   91SAPS  C312 8922   6.827   4.523   7.193  0.1595  0.8868 -0.2348
   91SAPS  H12X 8923   6.778   4.423   7.191 -1.4275  1.6210  1.0168
   91SAPS  H12Y 8924   6.758   4.596   7.147 -1.5704 -0.0375  0.8152
   91SAPS  C313 8925   6.868   4.562   7.334  0.1965 -1.0875  0.1188
   91SAPS  H13X 8926   6.919   4.660   7.327  1.0934 -1.6121 -1.0121
   91SAPS  H13Y 8927   6.951   4.496   7.370  1.1806  0.0263 -0.0753
   91SAPS  C314 8928   6.755   4.564   7.435  0.3958  0.0169 -0.8156
   91SAPS  H14X 8929   6.717   4.460   7.447 -0.0534  0.5200  2.7908
   91SAPS  H14Y 8930   6.670   4.630   7.407 -0.0806  0.4860  1.6222
   91SAPS  C315 8931   6.797   4.626   7.570 -0.0518  0.2815  1.0014
   91SAPS  H15X 8932   6.717   4.635   7.647 -0.5307 -0.2176  0.5670
   91SAPS  H15Y 8933   6.827   4.729   7.541 -2.7255  1.0222  0.7007
   91SAPS  C316 8934   6.913   4.560   7.642 -0.6010 -0.3302  0.0220
   91SAPS  H16X 8935   7.009   4.576   7.589  0.2555  1.2836  2.0024
   91SAPS  H16Y 8936   6.895   4.450   7.640  1.1465 -0.6160 -1.2741
   91SAPS  C317 8937   6.923   4.596   7.783  0.5764  0.6853 -0.2033
   91SAPS  H17X 8938   6.832   4.568   7.841  1.0693 -2.6571 -0.8969
   91SAPS  H17Y 8939   6.935   4.705   7.802 -0.3056  0.9067 -0.9122
   91SAPS  C318 8940   7.035   4.522   7.859 -0.6214  0.3286 -0.0892
   91SAPS  H18X 8941   7.027   4.411   7.851 -1.8693  0.5456 -2.2701
   91SAPS  H18Y 8942   7.047   4.562   7.961  1.4643  0.1128 -0.2270
   91SAPS  H18Z 8943   7.124   4.548   7.797  0.7187  1.3742  2.2324
   92SAPS     N 8944   6.364   2.338   6.258 -0.2653  0.2186 -0.0291
   92SAPS   HN1 8945   6.398   2.286   6.341  1.2431 -0.9948 -1.3520
   92SAPS   HN2 8946   6.446   2.367   6.200 -0.2141 -0.5657 -0.3691
   92SAPS   HN3 8947   6.313   2.420   6.294 -1.0505 -0.5726  0.6856
   92SAPS   C12 8948   6.271   2.249   6.182 -0.3078  0.2810  0.0494
   92SAPS  H12A 8949   6.180   2.252   6.241 -0.3235  0.5092  0.0140
   92SAPS   C13 8950   6.230   2.306   6.042 -0.1798  0.5510 -0.2536
   92SAPS  O13A 8951   6.291   2.398   5.991  0.4751 -0.2268 -0.0848
   92SAPS  O13B 8952   6.126   2.254   5.990 -0.2847 -0.3532  0.3447
   92SAPS   C11 8953   6.330   2.116   6.164  0.1061  0.3640  0.9904
   92SAPS  H11A 8954   6.426   2.129   6.109 -0.4241  0.2005  0.0348
   92SAPS  H11B 8955   6.258   2.063   6.098  0.8942  0.7547 -0.2014
   92SAPS     P 8956   6.240   1.998   6.378 -0.4821  0.1252 -0.0672
   92SAPS   O13 8957   6.209   2.102   6.477 -0.6209  0.0044  0.8191
   92SAPS   O14 8958   6.138   1.948   6.279  0.2458  0.1122  0.0660
   92SAPS   O12 8959   6.357   2.050   6.290 -0.4902 -0.7597 -0.0183
   92SAPS   O11 8960   6.299   1.870   6.452  0.3368 -0.2484 -0.0948
   92SAPS    C1 8961   6.416   1.848   6.525 -0.3567  0.5343 -0.0826
   92SAPS    HA 8962   6.463   1.760   6.475 -1.1812 -1.3794  2.4044
   92SAPS    HB 8963   6.489   1.931   6.513  3.2415 -1.7433  4.4219
   92SAPS    C2 8964   6.405   1.805   6.673  0.8543 -0.5503  0.6489
   92SAPS    HS 8965   6.326   1.727   6.665  0.2243  0.1914 -0.5085
   92SAPS   O21 8966   6.364   1.928   6.744 -0.0613  0.2758  0.3252
   92SAPS   C21 8967   6.233   1.936   6.755  0.2908 -0.0725 -0.5896
   92SAPS   O22 8968   6.158   1.858   6.699 -0.3713  0.2218  0.3398
   92SAPS   C22 8969   6.194   2.059   6.847 -0.6392  0.9546  0.2814
   92SAPS   H2R 8970   6.289   2.080   6.901 -0.3723 -0.3503  0.3398
   92SAPS   H2S 8971   6.170   2.142   6.777 -0.7355  1.4265  0.8783
   92SAPS    C3 8972   6.537   1.746   6.728 -0.4173 -0.3958 -0.3311
   92SAPS    HX 8973   6.622   1.817   6.713 -0.6421 -0.4315 -1.8441
   92SAPS    HY 8974   6.543   1.661   6.656  2.2135 -0.5717  0.0518
   92SAPS   O31 8975   6.523   1.689   6.857 -0.1391  0.0255  0.1025
   92SAPS   C31 8976   6.559   1.777   6.957 -0.4318 -0.8979  0.6836
   92SAPS   O32 8977   6.618   1.884   6.942  0.1457  0.9164  0.1176
   92SAPS   C32 8978   6.510   1.723   7.090 -0.3609 -0.4289 -0.1234
   92SAPS   H2X 8979   6.569   1.631   7.112  0.3438  0.0227 -0.1109
   92SAPS   H2Y 8980   6.404   1.697   7.073 -0.3625 -0.9645  0.7111
   92SAPS   C23 8981   6.069   2.030   6.929  0.7007  0.1074 -0.5027
   92SAPS   H3R 8982   5.983   2.018   6.860  0.8907 -0.1872 -0.6915
   92SAPS   H3S 8983   6.044   2.120   6.989  2.6055  1.0315 -1.0370
   92SAPS   C24 8984   6.081   1.909   7.025 -0.2100  0.1840  0.1921
   92SAPS   H4R 8985   6.124   1.821   6.973  1.3771  0.2348  1.3633
   92SAPS   H4S 8986   5.983   1.887   7.073  0.7452 -1.4916  1.4118
   92SAPS   C25 8987   6.176   1.937   7.137  0.1584 -0.1748 -0.0149
   92SAPS   H5R 8988   6.280   1.938   7.103  0.0962  3.6221 -0.2595
   92SAPS   C26 8989   6.155   1.972   7.266  0.5869 -0.1610  0.3339
   92SAPS   H6R 8990   6.240   1.969   7.336  1.7459 -3.0072 -1.1447
   92SAPS   C27 8991   6.018   1.983   7.330  0.1470  0.3240  0.3359
   92SAPS   H7R 8992   6.028   1.911   7.414 -0.4822  0.5955  0.6473
   92SAPS   H7S 8993   5.947   1.938   7.258  3.1974 -1.5882 -1.6051
   92SAPS   C28 8994   5.979   2.114   7.389 -1.1784 -0.1395  0.3119
   92SAPS   H8R 8995   5.983   2.204   7.327  1.0123 -0.4882 -0.0784
   92SAPS   C29 8996   5.952   2.131   7.523  0.4061  0.4722 -0.4553
   92SAPS   H9R 8997   5.940   2.235   7.554 -2.4633 -0.1873  0.8124
   92SAPS  C210 8998   5.944   2.020   7.626 -0.0106 -0.2390 -0.7298
   92SAPS  H10R 8999   5.884   1.935   7.586  1.8204 -2.3741  0.9120
   92SAPS  H10S 9000   5.881   2.057   7.710 -0.0517 -0.2730 -0.7459
   92SAPS  C211 9001   6.083   1.979   7.677  0.2443  0.4862  0.3628
   92SAPS  H11R 9002   6.155   1.957   7.596 -0.2999 -0.4772  0.1416
   92SAPS  C212 9003   6.124   1.981   7.808  0.4332  0.2286  0.4716
   92SAPS  H12R 9004   6.231   1.968   7.828  0.6449  1.8764  0.4524
   92SAPS  C213 9005   6.025   2.015   7.917  0.3007  0.8902 -0.9341
   92SAPS  H13R 9006   5.936   1.949   7.908  0.6186  0.2383  0.5216
   92SAPS  H13S 9007   5.989   2.117   7.892  0.1066  1.3862  1.2524
   92SAPS  C214 9008   6.084   2.014   8.056  0.0155 -0.5323  0.1800
   92SAPS  H14R 9009   6.190   2.042   8.064 -0.3230  1.4473 -1.7166
   92SAPS  C215 9010   6.020   1.977   8.170  0.2272 -0.1281  0.5012
   92SAPS  H15R 9011   6.064   2.013   8.264 -1.0814  0.6092  0.8551
   92SAPS  C216 9012   5.873   1.939   8.178 -0.2147 -0.0085 -0.9553
   92SAPS  H16R 9013   5.860   1.836   8.137  1.9394 -0.2888 -1.0101
   92SAPS  H16S 9014   5.807   1.997   8.111  0.9643 -1.2180 -3.2353
   92SAPS  C217 9015   5.825   1.925   8.327 -0.5392  0.5705  0.3648
   92SAPS  H17R 9016   5.725   1.879   8.340  0.2953 -2.0447 -1.9792
   92SAPS  H17S 9017   5.826   2.028   8.371  2.5002  1.5114 -1.7034
   92SAPS  C218 9018   5.923   1.840   8.414 -0.2436 -0.7336 -0.1530
   92SAPS  H18R 9019   6.026   1.883   8.417  0.1189 -1.3644 -2.4979
   92SAPS  H18S 9020   5.928   1.745   8.357  1.7317  0.1465 -1.5018
   92SAPS  C219 9021   5.861   1.816   8.554 -0.1259  0.1911 -0.6270
   92SAPS  H19R 9022   5.910   1.720   8.579 -0.0298  0.6924  1.1478
   92SAPS  H19S 9023   5.752   1.801   8.566  0.0011 -2.1466 -2.1794
   92SAPS  C220 9024   5.891   1.920   8.653  0.1334 -0.1594 -0.5972
   92SAPS  H20R 9025   5.871   1.889   8.758 -2.6326  0.8431 -0.7717
   92SAPS  H20S 9026   5.827   2.009   8.632  0.2393  0.4118  1.3937
   92SAPS  H20T 9027   5.995   1.956   8.642 -0.0505  0.8126  0.6596
   92SAPS   C33 9028   6.530   1.835   7.199  0.6999  1.0324  0.1770
   92SAPS   H3X 9029   6.484   1.934   7.181  3.0485  2.2900  0.9154
   92SAPS   H3Y 9030   6.637   1.846   7.224  0.5873 -0.5181  1.4950
   92SAPS   C34 9031   6.465   1.793   7.333 -0.5656 -0.4633  0.1427
   92SAPS   H4X 9032   6.503   1.695   7.368 -0.4288  0.1341  1.7191
   92SAPS   H4Y 9033   6.358   1.768   7.314 -0.5726 -1.2776  1.2104
   92SAPS   C35 9034   6.489   1.889   7.454  0.0820  0.0293  0.3007
   92SAPS   H5X 9035   6.432   1.978   7.419  1.1193  0.1300 -1.1811
   92SAPS   H5Y 9036   6.596   1.917   7.460  0.0223  0.5250 -0.8267
   92SAPS   C36 9037   6.448   1.826   7.588  0.0917 -0.0125  0.0654
   92SAPS   H6X 9038   6.505   1.732   7.601  1.7544  0.9874  0.1577
   92SAPS   H6Y 9039   6.343   1.792   7.578 -0.5608  1.3004  2.0761
   92SAPS   C37 9040   6.482   1.915   7.704  0.1422  0.1098  0.2207
   92SAPS   H7X 9041   6.415   1.892   7.789 -0.0074  2.4190  0.7771
   92SAPS   H7Y 9042   6.464   2.021   7.674 -0.6711 -0.7757 -2.5615
   92SAPS   C38 9043   6.627   1.901   7.765  0.6397 -0.1533  0.1986
   92SAPS   H8X 9044   6.703   1.938   7.693  1.0973  0.2789  0.9090
   92SAPS   H8Y 9045   6.653   1.793   7.771  2.0453  0.1400 -0.3733
   92SAPS   C39 9046   6.641   1.958   7.908 -0.0148 -0.3677 -0.0632
   92SAPS   H9X 9047   6.593   2.057   7.919 -1.3856 -0.8381 -1.4764
   92SAPS   H9Y 9048   6.750   1.950   7.923 -0.3024 -1.3580  1.5891
   92SAPS  C310 9049   6.582   1.868   8.025  0.3145  0.3845 -0.3758
   92SAPS  H10X 9050   6.640   1.774   8.029  0.8620  0.7739  0.9563
   92SAPS  H10Y 9051   6.473   1.854   8.009  0.1868 -0.8975  1.5296
   92SAPS  C311 9052   6.602   1.929   8.163 -0.6360  0.0306 -0.4760
   92SAPS  H11X 9053   6.588   2.039   8.151 -0.7754 -0.0960 -1.5051
   92SAPS  H11Y 9054   6.700   1.900   8.205 -2.1118 -3.1109  0.9927
   92SAPS  C312 9055   6.490   1.874   8.254  0.5431  0.9232 -0.7930
   92SAPS  H12X 9056   6.500   1.764   8.256 -1.7303  0.7052  2.4726
   92SAPS  H12Y 9057   6.390   1.902   8.214  1.2252  1.4521 -2.1853
   92SAPS  C313 9058   6.499   1.903   8.407  0.4382 -0.3059 -0.3851
   92SAPS  H13X 9059   6.431   1.840   8.469  0.2346  0.8373  0.5764
   92SAPS  H13Y 9060   6.473   2.009   8.428  0.9571  0.0769 -1.6206
   92SAPS  C314 9061   6.641   1.886   8.469  0.6712  0.5974  0.2946
   92SAPS  H14X 9062   6.708   1.966   8.432  1.2454  0.4962  1.1124
   92SAPS  H14Y 9063   6.682   1.791   8.429  0.5209  1.2297 -1.4494
   92SAPS  C315 9064   6.649   1.875   8.622 -0.0225 -0.6970  0.5237
   92SAPS  H15X 9065   6.751   1.849   8.660 -0.4095 -2.6267  0.2738
   92SAPS  H15Y 9066   6.585   1.791   8.657  1.1857 -1.2047  1.5880
   92SAPS  C316 9067   6.612   2.004   8.693  0.4136 -0.6746 -0.7280
   92SAPS  H16X 9068   6.508   2.033   8.669 -0.1107 -1.2952  0.7124
   92SAPS  H16Y 9069   6.673   2.090   8.657  2.2170 -1.1073  1.1977
   92SAPS  C317 9070   6.639   1.990   8.849  0.0608 -0.0909 -0.1628
   92SAPS  H17X 9071   6.747   1.967   8.857  0.4115  1.5485  0.0926
   92SAPS  H17Y 9072   6.563   1.916   8.880 -0.7983  0.8244 -0.0379
   92SAPS  C318 9073   6.615   2.126   8.914 -0.5011  0.6430  0.6011
   92SAPS  H18X 9074   6.506   2.142   8.927 -0.6307 -0.4736  0.9908
   92SAPS  H18Y 9075   6.657   2.212   8.858 -1.1605  1.4969  1.4176
   92SAPS  H18Z 9076   6.663   2.119   9.013  1.9327  2.2501 -0.4248
   93SAPS     N 9077   0.615   2.240   6.225 -0.0815  0.0313  0.1229
   93SAPS   HN1 9078   0.529   2.286   6.262  0.3198  0.9774 -0.0957
   93SAPS   HN2 9079   0.690   2.230   6.296  1.1912 -0.4760 -1.2728
   93SAPS   HN3 9080   0.648   2.305   6.151  1.0212  0.2767  0.8098
   93SAPS   C12 9081   0.586   2.108   6.164 -0.3671 -0.3168  0.4615
   93SAPS  H12A 9082   0.503   2.131   6.098 -0.6805 -0.1211  0.9235
   93SAPS   C13 9083   0.696   2.039   6.081 -0.6628  0.4445 -0.4779
   93SAPS  O13A 9084   0.803   2.100   6.059 -0.4679 -0.3014 -0.2563
   93SAPS  O13B 9085   0.673   1.924   6.040 -0.9240 -0.3722  0.2369
   93SAPS   C11 9086   0.523   2.002   6.265 -0.2943 -0.1120 -0.3713
   93SAPS  H11A 9087   0.603   1.997   6.342 -0.9831  1.1848  0.4320
   93SAPS  H11B 9088   0.514   1.903   6.214 -1.8594 -1.2622  2.0489
   93SAPS     P 9089   0.336   1.975   6.454 -0.2369  0.0908  0.3970
   93SAPS   O13 9090   0.201   2.035   6.458  0.5606 -0.0888 -0.1592
   93SAPS   O14 9091   0.353   1.829   6.455 -0.1392 -0.3108 -0.0151
   93SAPS   O12 9092   0.408   2.041   6.328  0.1012 -0.1929 -0.5460
   93SAPS   O11 9093   0.429   2.036   6.563 -0.5029 -0.2163  0.2505
   93SAPS    C1 9094   0.420   2.177   6.599 -0.5584  0.1407  0.2509
   93SAPS    HA 9095   0.523   2.216   6.587 -0.9794  1.6514  1.4175
   93SAPS    HB 9096   0.353   2.234   6.532 -0.0911 -0.9091 -1.1456
   93SAPS    C2 9097   0.371   2.206   6.747 -0.4337 -0.3002  0.0623
   93SAPS    HS 9098   0.345   2.314   6.757  0.7204 -0.1405  1.5863
   93SAPS   O21 9099   0.473   2.164   6.839 -0.0929  0.2266  0.1441
   93SAPS   C21 9100   0.565   2.255   6.869  0.2926  0.8286  0.2385
   93SAPS   O22 9101   0.568   2.364   6.814 -0.2697 -0.2303 -1.2334
   93SAPS   C22 9102   0.671   2.197   6.959  0.5613  0.3664 -0.0449
   93SAPS   H2R 9103   0.712   2.102   6.919  0.4454  1.4064 -2.7416
   93SAPS   H2S 9104   0.757   2.267   6.966  0.2465  0.8877 -1.2658
   93SAPS    C3 9105   0.235   2.131   6.774 -0.8869  0.1576 -0.2452
   93SAPS    HX 9106   0.243   2.026   6.738  0.1955  0.0298  0.3261
   93SAPS    HY 9107   0.159   2.189   6.719 -0.0442  1.3815 -0.1457
   93SAPS   O31 9108   0.191   2.140   6.914 -0.1454 -0.6184 -0.6073
   93SAPS   C31 9109   0.179   2.019   6.980  0.5642 -0.3861  0.3498
   93SAPS   O32 9110   0.197   1.911   6.930 -0.0404  0.1971 -0.1953
   93SAPS   C32 9111   0.119   2.029   7.125  0.3321 -0.7455  0.0458
   93SAPS   H2X 9112   0.022   1.975   7.126  0.3073 -0.6942  0.2844
   93SAPS   H2Y 9113   0.110   2.139   7.141 -4.1761 -0.9939 -0.3070
   93SAPS   C23 9114   0.593   2.163   7.091  0.5241  0.6229 -0.0691
   93SAPS   H3R 9115   0.653   2.086   7.142 -0.0523  0.2854  0.1067
   93SAPS   H3S 9116   0.501   2.107   7.062 -2.5098  4.0236  2.5561
   93SAPS   C24 9117   0.580   2.284   7.181  0.2384 -0.4989 -0.4303
   93SAPS   H4R 9118   0.517   2.362   7.132  0.6309  0.2962  0.3125
   93SAPS   H4S 9119   0.677   2.336   7.193 -0.5025  0.9234 -0.4132
   93SAPS   C25 9120   0.513   2.262   7.314 -0.0894  0.3395 -0.7557
   93SAPS   H5R 9121   0.415   2.215   7.299  1.7087 -4.4793  1.7142
   93SAPS   C26 9122   0.560   2.285   7.436  0.2512 -0.5512 -0.4641
   93SAPS   H6R 9123   0.499   2.249   7.520 -1.5919  1.5811 -0.8434
   93SAPS   C27 9124   0.698   2.341   7.458  0.1098 -0.2789 -0.1790
   93SAPS   H7R 9125   0.694   2.452   7.449  1.7291 -0.3946 -2.9867
   93SAPS   H7S 9126   0.765   2.318   7.373  1.5129 -1.9008  1.3316
   93SAPS   C28 9127   0.767   2.296   7.581  0.8476  0.2137  0.0492
   93SAPS   H8R 9128   0.756   2.188   7.598 -2.5512  0.8414  2.4864
   93SAPS   C29 9129   0.843   2.368   7.668 -0.1916  0.3293  0.5401
   93SAPS   H9R 9130   0.887   2.328   7.760  0.4997  0.8739  0.4569
   93SAPS  C210 9131   0.881   2.515   7.656 -0.3372  0.2316  0.0328
   93SAPS  H10R 9132   0.822   2.573   7.582 -2.2475 -0.4737  0.9823
   93SAPS  H10S 9133   0.985   2.514   7.616 -0.8406 -0.0938 -1.3045
   93SAPS  C211 9134   0.884   2.604   7.782 -0.7387  0.3302 -0.2105
   93SAPS  H11R 9135   0.967   2.677   7.783 -1.8279  1.6110 -0.9433
   93SAPS  C212 9136   0.794   2.599   7.882 -0.3028  0.2291  0.0549
   93SAPS  H12R 9137   0.815   2.673   7.961 -1.3968  0.3225  0.2664
   93SAPS  C213 9138   0.667   2.514   7.897  0.3962 -0.3618  0.7321
   93SAPS  H13R 9139   0.661   2.481   8.003  0.3662 -1.9282  0.2591
   93SAPS  H13S 9140   0.675   2.419   7.839  2.3578  0.9412 -1.2254
   93SAPS  C214 9141   0.546   2.588   7.852 -0.0971  0.9179  0.3347
   93SAPS  H14R 9142   0.533   2.603   7.744 -2.2623 -1.0538  0.2625
   93SAPS  C215 9143   0.449   2.627   7.939  0.2495  0.3659  0.5004
   93SAPS  H15R 9144   0.384   2.708   7.904  0.7377  0.0082 -1.2875
   93SAPS  C216 9145   0.438   2.600   8.087 -0.3463 -0.2756 -0.0449
   93SAPS  H16R 9146   0.463   2.492   8.095 -2.0003 -0.5676  1.3399
   93SAPS  H16S 9147   0.335   2.614   8.124 -0.9132 -2.0286 -0.8923
   93SAPS  C217 9148   0.528   2.678   8.192  0.3818 -0.2130  0.0903
   93SAPS  H17R 9149   0.517   2.780   8.148  1.3285 -0.9262 -1.8776
   93SAPS  H17S 9150   0.629   2.632   8.193  1.0865  1.1373 -2.5457
   93SAPS  C218 9151   0.470   2.668   8.336  0.7940 -0.5245 -1.0129
   93SAPS  H18R 9152   0.479   2.566   8.380  1.6708 -0.1456 -0.3153
   93SAPS  H18S 9153   0.365   2.704   8.333  1.0888  0.2504 -2.2965
   93SAPS  C219 9154   0.544   2.769   8.425 -0.1845 -0.0873  0.6559
   93SAPS  H19R 9155   0.569   2.858   8.364 -2.7495 -0.7728 -1.4401
   93SAPS  H19S 9156   0.642   2.719   8.444  0.2825  0.4070 -0.3959
   93SAPS  C220 9157   0.470   2.809   8.559 -0.7059  0.0352 -0.5844
   93SAPS  H20R 9158   0.373   2.859   8.536 -0.8936 -0.7236 -1.4930
   93SAPS  H20S 9159   0.543   2.883   8.598 -1.8180  0.9870 -0.2774
   93SAPS  H20T 9160   0.464   2.728   8.634 -1.7826  0.5630 -0.0792
   93SAPS   C33 9161   0.220   1.964   7.230  0.1178 -0.7616  1.2939
   93SAPS   H3X 9162   0.315   2.021   7.222  1.3252 -2.6888  1.5321
   93SAPS   H3Y 9163   0.247   1.863   7.194 -2.4241 -1.1362  0.3850
   93SAPS   C34 9164   0.180   1.960   7.372  0.0123  1.0266 -0.3018
   93SAPS   H4X 9165   0.240   1.891   7.435 -0.0432 -0.8536 -2.2511
   93SAPS   H4Y 9166   0.077   1.920   7.387  0.4625 -0.0988 -0.1732
   93SAPS   C35 9167   0.194   2.097   7.439  0.5063 -0.0050  0.2393
   93SAPS   H5X 9168   0.132   2.177   7.393 -0.1293 -0.7786 -0.2726
   93SAPS   H5Y 9169   0.301   2.127   7.445 -0.4171  3.2371  1.4169
   93SAPS   C36 9170   0.142   2.094   7.591 -0.0239 -0.1418 -0.9206
   93SAPS   H6X 9171   0.174   1.998   7.637 -0.9137 -0.7864 -1.6307
   93SAPS   H6Y 9172   0.031   2.091   7.587 -0.0687  0.4221 -0.2865
   93SAPS   C37 9173   0.182   2.227   7.664 -0.3297 -0.1886  0.1450
   93SAPS   H7X 9174   0.147   2.309   7.598  0.8799 -1.1352 -1.6975
   93SAPS   H7Y 9175   0.292   2.229   7.658 -0.3142  3.2074  0.5653
   93SAPS   C38 9176   0.145   2.233   7.810 -0.3959  0.0648 -0.8726
   93SAPS   H8X 9177   0.191   2.151   7.870  0.8938 -0.1458 -2.1385
   93SAPS   H8Y 9178   0.036   2.223   7.829 -0.3156  1.9855  0.8875
   93SAPS   C39 9179   0.181   2.372   7.873 -0.2693  0.3955  0.2047
   93SAPS   H9X 9180   0.140   2.455   7.812 -0.4702 -0.3425 -0.6750
   93SAPS   H9Y 9181   0.292   2.373   7.865 -0.3533  1.4599 -0.9867
   93SAPS  C310 9182   0.146   2.390   8.024 -0.5838  0.9246  0.6690
   93SAPS  H10X 9183   0.036   2.390   8.038 -1.1106  0.9048 -3.0807
   93SAPS  H10Y 9184   0.179   2.491   8.058  0.1812  0.7052  0.5923
   93SAPS  C311 9185   0.206   2.288   8.125  0.3466 -0.4435 -0.3048
   93SAPS  H11X 9186   0.313   2.275   8.098 -0.2491 -0.1188 -3.0281
   93SAPS  H11Y 9187   0.153   2.198   8.088  2.3425 -1.5866 -0.4740
   93SAPS  C312 9188   0.192   2.321   8.272 -0.7013 -0.2474  0.4092
   93SAPS  H12X 9189   0.090   2.363   8.285 -0.4130  0.3649  0.7550
   93SAPS  H12Y 9190   0.268   2.393   8.311 -2.0655  2.1399 -1.1921
   93SAPS  C313 9191   0.196   2.203   8.371 -0.3540 -0.4322 -0.5823
   93SAPS  H13X 9192   0.286   2.140   8.356 -0.5927 -0.3086 -2.6596
   93SAPS  H13Y 9193   0.102   2.149   8.345 -1.0817  0.2660  0.5428
   93SAPS  C314 9194   0.194   2.248   8.524  0.3598  0.1241  0.1595
   93SAPS  H14X 9195   0.094   2.286   8.553  0.1893 -1.1225  1.2201
   93SAPS  H14Y 9196   0.265   2.330   8.548  0.2768  0.5879 -1.1110
   93SAPS  C315 9197   0.217   2.130   8.621 -0.0377 -0.1223  0.5953
   93SAPS  H15X 9198   0.318   2.088   8.601 -0.6204 -1.8052  1.1042
   93SAPS  H15Y 9199   0.141   2.051   8.604  0.3869 -1.0801  2.9349
   93SAPS  C316 9200   0.218   2.186   8.764 -0.1128  0.2619  0.0250
   93SAPS  H16X 9201   0.116   2.221   8.789  0.3629  0.3757  1.8500
   93SAPS  H16Y 9202   0.295   2.266   8.771  1.5039 -1.3744  1.7090
   93SAPS  C317 9203   0.265   2.078   8.863 -0.1259  0.6035  0.6358
   93SAPS  H17X 9204   0.374   2.063   8.845 -0.7521 -1.4536 -1.7613
   93SAPS  H17Y 9205   0.207   1.985   8.848  1.5084 -0.3625  0.1609
   93SAPS  C318 9206   0.250   2.134   8.999  0.0062  0.0441  0.0709
   93SAPS  H18X 9207   0.318   2.076   9.066  0.3379  0.0199 -0.2849
   93SAPS  H18Y 9208   0.143   2.130   9.029 -0.4296 -2.0340 -1.6532
   93SAPS  H18Z 9209   0.273   2.241   9.017 -2.0605  0.2173  1.7866
   94SAPS     N 9210   0.313   4.773   5.726  0.3359  0.1772 -0.1846
   94SAPS   HN1 9211   0.228   4.733   5.769  0.2758 -0.1985 -0.6388
   94SAPS   HN2 9212   0.355   4.829   5.802  1.0813  0.1755 -0.5848
   94SAPS   HN3 9213   0.275   4.832   5.649  1.0446  0.4785 -0.3119
   94SAPS   C12 9214   0.403   4.665   5.674 -0.3367  0.2224 -0.4422
   94SAPS  H12A 9215   0.394   4.582   5.744  2.7209  0.7069  0.5783
   94SAPS   C13 9216   0.380   4.609   5.535  0.0536 -0.0271 -0.2728
   94SAPS  O13A 9217   0.279   4.648   5.467 -0.4371  0.3723  0.0503
   94SAPS  O13B 9218   0.457   4.521   5.492  0.0738  0.2800 -0.3467
   94SAPS   C11 9219   0.546   4.725   5.685  0.0356  0.2048 -0.3188
   94SAPS  H11A 9220   0.561   4.807   5.611 -0.9550  1.0100  0.3434
   94SAPS  H11B 9221   0.612   4.645   5.647  1.1040  0.5010  0.8479
   94SAPS     P 9222   0.710   4.825   5.854  0.0865 -0.1717 -0.0104
   94SAPS   O13 9223   0.813   4.726   5.803 -0.0184 -0.4142  0.1066
   94SAPS   O14 9224   0.728   4.958   5.785  0.3606  0.2335 -0.4822
   94SAPS   O12 9225   0.569   4.763   5.822 -0.5168  0.3645 -0.1519
   94SAPS   O11 9226   0.723   4.852   6.006  0.0731 -0.6417  0.0943
   94SAPS    C1 9227   0.643   4.787   6.108 -0.2849  0.2114  0.2236
   94SAPS    HA 9228   0.572   4.856   6.158  0.5650  2.3552 -1.4310
   94SAPS    HB 9229   0.589   4.708   6.051  0.8414  0.0785 -0.6731
   94SAPS    C2 9230   0.721   4.708   6.218 -0.1573  0.1248  0.2413
   94SAPS    HS 9231   0.751   4.784   6.293  0.0505 -0.5940  0.8945
   94SAPS   O21 9232   0.838   4.650   6.155  0.4839  0.3351  0.2380
   94SAPS   C21 9233   0.942   4.726   6.149  0.4095 -0.2820  0.0715
   94SAPS   O22 9234   0.951   4.837   6.202  0.2678 -0.0243 -0.2594
   94SAPS   C22 9235   1.053   4.662   6.072  0.1444 -0.0360 -0.3874
   94SAPS   H2R 9236   1.025   4.555   6.061  1.5884 -0.5311  0.5808
   94SAPS   H2S 9237   1.057   4.711   5.972 -2.5633  0.4352 -0.2914
   94SAPS    C3 9238   0.628   4.602   6.271  0.1048  0.5403 -0.0087
   94SAPS    HX 9239   0.681   4.549   6.354  1.3885  0.8364 -0.6257
   94SAPS    HY 9240   0.596   4.526   6.197  0.5187  2.4183 -2.1454
   94SAPS   O31 9241   0.517   4.659   6.342 -0.3507  0.2447 -0.1278
   94SAPS   C31 9242   0.456   4.583   6.424  0.6722 -0.5918 -0.2578
   94SAPS   O32 9243   0.479   4.464   6.443  0.3183 -0.1973  0.0175
   94SAPS   C32 9244   0.346   4.647   6.495 -0.1423 -0.9563  0.1930
   94SAPS   H2X 9245   0.245   4.605   6.475 -1.6888  1.9530  1.5874
   94SAPS   H2Y 9246   0.331   4.753   6.466 -0.0247 -0.4102  2.0585
   94SAPS   C23 9247   1.186   4.666   6.151  0.1940 -0.4383  0.1874
   94SAPS   H3R 9248   1.210   4.773   6.171 -2.8377  0.0363  1.5592
   94SAPS   H3S 9249   1.260   4.627   6.078 -1.3576 -1.0292 -1.1041
   94SAPS   C24 9250   1.197   4.584   6.284  0.1498 -0.2568 -0.6393
   94SAPS   H4R 9251   1.176   4.479   6.257 -2.3221 -0.2184  0.9581
   94SAPS   H4S 9252   1.107   4.609   6.345 -2.0409 -3.0629 -2.6295
   94SAPS   C25 9253   1.328   4.601   6.347 -0.2548  0.2300 -0.2852
   94SAPS   H5R 9254   1.418   4.590   6.285 -1.5870  0.5174 -2.2878
   94SAPS   C26 9255   1.344   4.655   6.472 -0.8844 -0.1925 -1.0574
   94SAPS   H6R 9256   1.446   4.669   6.511 -2.0639  1.2206  1.6776
   94SAPS   C27 9257   1.245   4.702   6.571 -0.1715  0.4891 -0.2941
   94SAPS   H7R 9258   1.290   4.711   6.672  1.3794  2.0651 -1.1141
   94SAPS   H7S 9259   1.174   4.616   6.578 -0.3047  0.6913  0.9781
   94SAPS   C28 9260   1.159   4.821   6.529  0.0725 -0.5033 -0.9507
   94SAPS   H8R 9261   1.128   4.818   6.423 -1.4978 -1.6548 -0.4779
   94SAPS   C29 9262   1.098   4.906   6.612 -0.6527 -0.3271  0.1250
   94SAPS   H9R 9263   1.038   4.992   6.577  2.0534  0.4190 -2.8756
   94SAPS  C210 9264   1.112   4.907   6.758  0.0689  0.0777  0.1503
   94SAPS  H10R 9265   1.215   4.880   6.788  0.5843  0.6225 -1.0975
   94SAPS  H10S 9266   1.049   4.823   6.795  0.4399 -0.7866 -1.1466
   94SAPS  C211 9267   1.085   5.035   6.828 -0.0803  0.1079 -0.3171
   94SAPS  H11R 9268   1.043   5.117   6.768  2.2064  1.2447 -0.4163
   94SAPS  C212 9269   1.094   5.046   6.963 -0.3866  0.0351  0.4295
   94SAPS  H12R 9270   1.072   5.142   7.012 -1.4558 -0.0301  0.0906
   94SAPS  C213 9271   1.120   4.931   7.064 -0.2932 -0.4457 -0.3904
   94SAPS  H13R 9272   1.146   4.838   7.008  0.7450  1.1412 -2.6487
   94SAPS  H13S 9273   1.027   4.909   7.120  2.3189  0.4023  4.5155
   94SAPS  C214 9274   1.232   4.960   7.159  0.6142 -0.0367 -0.1877
   94SAPS  H14R 9275   1.324   4.990   7.106 -0.4335  1.8147 -0.9966
   94SAPS  C215 9276   1.224   4.963   7.293  0.4328  0.0105 -0.9186
   94SAPS  H15R 9277   1.313   4.999   7.346  1.5789 -2.4457 -1.1248
   94SAPS  C216 9278   1.093   4.943   7.378  0.0738 -0.0483 -0.5604
   94SAPS  H16R 9279   1.090   4.855   7.445  1.0578  0.8869  0.7353
   94SAPS  H16S 9280   1.001   4.931   7.317 -1.5485  0.1040  1.7999
   94SAPS  C217 9281   1.096   5.072   7.474  0.5654  0.3881 -0.0243
   94SAPS  H17R 9282   1.000   5.062   7.528  0.4341 -0.7818 -0.4506
   94SAPS  H17S 9283   1.088   5.164   7.412 -1.2276  0.5130  0.3715
   94SAPS  C218 9284   1.197   5.076   7.589 -0.2062 -0.0006 -0.2794
   94SAPS  H18R 9285   1.252   5.173   7.585  1.5724 -1.0532 -2.9115
   94SAPS  H18S 9286   1.272   4.997   7.564 -0.9092 -0.9086  0.4871
   94SAPS  C219 9287   1.127   5.065   7.727 -0.6565 -0.3480  0.4317
   94SAPS  H19R 9288   1.053   4.982   7.737  0.7583 -2.0234 -2.2882
   94SAPS  H19S 9289   1.082   5.165   7.740 -1.4186 -0.7847  1.2336
   94SAPS  C220 9290   1.235   5.056   7.837  0.4383 -0.1579 -0.2578
   94SAPS  H20R 9291   1.285   4.957   7.851 -0.7836 -0.7715 -0.1540
   94SAPS  H20S 9292   1.183   5.061   7.935  0.8481  2.1778 -0.1286
   94SAPS  H20T 9293   1.312   5.136   7.831  0.3897 -0.0770  0.1880
   94SAPS   C33 9294   0.359   4.651   6.647 -0.0969 -0.6424  0.4277
   94SAPS   H3X 9295   0.460   4.681   6.682 -0.0140  2.2572 -2.1164
   94SAPS   H3Y 9296   0.334   4.549   6.685  2.9038 -1.8599 -0.6774
   94SAPS   C34 9297   0.254   4.750   6.712  0.5826 -0.5265 -0.4752
   94SAPS   H4X 9298   0.155   4.701   6.726  0.5987 -0.1836  0.9339
   94SAPS   H4Y 9299   0.238   4.841   6.652 -1.1168 -1.0703 -0.8750
   94SAPS   C35 9300   0.295   4.813   6.847  0.6064  0.5486 -0.3873
   94SAPS   H5X 9301   0.379   4.884   6.832 -0.8914  2.1468 -1.4267
   94SAPS   H5Y 9302   0.329   4.732   6.914 -3.9559  0.2345  1.7613
   94SAPS   C36 9303   0.183   4.894   6.910 -0.3971  0.1386 -0.0216
   94SAPS   H6X 9304   0.104   4.831   6.957  1.6979 -0.9620  2.1450
   94SAPS   H6Y 9305   0.137   4.963   6.836 -0.9838  1.5818  1.6898
   94SAPS   C37 9306   0.231   4.988   7.024  0.9965 -0.0018 -0.1807
   94SAPS   H7X 9307   0.163   5.076   7.028  1.2557  0.1051  3.4164
   94SAPS   H7Y 9308   0.334   5.020   6.996  0.8048  0.3056 -0.5524
   94SAPS   C38 9309   0.239   4.920   7.154 -0.0137 -0.4239  0.2058
   94SAPS   H8X 9310   0.314   4.839   7.145  2.7846  2.2108 -1.0935
   94SAPS   H8Y 9311   0.145   4.870   7.183  0.4179 -0.8241  0.9469
   94SAPS   C39 9312   0.273   5.022   7.266 -0.2813  0.0302  0.4748
   94SAPS   H9X 9313   0.189   5.094   7.268  1.5178  2.1235  2.0140
   94SAPS   H9Y 9314   0.372   5.069   7.247 -1.5540  2.7673  0.3650
   94SAPS  C310 9315   0.269   4.945   7.402 -0.2276  0.4388 -0.4357
   94SAPS  H10X 9316   0.348   4.867   7.395  2.1137  2.6979  0.1104
   94SAPS  H10Y 9317   0.169   4.900   7.421  0.6380 -0.6148  1.8414
   94SAPS  C311 9318   0.288   5.035   7.524  0.0740 -0.4649  0.0223
   94SAPS  H11X 9319   0.251   5.137   7.499 -1.1883 -0.2910  2.4445
   94SAPS  H11Y 9320   0.393   5.064   7.545  0.0398  0.5011 -1.1224
   94SAPS  C312 9321   0.205   4.992   7.650  0.7462  0.0708  0.3482
   94SAPS  H12X 9322   0.249   4.893   7.672 -0.7951 -0.4973  0.9545
   94SAPS  H12Y 9323   0.100   4.976   7.617  0.9267  0.1799 -0.3037
   94SAPS  C313 9324   0.216   5.092   7.773 -0.3705  0.0158  0.4701
   94SAPS  H13X 9325   0.145   5.176   7.757 -1.3797 -1.2501 -1.9194
   94SAPS  H13Y 9326   0.317   5.139   7.767  0.3592 -1.5956 -0.4121
   94SAPS  C314 9327   0.213   5.014   7.900 -0.2158  1.0792  0.4199
   94SAPS  H14X 9328   0.296   4.940   7.902 -1.9609 -0.9353  0.6021
   94SAPS  H14Y 9329   0.110   4.972   7.902  0.2795 -0.2345 -0.8480
   94SAPS  C315 9330   0.232   5.112   8.021 -0.8691  0.9271 -0.0384
   94SAPS  H15X 9331   0.141   5.174   8.008 -1.8240  0.1957  2.8772
   94SAPS  H15Y 9332   0.326   5.165   7.993  0.3581 -1.2055 -0.1070
   94SAPS  C316 9333   0.234   5.040   8.153  0.2307 -0.5447 -0.1822
   94SAPS  H16X 9334   0.266   5.117   8.227  1.8997 -1.8045  0.4404
   94SAPS  H16Y 9335   0.312   4.962   8.140 -0.0624 -0.3948 -3.0257
   94SAPS  C317 9336   0.099   4.982   8.198  0.1611 -0.5888  0.2976
   94SAPS  H17X 9337   0.109   4.920   8.289 -0.2648  1.5202  1.8061
   94SAPS  H17Y 9338   0.044   4.930   8.116 -0.3918  0.2607  0.1157
   94SAPS  C318 9339   0.002   5.094   8.245 -0.0259 -0.9535 -0.7455
   94SAPS  H18X 9340  -0.007   5.171   8.166  0.8373 -1.7811 -1.6514
   94SAPS  H18Y 9341   0.044   5.155   8.328  1.2007 -1.2191 -1.1560
   94SAPS  H18Z 9342  -0.098   5.053   8.272  0.0355  0.1578  1.2828
   95SAPS     N 9343   3.714   2.733   6.199  0.4832  0.4955 -0.1039
   95SAPS   HN1 9344   3.633   2.794   6.175  0.2385  0.3614  0.3747
   95SAPS   HN2 9345   3.728   2.740   6.301 -1.3644 -0.2451  0.2284
   95SAPS   HN3 9346   3.802   2.768   6.156 -0.1593 -1.0453 -2.7880
   95SAPS   C12 9347   3.707   2.588   6.153  0.4998 -0.2888  0.0984
   95SAPS  H12A 9348   3.607   2.547   6.166  0.5220 -1.0319 -1.9712
   95SAPS   C13 9349   3.737   2.575   5.996 -0.4149 -0.7988 -0.1136
   95SAPS  O13A 9350   3.738   2.681   5.924  0.2099  0.0304 -0.3852
   95SAPS  O13B 9351   3.707   2.464   5.939 -0.0998 -0.1344 -0.1656
   95SAPS   C11 9352   3.810   2.507   6.244 -0.0082  0.2878  0.3019
   95SAPS  H11A 9353   3.793   2.401   6.213  0.6516  0.4144 -0.5121
   95SAPS  H11B 9354   3.784   2.514   6.351  0.0127 -1.1410  0.4147
   95SAPS     P 9355   4.061   2.450   6.257  0.2085 -0.3743  0.0720
   95SAPS   O13 9356   4.059   2.317   6.178  0.8638  0.2404  0.0801
   95SAPS   O14 9357   4.189   2.534   6.265  0.3871  0.3907 -0.4458
   95SAPS   O12 9358   3.941   2.545   6.217  0.1536 -0.9378 -0.1686
   95SAPS   O11 9359   4.022   2.426   6.413 -0.2952  0.3748 -0.2620
   95SAPS    C1 9360   4.042   2.530   6.507 -0.4775 -0.9727  1.0094
   95SAPS    HA 9361   4.150   2.557   6.508 -0.4884 -0.6184 -1.8083
   95SAPS    HB 9362   3.997   2.626   6.473  1.8434  0.3006  1.4440
   95SAPS    C2 9363   3.991   2.497   6.653 -0.8285  0.6349 -0.4559
   95SAPS    HS 9364   4.013   2.585   6.717 -0.4373  0.4981 -0.4006
   95SAPS   O21 9365   4.045   2.376   6.708  0.8681 -0.1780  0.9646
   95SAPS   C21 9366   4.173   2.393   6.753 -0.3644 -1.0555 -0.5567
   95SAPS   O22 9367   4.241   2.490   6.735  0.0693  0.7412 -0.8074
   95SAPS   C22 9368   4.213   2.277   6.841  0.3573  0.3335 -0.3480
   95SAPS   H2R 9369   4.138   2.195   6.831  0.3663  0.3257 -0.3531
   95SAPS   H2S 9370   4.310   2.242   6.798  0.1239 -2.5538  1.2930
   95SAPS    C3 9371   3.833   2.485   6.642  0.6547 -0.8858  0.6739
   95SAPS    HX 9372   3.804   2.411   6.564 -0.7444  0.1537  0.1967
   95SAPS    HY 9373   3.789   2.585   6.621  1.6706 -0.7525 -0.9438
   95SAPS   O31 9374   3.772   2.425   6.758 -0.3094  0.0216  0.1893
   95SAPS   C31 9375   3.781   2.508   6.854 -0.0376 -0.1688 -0.0151
   95SAPS   O32 9376   3.828   2.625   6.850  0.0515  0.3753  0.4971
   95SAPS   C32 9377   3.725   2.433   6.980  0.2201  0.6342  0.0415
   95SAPS   H2X 9378   3.781   2.338   6.992 -1.4016 -0.1596  1.4617
   95SAPS   H2Y 9379   3.620   2.415   6.950  0.4311 -1.5551  0.5611
   95SAPS   C23 9380   4.226   2.311   6.999  0.0063 -0.1612  0.5645
   95SAPS   H3R 9381   4.303   2.391   7.009 -0.2936  0.0524  1.2067
   95SAPS   H3S 9382   4.275   2.225   7.050 -0.2490 -0.2251  0.7045
   95SAPS   C24 9383   4.100   2.352   7.072 -0.2473  0.2949 -0.2589
   95SAPS   H4R 9384   4.035   2.262   7.075 -1.5566  1.1647 -1.5515
   95SAPS   H4S 9385   4.038   2.425   7.015  1.9432  2.5920  0.2027
   95SAPS   C25 9386   4.113   2.415   7.210 -0.1645  0.2924  0.3634
   95SAPS   H5R 9387   4.135   2.522   7.215  0.2441  0.3843 -2.5444
   95SAPS   C26 9388   4.069   2.359   7.323 -1.0194  0.7861 -0.5529
   95SAPS   H6R 9389   4.090   2.398   7.424 -1.9807  0.8757 -0.3848
   95SAPS   C27 9390   4.009   2.222   7.340 -0.4061  0.8523  0.2153
   95SAPS   H7R 9391   4.006   2.167   7.244 -3.8985  1.6008 -0.1546
   95SAPS   H7S 9392   3.902   2.235   7.365 -0.2942 -0.0801  1.1992
   95SAPS   C28 9393   4.081   2.140   7.441 -0.6731 -0.9346 -0.2163
   95SAPS   H8R 9394   4.177   2.103   7.403 -1.1284 -0.8772 -1.4548
   95SAPS   C29 9395   4.033   2.097   7.559 -0.6314 -0.7466  0.2856
   95SAPS   H9R 9396   4.103   2.034   7.615  1.9966  1.4938 -0.3550
   95SAPS  C210 9397   3.899   2.128   7.619 -0.0016  0.0667  0.0368
   95SAPS  H10R 9398   3.852   2.198   7.546  0.5138 -0.3499 -0.7099
   95SAPS  H10S 9399   3.907   2.198   7.705 -1.3413  2.1837 -1.5051
   95SAPS  C211 9400   3.804   2.013   7.637  0.2239  0.3421 -0.2595
   95SAPS  H11R 9401   3.764   1.971   7.543  1.5980  2.2062 -1.7131
   95SAPS  C212 9402   3.769   1.965   7.758 -0.1041 -0.5767  1.0719
   95SAPS  H12R 9403   3.693   1.886   7.758 -0.9681  0.2267 -0.9263
   95SAPS  C213 9404   3.833   2.027   7.884  0.2203  0.1048 -0.4653
   95SAPS  H13R 9405   3.825   2.137   7.881  0.5099  0.1212 -0.6826
   95SAPS  H13S 9406   3.938   1.992   7.876  0.5408  0.7071  1.1710
   95SAPS  C214 9407   3.757   1.965   8.002 -0.4293  0.4089 -0.2650
   95SAPS  H14R 9408   3.648   1.961   7.987 -0.8115  2.1156  1.9033
   95SAPS  C215 9409   3.818   1.927   8.111 -0.3335  0.4454 -0.1337
   95SAPS  H15R 9410   3.764   1.878   8.194 -0.3815  0.0602 -0.3938
   95SAPS  C216 9411   3.967   1.937   8.137 -0.2029  0.5505 -0.0650
   95SAPS  H16R 9412   4.011   2.010   8.066  0.8818  0.4518  0.5054
   95SAPS  H16S 9413   4.018   1.838   8.130 -1.0535  0.0701  0.3765
   95SAPS  C217 9414   3.995   1.991   8.277  0.4677  0.1148 -0.3249
   95SAPS  H17R 9415   3.947   1.926   8.353  0.8513  0.2189  0.0091
   95SAPS  H17S 9416   3.949   2.092   8.284 -0.4999 -0.1958 -1.8864
   95SAPS  C218 9417   4.147   1.996   8.312 -0.4588 -0.0377 -0.1094
   95SAPS  H18R 9418   4.179   2.085   8.254 -0.8578  0.4501  0.4152
   95SAPS  H18S 9419   4.203   1.907   8.277 -0.6237 -0.3134  0.3229
   95SAPS  C219 9420   4.171   2.020   8.460 -0.2352 -0.1921  0.1370
   95SAPS  H19R 9421   4.111   1.946   8.517 -0.7376  0.0441 -0.0914
   95SAPS  H19S 9422   4.131   2.120   8.485  0.4794  0.2952 -0.6445
   95SAPS  C220 9423   4.319   2.000   8.503 -0.3956 -0.8283 -1.1391
   95SAPS  H20R 9424   4.403   2.055   8.457  1.8769 -1.2674  2.3092
   95SAPS  H20S 9425   4.346   1.896   8.475  2.7926 -0.0381 -1.1593
   95SAPS  H20T 9426   4.327   2.002   8.614  1.2313 -3.3365 -1.1771
   95SAPS   C33 9427   3.727   2.519   7.109 -0.4500 -0.1803 -0.0263
   95SAPS   H3X 9428   3.678   2.617   7.091  1.3797  0.3546 -2.4311
   95SAPS   H3Y 9429   3.832   2.550   7.128 -0.5913  0.1582  0.2067
   95SAPS   C34 9430   3.666   2.436   7.221  0.7801 -0.3183  0.1139
   95SAPS   H4X 9431   3.713   2.336   7.233 -0.0750 -0.9832 -2.0294
   95SAPS   H4Y 9432   3.556   2.424   7.211  1.1446 -1.6768 -2.6248
   95SAPS   C35 9433   3.685   2.504   7.365  0.9098  0.4620  0.2785
   95SAPS   H5X 9434   3.642   2.606   7.378  3.9336  1.6301  1.6330
   95SAPS   H5Y 9435   3.789   2.533   7.392  0.5842  2.2890 -0.3183
   95SAPS   C36 9436   3.639   2.426   7.490  0.2033  0.2696  0.3474
   95SAPS   H6X 9437   3.654   2.317   7.471 -2.7571  0.5292 -4.2844
   95SAPS   H6Y 9438   3.530   2.439   7.505 -0.0009 -1.2540  0.2975
   95SAPS   C37 9439   3.721   2.467   7.616 -0.0324 -0.3964 -0.4704
   95SAPS   H7X 9440   3.725   2.578   7.619  0.7806 -0.4386  0.0312
   95SAPS   H7Y 9441   3.830   2.444   7.616  0.5135  2.0085 -0.2804
   95SAPS   C38 9442   3.660   2.415   7.741 -0.2504  0.2994 -0.2495
   95SAPS   H8X 9443   3.652   2.305   7.741  1.2766  0.1765  0.2699
   95SAPS   H8Y 9444   3.557   2.454   7.753 -0.3481 -0.1246  0.2709
   95SAPS   C39 9445   3.748   2.457   7.867  0.0847  0.3409  0.0102
   95SAPS   H9X 9446   3.765   2.566   7.873 -0.7044  0.5109 -0.7229
   95SAPS   H9Y 9447   3.844   2.401   7.870  1.4410  2.6579  0.9378
   95SAPS  C310 9448   3.663   2.409   7.989 -0.2936 -0.0973  0.3139
   95SAPS  H10X 9449   3.631   2.303   7.989 -1.9245  0.3751  0.2899
   95SAPS  H10Y 9450   3.564   2.459   7.995  0.6229  1.7991  0.0334
   95SAPS  C311 9451   3.744   2.427   8.121 -0.4588  0.3843  0.9512
   95SAPS  H11X 9452   3.791   2.527   8.111 -2.0669  0.8577 -2.9128
   95SAPS  H11Y 9453   3.819   2.344   8.118 -1.2131 -0.3491  2.0717
   95SAPS  C312 9454   3.659   2.422   8.245  0.1834  0.5036  0.2170
   95SAPS  H12X 9455   3.606   2.325   8.253  1.0866 -0.1074 -1.0857
   95SAPS  H12Y 9456   3.578   2.498   8.240  0.0235  0.2482 -1.5972
   95SAPS  C313 9457   3.738   2.456   8.376 -0.4909  0.0296  0.2146
   95SAPS  H13X 9458   3.819   2.527   8.347 -0.0047 -0.2285  0.9339
   95SAPS  H13Y 9459   3.798   2.375   8.422  0.5531  0.8167  0.2573
   95SAPS  C314 9460   3.657   2.514   8.497 -0.4102  0.7950 -0.0213
   95SAPS  H14X 9461   3.612   2.611   8.465 -1.3908  0.7795  1.2428
   95SAPS  H14Y 9462   3.727   2.515   8.584  1.3408 -1.3039 -1.3686
   95SAPS  C315 9463   3.556   2.404   8.539  0.1354  0.5238  0.2448
   95SAPS  H15X 9464   3.600   2.316   8.592 -1.8896 -0.1576  0.8442
   95SAPS  H15Y 9465   3.500   2.359   8.454 -0.0894  1.0276  0.1251
   95SAPS  C316 9466   3.444   2.463   8.630 -0.3872 -0.0674 -0.3271
   95SAPS  H16X 9467   3.375   2.506   8.554 -0.3424 -1.0075 -0.9118
   95SAPS  H16Y 9468   3.493   2.545   8.687  0.2161 -2.1348  2.2282
   95SAPS  C317 9469   3.381   2.372   8.739  0.2769  0.2679  0.4989
   95SAPS  H17X 9470   3.311   2.307   8.682  0.2815  0.7599 -0.0760
   95SAPS  H17Y 9471   3.328   2.439   8.809 -0.7071  0.5301 -0.4772
   95SAPS  C318 9472   3.466   2.276   8.814 -0.1017  0.4554 -0.3863
   95SAPS  H18X 9473   3.512   2.204   8.743  0.8019  0.1318  0.5043
   95SAPS  H18Y 9474   3.411   2.223   8.894 -1.5134  0.6328 -1.2250
   95SAPS  H18Z 9475   3.547   2.334   8.865 -1.4422 -0.6357  3.1605
   96SAPS     N 9476   4.486   3.682   6.033  0.2777 -0.0360 -0.4772
   96SAPS   HN1 9477   4.561   3.654   5.967 -2.1790 -1.0210 -2.9513
   96SAPS   HN2 9478   4.403   3.720   5.984  1.8718  2.8635 -1.0053
   96SAPS   HN3 9479   4.526   3.755   6.095  0.8393 -0.0760 -0.7868
   96SAPS   C12 9480   4.454   3.563   6.125 -0.4647 -0.1215 -0.2503
   96SAPS  H12A 9481   4.365   3.516   6.084  0.1697 -2.0376  0.4905
   96SAPS   C13 9482   4.581   3.474   6.135 -0.6558  0.2477  0.2214
   96SAPS  O13A 9483   4.682   3.499   6.067  0.2556 -0.4206 -0.1947
   96SAPS  O13B 9484   4.572   3.368   6.204  0.3970  0.3260 -0.8025
   96SAPS   C11 9485   4.404   3.615   6.267  0.1038  0.4733  0.5663
   96SAPS  H11A 9486   4.484   3.673   6.318  2.0509 -0.0202 -1.8603
   96SAPS  H11B 9487   4.375   3.525   6.325  2.1889  0.2062  1.2676
   96SAPS     P 9488   4.246   3.838   6.287 -0.0622  0.0103  0.0669
   96SAPS   O13 9489   4.334   3.939   6.233  0.1761 -0.3304  0.4497
   96SAPS   O14 9490   4.103   3.863   6.266  0.0339  0.8278  0.6474
   96SAPS   O12 9491   4.277   3.683   6.250  0.4641  0.0116  0.3753
   96SAPS   O11 9492   4.271   3.825   6.440  0.6093 -0.2625 -0.2209
   96SAPS    C1 9493   4.181   3.855   6.545  0.3239 -0.3002  0.4280
   96SAPS    HA 9494   4.145   3.960   6.544  1.9087  0.3138  2.6329
   96SAPS    HB 9495   4.093   3.788   6.538 -0.0409 -0.1060  2.8211
   96SAPS    C2 9496   4.243   3.829   6.684 -0.2176  0.5488  0.5810
   96SAPS    HS 9497   4.293   3.730   6.694  0.0456  1.0924  6.8046
   96SAPS   O21 9498   4.147   3.860   6.786 -0.3915  0.4560 -0.3626
   96SAPS   C21 9499   4.067   3.757   6.824  0.0897 -0.0070 -0.2389
   96SAPS   O22 9500   4.083   3.640   6.787  0.1917  0.0617 -0.8080
   96SAPS   C22 9501   3.948   3.809   6.917  0.0421  0.2928 -0.5471
   96SAPS   H2R 9502   3.977   3.909   6.954 -0.9510  0.0793  0.8323
   96SAPS   H2S 9503   3.856   3.823   6.855 -1.5285 -2.8769  0.9604
   96SAPS    C3 9504   4.367   3.923   6.699  0.4476 -0.0266  0.2990
   96SAPS    HX 9505   4.329   4.024   6.728 -0.3869  0.0217 -0.9236
   96SAPS    HY 9506   4.418   3.931   6.601 -2.2707  3.4951 -0.9571
   96SAPS   O31 9507   4.455   3.876   6.802  0.6057 -0.1886  0.3631
   96SAPS   C31 9508   4.549   3.952   6.854  0.4514 -0.2635 -0.6226
   96SAPS   O32 9509   4.564   4.069   6.825 -0.0595  0.1505 -0.4633
   96SAPS   C32 9510   4.618   3.876   6.964  0.6576  0.3114  0.3762
   96SAPS   H2X 9511   4.705   3.824   6.920 -0.0703 -1.1733  0.6522
   96SAPS   H2Y 9512   4.550   3.800   7.007 -0.0000  1.5661  1.6173
   96SAPS   C23 9513   3.928   3.704   7.032  0.0769  0.0774 -0.3642
   96SAPS   H3R 9514   4.016   3.638   7.045 -0.4705 -1.1613 -2.6270
   96SAPS   H3S 9515   3.861   3.625   6.991 -0.4177  0.6517 -0.6647
   96SAPS   C24 9516   3.874   3.780   7.160 -0.7350  0.5303  0.2130
   96SAPS   H4R 9517   3.799   3.853   7.122  2.0261  2.4833 -1.6715
   96SAPS   H4S 9518   3.961   3.845   7.184  0.7484 -1.2534 -0.2885
   96SAPS   C25 9519   3.836   3.702   7.276  0.6037  1.0934 -0.5938
   96SAPS   H5R 9520   3.862   3.595   7.265  1.7049  1.4868 -1.9717
   96SAPS   C26 9521   3.782   3.739   7.392  0.2303 -0.1670  0.0352
   96SAPS   H6R 9522   3.773   3.658   7.465 -1.4046 -1.2348 -1.3013
   96SAPS   C27 9523   3.748   3.881   7.433 -0.2567  0.3051 -0.6074
   96SAPS   H7R 9524   3.819   3.954   7.388 -0.9377  0.8684 -0.7686
   96SAPS   H7S 9525   3.771   3.890   7.541  3.1989 -0.6214 -1.1852
   96SAPS   C28 9526   3.607   3.929   7.406  0.1654 -0.4833 -0.6708
   96SAPS   H8R 9527   3.558   3.906   7.310 -1.7500 -1.0224  0.4132
   96SAPS   C29 9528   3.536   4.008   7.490  0.3639  0.0333 -0.2352
   96SAPS   H9R 9529   3.439   4.044   7.451 -0.2248 -0.7625  0.4596
   96SAPS  C210 9530   3.573   4.063   7.626 -0.9595  0.6205  0.3399
   96SAPS  H10R 9531   3.593   4.172   7.618 -3.0205  0.8631 -1.9930
   96SAPS  H10S 9532   3.670   4.023   7.664 -1.1619  1.5309  1.8498
   96SAPS  C211 9533   3.465   4.032   7.725  0.6777 -0.0563 -0.0516
   96SAPS  H11R 9534   3.361   4.059   7.701  0.5455 -0.2939  0.2466
   96SAPS  C212 9535   3.493   3.965   7.841 -0.5194  0.5318 -0.6987
   96SAPS  H12R 9536   3.412   3.943   7.913  0.3169 -2.3780 -0.5607
   96SAPS  C213 9537   3.626   3.906   7.892 -0.3795 -0.5002 -0.5726
   96SAPS  H13R 9538   3.680   3.863   7.805  1.9674 -0.9113  1.0534
   96SAPS  H13S 9539   3.605   3.823   7.963 -1.0191 -0.8777 -1.1889
   96SAPS  C214 9540   3.698   4.017   7.958  0.1772  0.2904 -0.1960
   96SAPS  H14R 9541   3.751   4.090   7.894  2.6718 -1.9609 -0.7672
   96SAPS  C215 9542   3.724   4.032   8.092  0.6897  0.3400  0.3690
   96SAPS  H15R 9543   3.773   4.128   8.112  1.0469  0.2761 -0.1935
   96SAPS  C216 9544   3.692   3.937   8.208  0.2532 -0.4609  0.7585
   96SAPS  H16R 9545   3.782   3.949   8.272  1.4730 -2.6390 -0.4442
   96SAPS  H16S 9546   3.686   3.830   8.179 -1.6868 -0.0485 -0.4170
   96SAPS  C217 9547   3.576   3.978   8.293 -0.1099  0.2247 -0.5801
   96SAPS  H17R 9548   3.539   3.891   8.351  2.0668 -0.5738 -0.3467
   96SAPS  H17S 9549   3.498   4.016   8.223  1.3478  3.4317 -0.5401
   96SAPS  C218 9550   3.595   4.092   8.391  0.5970  0.6136 -0.3793
   96SAPS  H18R 9551   3.631   4.183   8.339  1.1765 -0.3868 -1.7614
   96SAPS  H18S 9552   3.677   4.063   8.461 -0.4888 -1.9527 -0.0970
   96SAPS  C219 9553   3.457   4.119   8.468 -0.5255 -0.0525  0.5633
   96SAPS  H19R 9554   3.474   4.109   8.577 -0.0343 -1.2240  0.3799
   96SAPS  H19S 9555   3.387   4.039   8.435 -0.0768  0.1091 -0.8320
   96SAPS  C220 9556   3.404   4.265   8.438 -0.2739 -0.5393 -1.0422
   96SAPS  H20R 9557   3.300   4.282   8.474  0.1764  1.8810 -0.8205
   96SAPS  H20S 9558   3.409   4.284   8.329  0.3795  0.4825 -0.8492
   96SAPS  H20T 9559   3.469   4.333   8.498 -1.0996 -1.7431  1.2855
   96SAPS   C33 9560   4.662   3.970   7.077 -0.3505 -0.4404 -0.1992
   96SAPS   H3X 9561   4.722   4.048   7.027 -1.3662  0.6363  0.2475
   96SAPS   H3Y 9562   4.726   3.913   7.148 -1.6208 -0.1511  1.2027
   96SAPS   C34 9563   4.548   4.024   7.160 -0.0259  0.6717  0.1146
   96SAPS   H4X 9564   4.524   3.948   7.238  1.1715 -0.7268 -0.8657
   96SAPS   H4Y 9565   4.462   4.056   7.096  0.3293  1.3607 -0.0263
   96SAPS   C35 9566   4.581   4.159   7.234 -0.3817  0.3180  0.2836
   96SAPS   H5X 9567   4.484   4.213   7.238  1.0700  2.8799  2.0499
   96SAPS   H5Y 9568   4.644   4.220   7.166  1.4453 -0.9367  0.8311
   96SAPS   C36 9569   4.644   4.143   7.366 -1.0659  0.3130 -0.6705
   96SAPS   H6X 9570   4.657   4.241   7.417  0.1697 -0.1036 -0.1639
   96SAPS   H6Y 9571   4.743   4.093   7.357 -0.8640  0.5977 -0.0566
   96SAPS   C37 9572   4.566   4.045   7.467  0.6431 -0.1590 -1.1152
   96SAPS   H7X 9573   4.582   3.938   7.439  1.0131 -0.1041 -1.1205
   96SAPS   H7Y 9574   4.456   4.056   7.452  0.5450  0.4329  0.0041
   96SAPS   C38 9575   4.601   4.082   7.611 -0.8428 -0.8080  0.5724
   96SAPS   H8X 9576   4.569   4.187   7.630  1.4601  0.4011 -1.9007
   96SAPS   H8Y 9577   4.711   4.088   7.622 -0.9110 -1.1918  1.5865
   96SAPS   C39 9578   4.532   3.986   7.714  0.0252  0.6654  0.3169
   96SAPS   H9X 9579   4.574   3.883   7.710 -3.2251 -0.6912 -0.7603
   96SAPS   H9Y 9580   4.432   3.977   7.667 -0.1776  0.4063  0.7885
   96SAPS  C310 9581   4.528   4.034   7.855  0.1351  0.2609 -0.0509
   96SAPS  H10X 9582   4.513   4.144   7.847 -0.2457  0.2592  0.5663
   96SAPS  H10Y 9583   4.624   4.022   7.910 -0.6609 -0.5083  1.2030
   96SAPS  C311 9584   4.422   3.971   7.936  0.8594 -0.8261 -0.6795
   96SAPS  H11X 9585   4.446   3.862   7.944  3.4898 -0.2130  0.1407
   96SAPS  H11Y 9586   4.324   3.975   7.884 -0.4241 -0.5147  1.6882
   96SAPS  C312 9587   4.398   4.043   8.070  0.2287  0.3081  1.0463
   96SAPS  H12X 9588   4.301   4.003   8.105 -1.4928  1.7104 -1.9633
   96SAPS  H12Y 9589   4.390   4.153   8.054  1.5044  0.5525  1.9863
   96SAPS  C313 9590   4.525   4.019   8.160  0.2455  0.8892  0.0594
   96SAPS  H13X 9591   4.610   4.082   8.125 -0.1983  1.2384 -0.3866
   96SAPS  H13Y 9592   4.551   3.911   8.162  0.0770  0.8122 -1.1917
   96SAPS  C314 9593   4.490   4.057   8.307 -0.4124  1.1634 -0.6963
   96SAPS  H14X 9594   4.407   3.993   8.342 -0.2567  0.9607 -0.6999
   96SAPS  H14Y 9595   4.469   4.166   8.317 -1.8919  0.9200 -1.0553
   96SAPS  C315 9596   4.606   4.011   8.395 -0.5135  0.7816 -0.1289
   96SAPS  H15X 9597   4.699   4.058   8.357  0.6418 -1.3995 -0.0507
   96SAPS  H15Y 9598   4.624   3.905   8.369  0.4119  1.6086 -3.0498
   96SAPS  C316 9599   4.590   4.024   8.549  0.8522  0.0836 -0.0769
   96SAPS  H16X 9600   4.660   3.962   8.609  1.3322  0.6534 -0.0473
   96SAPS  H16Y 9601   4.494   3.975   8.578  1.0808 -0.5720 -0.4072
   96SAPS  C317 9602   4.591   4.165   8.605  0.3974 -0.6347  0.4066
   96SAPS  H17X 9603   4.584   4.166   8.716 -0.2485  1.7790  0.3694
   96SAPS  H17Y 9604   4.502   4.216   8.563  1.1468  2.3473  2.2994
   96SAPS  C318 9605   4.721   4.238   8.572  0.4408  0.3911  0.8903
   96SAPS  H18X 9606   4.809   4.181   8.608  0.5257 -1.6532 -2.3341
   96SAPS  H18Y 9607   4.722   4.341   8.613  1.1616  1.9694 -2.8446
   96SAPS  H18Z 9608   4.733   4.252   8.462 -2.6759 -0.8793  0.3398
   97SAPS     N 9609   5.877   1.935   6.248  0.4906  0.1323  0.7679
   97SAPS   HN1 9610   5.842   1.977   6.337 -2.1196  1.3676 -0.7702
   97SAPS   HN2 9611   5.860   1.833   6.250 -0.3929  0.2447 -0.2063
   97SAPS   HN3 9612   5.979   1.952   6.236  0.3814 -0.2249 -0.8146
   97SAPS   C12 9613   5.788   1.998   6.144  0.5367  0.5141 -0.8775
   97SAPS  H12A 9614   5.828   2.098   6.135 -1.1390  1.2714 -0.2198
   97SAPS   C13 9615   5.793   1.929   6.003 -0.0300  0.1102  0.3954
   97SAPS  O13A 9616   5.852   1.818   5.977 -0.0286 -0.0091  0.1443
   97SAPS  O13B 9617   5.726   1.982   5.910  0.4952 -0.1038  0.1524
   97SAPS   C11 9618   5.645   2.013   6.200  0.5240  0.0848  0.3134
   97SAPS  H11A 9619   5.598   1.917   6.232  0.3746 -0.1117 -0.4807
   97SAPS  H11B 9620   5.571   2.050   6.126  0.0063  0.4615  1.0159
   97SAPS     P 9621   5.542   2.117   6.427 -0.4435 -0.3514 -0.6175
   97SAPS   O13 9622   5.597   2.222   6.516 -0.6501 -0.4845 -0.3544
   97SAPS   O14 9623   5.412   2.156   6.370 -0.0358 -0.1870  0.4433
   97SAPS   O12 9624   5.648   2.095   6.316 -0.1197  0.3451  0.2777
   97SAPS   O11 9625   5.528   1.978   6.492 -0.5734  0.1006 -0.6737
   97SAPS    C1 9626   5.601   1.955   6.618  0.2406 -0.1420  0.6661
   97SAPS    HA 9627   5.637   1.851   6.608 -0.2309 -0.2588  0.1207
   97SAPS    HB 9628   5.686   2.024   6.634  2.5604 -3.5289  3.5112
   97SAPS    C2 9629   5.513   1.964   6.745 -1.1149 -0.1634 -0.2422
   97SAPS    HS 9630   5.485   2.070   6.766 -1.2617 -0.4705  1.1462
   97SAPS   O21 9631   5.588   1.908   6.858 -0.1902  0.9356 -0.0884
   97SAPS   C21 9632   5.626   2.001   6.943  0.4013  0.0933  0.1089
   97SAPS   O22 9633   5.633   2.121   6.916  0.6057  0.1829  0.0022
   97SAPS   C22 9634   5.647   1.940   7.077  0.5007  0.0582  0.6918
   97SAPS   H2R 9635   5.578   1.854   7.091  4.2113 -2.9612  1.3940
   97SAPS   H2S 9636   5.752   1.905   7.087  0.4818  0.1532  1.2441
   97SAPS    C3 9637   5.377   1.892   6.730  0.3854  0.1088 -0.5494
   97SAPS    HX 9638   5.413   1.798   6.683  3.1436  0.3296  0.9828
   97SAPS    HY 9639   5.313   1.942   6.655 -0.5418 -0.2905 -0.0357
   97SAPS   O31 9640   5.298   1.882   6.849 -0.4701 -0.2165  0.1652
   97SAPS   C31 9641   5.310   1.766   6.908  0.1796  0.0854  0.1262
   97SAPS   O32 9642   5.362   1.663   6.862  0.2318  0.2310 -0.1817
   97SAPS   C32 9643   5.265   1.788   7.052  0.2957 -0.4706 -0.4972
   97SAPS   H2X 9644   5.165   1.836   7.049  0.8649  0.7796  0.2469
   97SAPS   H2Y 9645   5.337   1.860   7.097  2.2200 -1.1187 -2.4879
   97SAPS   C23 9646   5.620   2.041   7.188 -0.0780  0.1178 -0.5562
   97SAPS   H3R 9647   5.532   2.101   7.159 -0.1996  0.3920  0.3890
   97SAPS   H3S 9648   5.705   2.112   7.189 -0.2034  0.2828 -1.4886
   97SAPS   C24 9649   5.605   1.970   7.324 -0.1833 -0.0115 -0.4923
   97SAPS   H4R 9650   5.670   1.882   7.344  1.0902  1.1947  0.8791
   97SAPS   H4S 9651   5.503   1.928   7.337  0.6730 -1.1668  2.8726
   97SAPS   C25 9652   5.619   2.075   7.429 -0.5886 -0.2935  0.2261
   97SAPS   H5R 9653   5.707   2.141   7.428 -1.2854  0.6698  1.7667
   97SAPS   C26 9654   5.566   2.086   7.553  0.4764  0.4667  0.3421
   97SAPS   H6R 9655   5.596   2.175   7.610 -2.0426  0.1892  2.1600
   97SAPS   C27 9656   5.465   1.998   7.625  0.3907 -0.2914  0.4447
   97SAPS   H7R 9657   5.398   1.950   7.550 -0.2236  1.0908  0.0791
   97SAPS   H7S 9658   5.392   2.062   7.679  0.9821  1.1104 -0.3843
   97SAPS   C28 9659   5.528   1.883   7.696  0.2014 -0.4276  0.9915
   97SAPS   H8R 9660   5.622   1.846   7.652  0.6216  0.2200  1.3382
   97SAPS   C29 9661   5.493   1.832   7.813  1.2044  0.8369  0.2871
   97SAPS   H9R 9662   5.560   1.759   7.862 -0.9663 -1.0062  0.5619
   97SAPS  C210 9663   5.372   1.894   7.888 -0.3886  0.1908  0.0840
   97SAPS  H10R 9664   5.308   1.815   7.934  0.2315  0.9867  2.4104
   97SAPS  H10S 9665   5.311   1.957   7.820  0.2435  1.3391  0.5559
   97SAPS  C211 9666   5.437   1.979   7.994 -0.7226  0.4039 -0.5307
   97SAPS  H11R 9667   5.457   2.085   7.974  1.8479 -0.1024 -0.8688
   97SAPS  C212 9668   5.460   1.935   8.121 -0.5105  0.2249 -0.4209
   97SAPS  H12R 9669   5.518   2.003   8.186 -0.2233 -0.0842 -0.3544
   97SAPS  C213 9670   5.426   1.813   8.194 -1.0595  0.3292  0.0266
   97SAPS  H13R 9671   5.486   1.798   8.286  0.2324  1.2268 -0.6279
   97SAPS  H13S 9672   5.451   1.729   8.126 -0.7584 -1.0334  1.7973
   97SAPS  C214 9673   5.280   1.786   8.207 -0.0254 -0.0235 -0.0197
   97SAPS  H14R 9674   5.224   1.767   8.114 -1.2597 -0.0953  0.7291
   97SAPS  C215 9675   5.210   1.785   8.322 -0.5413 -0.1221  0.1279
   97SAPS  H15R 9676   5.102   1.774   8.306 -0.5608  0.7161 -0.3166
   97SAPS  C216 9677   5.260   1.811   8.458  0.4650 -0.4622 -0.2637
   97SAPS  H16R 9678   5.371   1.812   8.456  0.4518 -0.5537 -1.5447
   97SAPS  H16S 9679   5.218   1.739   8.532  0.0250  2.0571  2.0344
   97SAPS  C217 9680   5.209   1.949   8.510 -0.3405 -0.2185  0.0938
   97SAPS  H17R 9681   5.278   1.970   8.594  1.1797  3.7625 -1.9885
   97SAPS  H17S 9682   5.105   1.929   8.543  0.1265  0.7216  2.2371
   97SAPS  C218 9683   5.213   2.066   8.412  0.6962  0.0280  0.0774
   97SAPS  H18R 9684   5.141   2.049   8.329 -0.4454 -0.1074  1.0694
   97SAPS  H18S 9685   5.315   2.080   8.371  1.7359 -1.6226  1.9949
   97SAPS  C219 9686   5.153   2.197   8.476  0.1548 -0.0271 -0.1382
   97SAPS  H19R 9687   5.222   2.234   8.555 -0.2793  0.5241 -0.0119
   97SAPS  H19S 9688   5.050   2.166   8.505  0.0720  0.6172  0.2657
   97SAPS  C220 9689   5.134   2.324   8.381  0.2962 -0.7688 -0.7445
   97SAPS  H20R 9690   5.222   2.349   8.318  0.8064 -0.8712 -0.0857
   97SAPS  H20S 9691   5.084   2.411   8.429  0.4038 -1.2629  0.2771
   97SAPS  H20T 9692   5.050   2.292   8.315 -1.7532  2.4992  0.1514
   97SAPS   C33 9693   5.268   1.659   7.152 -0.2973  0.3665  0.4595
   97SAPS   H3X 9694   5.364   1.606   7.140 -1.2258 -1.0062 -1.2212
   97SAPS   H3Y 9695   5.181   1.595   7.127  2.1560 -1.9129 -2.5928
   97SAPS   C34 9696   5.256   1.722   7.296 -0.4024 -0.2773  0.4722
   97SAPS   H4X 9697   5.185   1.807   7.300  0.7723  0.6633  1.6879
   97SAPS   H4Y 9698   5.353   1.771   7.320 -1.2197  1.8078 -0.4279
   97SAPS   C35 9699   5.220   1.614   7.398 -0.6545 -0.3546 -0.4253
   97SAPS   H5X 9700   5.311   1.551   7.407 -0.2344  0.4929  1.6570
   97SAPS   H5Y 9701   5.142   1.539   7.373 -0.3655 -0.6682 -0.3849
   97SAPS   C36 9702   5.215   1.657   7.545  0.5332  0.4915 -0.3847
   97SAPS   H6X 9703   5.147   1.744   7.555  0.8346  0.7315 -0.3969
   97SAPS   H6Y 9704   5.314   1.690   7.583  0.8745 -0.9545  0.0223
   97SAPS   C37 9705   5.178   1.547   7.646  0.3067 -0.2799 -0.5355
   97SAPS   H7X 9706   5.247   1.460   7.641  1.2783  0.4843 -0.5893
   97SAPS   H7Y 9707   5.074   1.514   7.625  0.5047 -2.3695  1.5861
   97SAPS   C38 9708   5.171   1.611   7.787 -0.1543 -0.3054 -0.2575
   97SAPS   H8X 9709   5.127   1.713   7.787 -1.2230 -0.7639 -0.4807
   97SAPS   H8Y 9710   5.278   1.621   7.816 -0.8489 -0.8774  2.5696
   97SAPS   C39 9711   5.100   1.520   7.888 -0.2727 -0.8321  0.1783
   97SAPS   H9X 9712   4.991   1.516   7.868 -0.1515  0.1581 -0.7771
   97SAPS   H9Y 9713   5.121   1.573   7.983  1.5838 -1.4472  0.1340
   97SAPS  C310 9714   5.163   1.380   7.901  0.0144 -1.0048  0.1138
   97SAPS  H10X 9715   5.272   1.380   7.881 -0.3596  1.5829 -2.3379
   97SAPS  H10Y 9716   5.130   1.324   7.810  0.7709 -1.5499  0.1668
   97SAPS  C311 9717   5.125   1.308   8.030  0.5603  0.7816  0.0493
   97SAPS  H11X 9718   5.175   1.209   8.024 -1.4015 -0.2216 -0.1073
   97SAPS  H11Y 9719   5.015   1.294   8.027  0.2976  2.8077 -0.9695
   97SAPS  C312 9720   5.182   1.363   8.166  0.0155 -0.0026  0.2222
   97SAPS  H12X 9721   5.131   1.458   8.192 -3.6143 -1.7451 -0.3070
   97SAPS  H12Y 9722   5.291   1.376   8.147 -0.0582  0.7646  0.2913
   97SAPS  C313 9723   5.150   1.277   8.287  0.0107 -0.9364 -0.9658
   97SAPS  H13X 9724   5.039   1.283   8.292  0.1368  2.7274 -1.0181
   97SAPS  H13Y 9725   5.204   1.311   8.378  1.0109 -1.7480 -1.2526
   97SAPS  C314 9726   5.208   1.135   8.281 -0.0615  0.4729 -0.1836
   97SAPS  H14X 9727   5.307   1.144   8.231 -0.5428  4.6920 -0.6176
   97SAPS  H14Y 9728   5.144   1.075   8.213 -3.0384 -0.0439  2.9460
   97SAPS  C315 9729   5.222   1.067   8.421  0.6668  0.8347 -0.4109
   97SAPS  H15X 9730   5.126   1.080   8.475 -2.3835 -1.0464 -5.0438
   97SAPS  H15Y 9731   5.303   1.117   8.479  1.7992 -2.4102  0.9397
   97SAPS  C316 9732   5.256   0.912   8.421  0.6661  0.0076  0.4680
   97SAPS  H16X 9733   5.317   0.883   8.333  0.7561 -1.0923  0.8820
   97SAPS  H16Y 9734   5.160   0.857   8.417 -1.6497  4.0179 -1.1615
   97SAPS  C317 9735   5.328   0.854   8.548  0.9048 -0.3315 -0.1886
   97SAPS  H17X 9736   5.425   0.904   8.568  0.2228  0.6078  0.8285
   97SAPS  H17Y 9737   5.367   0.753   8.523 -0.7053 -1.2983  1.1321
   97SAPS  C318 9738   5.233   0.851   8.669  0.1828 -0.0082  0.2430
   97SAPS  H18X 9739   5.208   0.950   8.712  0.3059 -0.4841  1.4288
   97SAPS  H18Y 9740   5.282   0.800   8.755 -0.7039 -2.1135 -0.4698
   97SAPS  H18Z 9741   5.130   0.812   8.657  0.3366 -1.0744  2.1004
   98SAPS     N 9742   3.510   2.576   5.789 -0.1919 -0.1831  0.3958
   98SAPS   HN1 9743   3.584   2.552   5.858 -0.3186 -1.1270  0.2052
   98SAPS   HN2 9744   3.543   2.579   5.691 -1.3483  0.6405  0.0202
   98SAPS   HN3 9745   3.480   2.672   5.817  0.0744  0.2938 -0.9425
   98SAPS   C12 9746   3.390   2.492   5.808 -0.0019  0.9069  0.0486
   98SAPS  H12A 9747   3.301   2.550   5.787 -0.3525 -0.4684 -2.4820
   98SAPS   C13 9748   3.376   2.371   5.708  0.8936  0.5451 -0.6210
   98SAPS  O13A 9749   3.468   2.371   5.622 -0.2856  0.0936  0.1598
   98SAPS  O13B 9750   3.281   2.291   5.712  0.1497 -0.0888 -0.4785
   98SAPS   C11 9751   3.374   2.433   5.952 -0.1019 -0.1738 -1.0235
   98SAPS  H11A 9752   3.454   2.360   5.976 -0.1046 -0.2093 -1.1222
   98SAPS  H11B 9753   3.273   2.387   5.959  0.4005 -1.2656 -0.8790
   98SAPS     P 9754   3.280   2.594   6.143 -0.4987  0.0102 -0.2816
   98SAPS   O13 9755   3.275   2.740   6.117  0.4705 -0.1832 -0.4772
   98SAPS   O14 9756   3.154   2.517   6.125 -0.2326  0.0361  0.1933
   98SAPS   O12 9757   3.392   2.543   6.046  0.1316 -0.1592 -0.5918
   98SAPS   O11 9758   3.338   2.555   6.283 -0.4966 -0.5133  0.4851
   98SAPS    C1 9759   3.394   2.430   6.316  0.3535  0.9075  0.6726
   98SAPS    HA 9760   3.411   2.359   6.232 -1.0391  1.5334 -0.1441
   98SAPS    HB 9761   3.496   2.450   6.354  1.1168 -1.2669 -0.1297
   98SAPS    C2 9762   3.313   2.361   6.429 -0.3701 -0.1030  0.4917
   98SAPS    HS 9763   3.207   2.371   6.396 -0.1817 -0.9103 -0.3590
   98SAPS   O21 9764   3.335   2.425   6.556 -0.1798 -0.3352 -0.6246
   98SAPS   C21 9765   3.229   2.421   6.637  1.2683  0.3016 -0.2378
   98SAPS   O22 9766   3.120   2.380   6.599  0.0887  0.0034 -0.6041
   98SAPS   C22 9767   3.283   2.471   6.771  0.2965 -0.2391  0.1576
   98SAPS   H2R 9768   3.388   2.437   6.775  0.4552 -0.0499 -1.8650
   98SAPS   H2S 9769   3.288   2.582   6.768 -0.9540 -0.1199  1.7950
   98SAPS    C3 9770   3.336   2.207   6.434 -0.0015  0.3626 -0.0282
   98SAPS    HX 9771   3.293   2.175   6.336  2.0563 -1.7743 -0.2814
   98SAPS    HY 9772   3.272   2.152   6.506 -2.3872  0.8857 -1.6763
   98SAPS   O31 9773   3.481   2.171   6.436 -0.2500 -0.1796  0.0060
   98SAPS   C31 9774   3.524   2.148   6.562 -0.2031  0.3179 -0.4631
   98SAPS   O32 9775   3.457   2.164   6.659  0.2778 -0.4207 -0.4274
   98SAPS   C32 9776   3.669   2.095   6.556  0.1620  0.0916  0.7835
   98SAPS   H2X 9777   3.726   2.185   6.524 -0.9197  0.4244 -0.2061
   98SAPS   H2Y 9778   3.664   2.008   6.486 -0.2540 -0.4662  1.4949
   98SAPS   C23 9779   3.198   2.425   6.886  0.4775  0.2335 -0.0974
   98SAPS   H3R 9780   3.176   2.316   6.875 -0.7285  0.4808 -0.2776
   98SAPS   H3S 9781   3.103   2.482   6.870  0.1929  0.2774  1.7128
   98SAPS   C24 9782   3.240   2.438   7.031  0.0687  0.0956  0.0630
   98SAPS   H4R 9783   3.283   2.539   7.045 -1.2239  0.3730  2.3363
   98SAPS   H4S 9784   3.314   2.369   7.078 -1.9262 -0.8159  1.9940
   98SAPS   C25 9785   3.118   2.428   7.113  0.0293 -0.5358 -0.1126
   98SAPS   H5R 9786   3.047   2.511   7.103 -0.3488 -0.8026  0.3909
   98SAPS   C26 9787   3.085   2.324   7.188 -0.4524 -0.8661  0.1302
   98SAPS   H6R 9788   2.991   2.340   7.243 -0.8895 -1.3248 -0.4738
   98SAPS   C27 9789   3.170   2.200   7.211 -0.5855 -0.5529  0.1101
   98SAPS   H7R 9790   3.259   2.226   7.272 -0.6682 -2.3440  1.0360
   98SAPS   H7S 9791   3.212   2.166   7.114  0.5291 -0.3815  0.5214
   98SAPS   C28 9792   3.105   2.084   7.278 -0.1321  0.2274 -0.6282
   98SAPS   H8R 9793   3.086   1.999   7.210  0.7749 -0.7357  0.2998
   98SAPS   C29 9794   3.089   2.053   7.411 -0.3109 -0.4281  0.1296
   98SAPS   H9R 9795   3.022   1.974   7.449  1.0148 -1.2991  0.7222
   98SAPS  C210 9796   3.134   2.138   7.519  0.2762  0.1960 -0.0259
   98SAPS  H10R 9797   3.064   2.118   7.603 -0.5354  0.0355 -0.7395
   98SAPS  H10S 9798   3.123   2.247   7.500  2.1443  0.0036 -2.5395
   98SAPS  C211 9799   3.280   2.118   7.558 -0.5001  0.3731  0.2083
   98SAPS  H11R 9800   3.333   2.047   7.494 -1.9704  0.3396 -0.9925
   98SAPS  C212 9801   3.335   2.161   7.673 -0.8694 -0.2613 -0.0254
   98SAPS  H12R 9802   3.437   2.125   7.695 -0.5476  1.5779  1.6752
   98SAPS  C213 9803   3.269   2.239   7.788 -1.2120 -0.1102  0.1371
   98SAPS  H13R 9804   3.184   2.301   7.751  1.8982  3.5995 -1.1203
   98SAPS  H13S 9805   3.341   2.314   7.827  0.5516  0.3001 -3.6859
   98SAPS  C214 9806   3.238   2.150   7.906 -0.4124 -0.1000  0.8349
   98SAPS  H14R 9807   3.180   2.060   7.881 -0.3677  0.0541  0.1615
   98SAPS  C215 9808   3.264   2.178   8.029 -0.0363 -0.7214 -0.7087
   98SAPS  H15R 9809   3.228   2.112   8.109 -0.0345 -0.8779 -0.8371
   98SAPS  C216 9810   3.334   2.291   8.091 -0.2866 -0.9764 -0.9103
   98SAPS  H16R 9811   3.389   2.354   8.018 -0.9124 -1.1564 -1.5431
   98SAPS  H16S 9812   3.412   2.237   8.150 -0.7067  0.5560  1.1206
   98SAPS  C217 9813   3.252   2.387   8.183  0.6561 -0.3009 -0.0383
   98SAPS  H17R 9814   3.169   2.439   8.131  1.5680 -0.0153 -1.2373
   98SAPS  H17S 9815   3.320   2.465   8.224  1.9193 -1.5031  0.1858
   98SAPS  C218 9816   3.199   2.316   8.307  0.8204  0.9559  0.5951
   98SAPS  H18R 9817   3.285   2.266   8.357 -0.4459 -0.2488  1.6206
   98SAPS  H18S 9818   3.135   2.229   8.281 -1.5629  2.2519  1.9756
   98SAPS  C219 9819   3.115   2.411   8.401  0.0213 -0.1967 -0.2028
   98SAPS  H19R 9820   3.186   2.489   8.436  0.4526  0.2522 -2.0169
   98SAPS  H19S 9821   3.072   2.356   8.488 -1.0475  0.0210 -0.5921
   98SAPS  C220 9822   2.999   2.478   8.323  0.8181  0.5001 -0.2623
   98SAPS  H20R 9823   2.942   2.407   8.259 -0.6959  0.4402  1.1202
   98SAPS  H20S 9824   3.040   2.547   8.247 -1.4787  1.1469 -0.9593
   98SAPS  H20T 9825   2.931   2.537   8.388  0.7040  1.0403 -0.8805
   98SAPS   C33 9826   3.716   2.027   6.681  0.8200  0.0445  0.1753
   98SAPS   H3X 9827   3.790   1.946   6.660  2.0689  0.7717  1.6354
   98SAPS   H3Y 9828   3.635   1.966   6.726 -0.7624  2.2949  0.4099
   98SAPS   C34 9829   3.759   2.127   6.783 -1.5063 -0.2064 -0.4330
   98SAPS   H4X 9830   3.688   2.213   6.790 -0.1421  1.0927 -1.9569
   98SAPS   H4Y 9831   3.845   2.191   6.752 -2.3778  1.1590 -0.0566
   98SAPS   C35 9832   3.789   2.065   6.916  0.7597  0.1152  0.1505
   98SAPS   H5X 9833   3.865   2.129   6.965  0.0681 -1.0290  2.7661
   98SAPS   H5Y 9834   3.826   1.961   6.912  1.7384  0.5014 -1.0031
   98SAPS   C36 9835   3.667   2.054   7.015  0.0228 -0.5157  0.3626
   98SAPS   H6X 9836   3.581   2.020   6.953 -0.1145  0.1715  0.1717
   98SAPS   H6Y 9837   3.647   2.159   7.045  0.8197 -0.1407 -0.4150
   98SAPS   C37 9838   3.703   1.964   7.143  0.5986  0.3238  0.0645
   98SAPS   H7X 9839   3.793   2.015   7.184 -1.3014  2.0011  2.3189
   98SAPS   H7Y 9840   3.737   1.866   7.105  2.9314  1.3935 -0.6806
   98SAPS   C38 9841   3.600   1.948   7.248  0.5628 -0.0402 -0.2948
   98SAPS   H8X 9842   3.505   1.918   7.199  0.2622  0.3325  0.0542
   98SAPS   H8Y 9843   3.588   2.047   7.297  3.5855 -1.1619  2.9966
   98SAPS   C39 9844   3.623   1.829   7.343 -0.4190 -0.3968  0.4476
   98SAPS   H9X 9845   3.726   1.853   7.375 -0.9126 -1.0456  2.5952
   98SAPS   H9Y 9846   3.635   1.735   7.285  0.9465  2.2892 -3.8137
   98SAPS  C310 9847   3.519   1.805   7.459  0.0392 -0.0966 -0.7219
   98SAPS  H10X 9848   3.417   1.795   7.417 -0.5940  0.1701  0.7425
   98SAPS  H10Y 9849   3.515   1.900   7.516  0.3380 -1.4411  1.5856
   98SAPS  C311 9850   3.558   1.692   7.558 -0.0118  0.9141  0.4897
   98SAPS  H11X 9851   3.668   1.692   7.575  0.3274  2.8460 -1.4836
   98SAPS  H11Y 9852   3.543   1.596   7.505  3.3055 -0.2470  1.5569
   98SAPS  C312 9853   3.471   1.677   7.685  0.4871 -0.0844 -0.8297
   98SAPS  H12X 9854   3.363   1.692   7.665 -0.0080  0.1370  1.8554
   98SAPS  H12Y 9855   3.507   1.749   7.762 -1.1541 -0.8798  0.6882
   98SAPS  C313 9856   3.487   1.538   7.736 -0.2669  0.0282 -0.5471
   98SAPS  H13X 9857   3.595   1.511   7.742  0.5174  2.8205 -1.3616
   98SAPS  H13Y 9858   3.425   1.462   7.684  0.2602 -0.7438 -0.0542
   98SAPS  C314 9859   3.442   1.527   7.884  0.2337 -0.7413 -0.6170
   98SAPS  H14X 9860   3.331   1.534   7.888  0.4066  2.2281  0.2923
   98SAPS  H14Y 9861   3.498   1.607   7.937  0.0410  0.1541 -1.7479
   98SAPS  C315 9862   3.459   1.386   7.944 -0.1867 -0.3992  0.4811
   98SAPS  H15X 9863   3.560   1.341   7.934 -1.0608 -2.5367  1.0254
   98SAPS  H15Y 9864   3.392   1.316   7.890  2.0237 -0.3496 -2.4740
   98SAPS  C316 9865   3.411   1.387   8.091  0.4301 -0.2771 -0.7547
   98SAPS  H16X 9866   3.314   1.440   8.098 -0.4971 -2.1664  1.6074
   98SAPS  H16Y 9867   3.482   1.447   8.150 -1.1545  1.5663 -0.6781
   98SAPS  C317 9868   3.379   1.242   8.141 -0.0968 -0.5194 -0.1519
   98SAPS  H17X 9869   3.463   1.170   8.128 -0.1599 -0.9420  1.6641
   98SAPS  H17Y 9870   3.297   1.204   8.077 -2.0456  0.3269  1.8140
   98SAPS  C318 9871   3.326   1.238   8.286  0.2804  1.0387  0.4042
   98SAPS  H18X 9872   3.226   1.287   8.285 -0.6533 -0.8221 -0.3529
   98SAPS  H18Y 9873   3.405   1.271   8.356  0.7785 -0.6733  0.6774
   98SAPS  H18Z 9874   3.303   1.133   8.314 -0.4117  0.3303 -2.6413
   99SAPS     N 9875   2.834   6.472   5.775 -0.3021 -0.2879 -0.1920
   99SAPS   HN1 9876   2.840   6.548   5.705 -0.7344  0.3566  0.4620
   99SAPS   HN2 9877   2.925   6.470   5.826 -1.3128  1.4848  1.7257
   99SAPS   HN3 9878   2.817   6.380   5.730 -0.7609 -0.3602  0.1298
   99SAPS   C12 9879   2.732   6.500   5.874 -0.0215  0.0061  0.1100
   99SAPS  H12A 9880   2.785   6.559   5.948 -1.5044  2.6132 -0.8374
   99SAPS   C13 9881   2.611   6.579   5.823  0.5565 -0.2532  0.2341
   99SAPS  O13A 9882   2.586   6.613   5.707 -0.4593 -0.1067  0.1984
   99SAPS  O13B 9883   2.528   6.607   5.915 -0.1722 -0.6977 -0.3057
   99SAPS   C11 9884   2.669   6.378   5.927 -0.1544 -0.5702  0.2043
   99SAPS  H11A 9885   2.636   6.308   5.847 -1.8950 -0.7445  1.0293
   99SAPS  H11B 9886   2.574   6.400   5.980  0.4319  0.3096  0.9088
   99SAPS     P 9887   2.758   6.314   6.170  0.3282 -0.0596  0.4239
   99SAPS   O13 9888   2.630   6.258   6.221 -0.1913 -0.1073  0.4042
   99SAPS   O14 9889   2.886   6.244   6.219  0.1863 -0.1810 -0.3963
   99SAPS   O12 9890   2.764   6.311   6.011 -0.5216 -0.5295  0.8982
   99SAPS   O11 9891   2.763   6.471   6.202 -0.8629 -0.2322 -0.4573
   99SAPS    C1 9892   2.882   6.552   6.232  0.0282  0.3902 -0.2585
   99SAPS    HA 9893   2.957   6.529   6.154  1.2472  0.1734  0.9695
   99SAPS    HB 9894   2.864   6.662   6.224  2.2205  1.0001  2.7050
   99SAPS    C2 9895   2.939   6.532   6.372  0.0742  0.4308 -0.0828
   99SAPS    HS 9896   2.989   6.434   6.384 -0.9388 -0.1441 -0.4761
   99SAPS   O21 9897   2.838   6.565   6.469 -0.5805 -0.5350  0.8770
   99SAPS   C21 9898   2.786   6.461   6.529 -0.1462  0.3002  0.3084
   99SAPS   O22 9899   2.817   6.342   6.517  0.2569  0.1435  0.1897
   99SAPS   C22 9900   2.692   6.515   6.634 -0.4255  0.2608  0.7207
   99SAPS   H2R 9901   2.728   6.584   6.713 -2.5042 -0.9269  2.7781
   99SAPS   H2S 9902   2.610   6.565   6.577 -1.3903 -0.0978  1.7966
   99SAPS    C3 9903   3.057   6.625   6.390 -0.2766 -0.2344  0.0260
   99SAPS    HX 9904   3.022   6.730   6.392 -3.8214 -1.3285 -1.1638
   99SAPS    HY 9905   3.123   6.605   6.303 -1.7287 -1.6670 -0.7805
   99SAPS   O31 9906   3.137   6.599   6.503  0.5656  0.0402  0.2451
   99SAPS   C31 9907   3.094   6.632   6.624 -0.6183 -0.1998  0.0818
   99SAPS   O32 9908   3.004   6.708   6.651 -0.0018  0.2629 -0.2545
   99SAPS   C32 9909   3.183   6.556   6.722 -0.0077 -0.2825 -0.4215
   99SAPS   H2X 9910   3.286   6.572   6.682 -0.3376  1.7503 -0.5233
   99SAPS   H2Y 9911   3.161   6.448   6.710 -0.5773 -0.0770 -1.2607
   99SAPS   C23 9912   2.607   6.410   6.714  0.5191 -0.5825 -0.5461
   99SAPS   H3R 9913   2.670   6.365   6.794 -1.5372 -0.7301  1.0486
   99SAPS   H3S 9914   2.573   6.322   6.657  1.2969 -0.9583 -0.4352
   99SAPS   C24 9915   2.488   6.468   6.793  0.3767 -0.1521  0.0413
   99SAPS   H4R 9916   2.535   6.543   6.860 -2.4415  0.5013  1.3792
   99SAPS   H4S 9917   2.457   6.383   6.858  0.7736 -2.1755 -2.3356
   99SAPS   C25 9918   2.373   6.517   6.705 -0.3658  0.4851  0.0055
   99SAPS   H5R 9919   2.387   6.503   6.596  0.9920 -2.0450  0.4749
   99SAPS   C26 9920   2.259   6.570   6.748 -0.3627 -0.7918 -0.0220
   99SAPS   H6R 9921   2.184   6.605   6.676  1.0282 -0.5586 -1.3700
   99SAPS   C27 9922   2.230   6.594   6.897 -0.1461  0.0793  0.6689
   99SAPS   H7R 9923   2.262   6.501   6.947  0.4195  0.0002  0.1591
   99SAPS   H7S 9924   2.119   6.598   6.900 -0.2180 -0.6533 -0.4798
   99SAPS   C28 9925   2.291   6.730   6.939  0.2307 -0.1956 -0.2518
   99SAPS   H8R 9926   2.372   6.770   6.877  1.5719 -2.6935 -0.1790
   99SAPS   C29 9927   2.249   6.814   7.035  0.1483  0.8216 -0.4023
   99SAPS   H9R 9928   2.302   6.904   7.069  0.3989 -0.0124  1.4520
   99SAPS  C210 9929   2.129   6.793   7.122 -0.3017  0.1616 -0.3615
   99SAPS  H10R 9930   2.056   6.746   7.053  0.6880  1.9916 -2.7730
   99SAPS  H10S 9931   2.076   6.886   7.149 -0.3991  0.6939 -2.2993
   99SAPS  C211 9932   2.164   6.700   7.238  0.1574  0.2240 -0.5761
   99SAPS  H11R 9933   2.205   6.602   7.208  1.6132  1.0860 -1.4256
   99SAPS  C212 9934   2.174   6.734   7.367 -0.0487  0.5273  0.2260
   99SAPS  H12R 9935   2.208   6.663   7.443 -1.8410 -0.4358  0.1468
   99SAPS  C213 9936   2.147   6.874   7.423 -0.1521  0.1116  0.5819
   99SAPS  H13R 9937   2.042   6.883   7.458 -0.9879 -2.0682 -1.2503
   99SAPS  H13S 9938   2.148   6.945   7.338 -0.3155 -0.5092  0.0591
   99SAPS  C214 9939   2.234   6.932   7.534 -0.3996 -0.1512 -0.1574
   99SAPS  H14R 9940   2.289   7.022   7.503 -1.7369  0.9389  0.5721
   99SAPS  C215 9941   2.250   6.889   7.663  0.1460  1.1027  0.1132
   99SAPS  H15R 9942   2.314   6.953   7.725 -0.6838  0.3423  1.8118
   99SAPS  C216 9943   2.190   6.763   7.727 -0.2260 -0.2281  0.5461
   99SAPS  H16R 9944   2.272   6.692   7.751  1.4452  1.8603  1.1496
   99SAPS  H16S 9945   2.130   6.713   7.649  1.3229 -0.9512 -0.1955
   99SAPS  C217 9946   2.102   6.787   7.847  0.2921  0.4362 -0.4286
   99SAPS  H17R 9947   2.014   6.853   7.828 -0.8171 -0.3772  1.6241
   99SAPS  H17S 9948   2.169   6.840   7.919 -0.1696 -1.6064  1.5592
   99SAPS  C218 9949   2.030   6.665   7.913  0.6474  0.4063  0.0649
   99SAPS  H18R 9950   2.113   6.591   7.921  2.0748  1.9283 -0.3059
   99SAPS  H18S 9951   1.943   6.638   7.850  0.1620 -0.6328  1.1510
   99SAPS  C219 9952   1.968   6.681   8.051  0.3488 -0.0151 -0.0053
   99SAPS  H19R 9953   2.046   6.745   8.096  0.7406 -1.2727  1.1348
   99SAPS  H19S 9954   1.969   6.585   8.107  0.1709 -0.2680 -0.4320
   99SAPS  C220 9955   1.833   6.758   8.052  0.5767 -0.0068 -0.0584
   99SAPS  H20R 9956   1.756   6.711   7.987  2.0183 -1.0393 -1.0466
   99SAPS  H20S 9957   1.844   6.862   8.015  0.8947  0.6109  1.7371
   99SAPS  H20T 9958   1.819   6.757   8.162  2.0995 -2.4940  0.1542
   99SAPS   C33 9959   3.170   6.608   6.868  0.6393  0.1448 -0.1408
   99SAPS   H3X 9960   3.082   6.557   6.912  0.1309  1.7021  0.6809
   99SAPS   H3Y 9961   3.142   6.715   6.873 -2.5770 -0.7727  2.4370
   99SAPS   C34 9962   3.287   6.577   6.956 -0.1550 -0.3895  0.0639
   99SAPS   H4X 9963   3.376   6.639   6.936 -1.3984  1.5796  0.5357
   99SAPS   H4Y 9964   3.302   6.469   6.935 -0.5828 -1.2833  3.8411
   99SAPS   C35 9965   3.255   6.603   7.107 -0.4447 -0.5698 -0.4798
   99SAPS   H5X 9966   3.188   6.691   7.112 -0.1569 -0.3967  0.3877
   99SAPS   H5Y 9967   3.348   6.627   7.161 -0.2676  0.3054 -1.1613
   99SAPS   C36 9968   3.197   6.483   7.185 -0.3238 -1.0465 -0.3632
   99SAPS   H6X 9969   3.266   6.396   7.183  0.0475 -0.8100  1.0618
   99SAPS   H6Y 9970   3.107   6.451   7.128 -0.7265  2.9734 -2.1550
   99SAPS   C37 9971   3.162   6.515   7.328  0.3113  0.0160  0.1552
   99SAPS   H7X 9972   3.078   6.588   7.327 -0.1082 -0.3853  2.2643
   99SAPS   H7Y 9973   3.243   6.568   7.382 -1.1696  1.7625  0.7270
   99SAPS   C38 9974   3.127   6.387   7.409  0.1521  0.2955 -0.0094
   99SAPS   H8X 9975   3.224   6.333   7.422  0.8147  1.3589 -0.4135
   99SAPS   H8Y 9976   3.047   6.328   7.360  0.4883 -0.3051  0.1600
   99SAPS   C39 9977   3.082   6.436   7.545 -0.1815 -0.1655 -0.0949
   99SAPS   H9X 9978   2.991   6.499   7.534 -2.0231 -2.6794  0.0535
   99SAPS   H9Y 9979   3.164   6.499   7.585  0.6397 -0.6126 -1.0559
   99SAPS  C310 9980   3.039   6.324   7.646  0.2674  0.4091 -0.2198
   99SAPS  H10X 9981   3.127   6.280   7.696 -1.4585 -0.6109  2.0364
   99SAPS  H10Y 9982   2.971   6.258   7.588  0.6595  0.9764 -1.3492
   99SAPS  C311 9983   2.942   6.378   7.761 -0.0763 -0.4346  0.1196
   99SAPS  H11X 9984   2.861   6.429   7.704  0.8767  0.5981 -0.3258
   99SAPS  H11Y 9985   3.003   6.454   7.814  0.9208 -1.4036  0.3560
   99SAPS  C312 9986   2.887   6.267   7.849  0.0406 -0.4369  0.4359
   99SAPS  H12X 9987   2.976   6.208   7.882  2.1777  1.5935 -1.5234
   99SAPS  H12Y 9988   2.823   6.195   7.794  2.6233 -1.6535 -1.0518
   99SAPS  C313 9989   2.818   6.309   7.980  0.0761 -0.7480 -0.7809
   99SAPS  H13X 9990   2.764   6.216   8.010  0.1644  0.2395  2.5458
   99SAPS  H13Y 9991   2.750   6.396   7.975 -0.3915 -1.0534  0.1590
   99SAPS  C314 9992   2.924   6.340   8.088  0.6553  0.0397 -0.4541
   99SAPS  H14X 9993   2.972   6.434   8.054  0.6534 -0.7476 -2.7143
   99SAPS  H14Y 9994   2.990   6.252   8.103  0.6336  0.3989  1.9083
   99SAPS  C315 9995   2.866   6.356   8.231  0.2723 -0.1351 -0.2074
   99SAPS  H15X 9996   2.936   6.310   8.304  2.2893 -0.0187 -2.0155
   99SAPS  H15Y 9997   2.778   6.288   8.228  2.3400 -2.7948 -2.6811
   99SAPS  C316 9998   2.830   6.511   8.268 -0.0686 -0.8431 -0.5212
   99SAPS  H16X 9999   2.738   6.536   8.212  1.7584  1.3770 -2.6722
   99SAPS  H16Y10000   2.920   6.569   8.236 -2.0403  1.6265 -1.7192
   99SAPS  C31710001   2.802   6.541   8.418 -0.6203 -0.2111  0.0048
   99SAPS  H17X10002   2.894   6.520   8.477  0.5703  2.0537 -1.0015
   99SAPS  H17Y10003   2.720   6.473   8.449  1.4925 -2.8283  0.0157
   99SAPS  C31810004   2.772   6.689   8.442 -0.1049 -0.0159 -0.0027
   99SAPS  H18X10005   2.798   6.722   8.545 -0.5077 -2.8038  1.0106
   99SAPS  H18Y10006   2.665   6.714   8.427 -0.0358  0.4093  0.1965
   99SAPS  H18Z10007   2.836   6.749   8.373 -3.4650  1.7459 -1.6891
  100SAPS     N10008   5.909   1.093   6.258 -0.0153  0.3888 -0.6674
  100SAPS   HN110009   5.900   1.163   6.335 -0.1773  1.5791 -1.7360
  100SAPS   HN210010   5.897   0.994   6.286  0.1193  0.0507 -1.7895
  100SAPS   HN310011   6.003   1.116   6.220  0.4888 -0.2438  0.1756
  100SAPS   C1210012   5.821   1.124   6.140  0.8964  0.0021  0.7355
  100SAPS  H12A10013   5.859   1.216   6.098  2.6322 -0.9716  0.1351
  100SAPS   C1310014   5.841   1.023   6.024 -0.7413 -0.4043 -0.1095
  100SAPS  O13A10015   5.921   0.922   6.024 -0.4770 -0.5881 -0.1056
  100SAPS  O13B10016   5.781   1.058   5.923 -0.5471  0.1812  0.3413
  100SAPS   C1110017   5.674   1.136   6.185  0.0063  0.0078  0.5892
  100SAPS  H11A10018   5.610   1.156   6.097  0.6091 -1.3213 -0.1695
  100SAPS  H11B10019   5.668   1.237   6.230 -1.5580  0.1114  0.1612
  100SAPS     P10020   5.469   1.048   6.305 -0.0619 -0.2787 -0.3016
  100SAPS   O1310021   5.414   1.180   6.276 -0.2661  0.0275  0.7636
  100SAPS   O1410022   5.392   0.933   6.251 -0.0403 -0.6271  0.3216
  100SAPS   O1210023   5.620   1.028   6.259 -0.4056 -0.8065 -0.1920
  100SAPS   O1110024   5.478   1.037   6.466  0.2332  0.0429  0.5019
  100SAPS    C110025   5.559   0.935   6.522  0.2275  0.1160 -1.2926
  100SAPS    HA10026   5.495   0.851   6.556  1.2963 -0.2311 -0.0523
  100SAPS    HB10027   5.643   0.896   6.462  0.9271 -0.2710 -0.0866
  100SAPS    C210028   5.629   0.995   6.653 -0.3521  0.8982  0.7140
  100SAPS    HS10029   5.684   0.912   6.702  0.7391  1.8376  1.1091
  100SAPS   O2110030   5.535   1.060   6.739  0.0756 -0.2008  0.2998
  100SAPS   C2110031   5.486   0.972   6.827  0.0216 -0.0651 -0.4204
  100SAPS   O2210032   5.525   0.858   6.844 -0.1006  0.4799  0.3144
  100SAPS   C2210033   5.393   1.050   6.918 -0.1585 -0.2723  0.4188
  100SAPS   H2R10034   5.431   1.154   6.930 -1.6937  0.5988 -1.8504
  100SAPS   H2S10035   5.291   1.066   6.876  0.3981  0.6462 -0.6201
  100SAPS    C310036   5.733   1.101   6.603  0.3137 -0.0804  0.5303
  100SAPS    HX10037   5.696   1.153   6.512 -1.7141  2.2941  2.6483
  100SAPS    HY10038   5.814   1.036   6.564 -1.0318  0.0496 -2.5905
  100SAPS   O3110039   5.782   1.195   6.704  0.3066  0.1222 -0.3983
  100SAPS   C3110040   5.728   1.311   6.697  0.5207 -0.3169  0.6626
  100SAPS   O3210041   5.637   1.352   6.622 -0.0100  0.1182 -0.3876
  100SAPS   C3210042   5.772   1.406   6.802 -0.1733 -0.5235  0.1428
  100SAPS   H2X10043   5.825   1.488   6.750 -1.7938  1.1899  1.1296
  100SAPS   H2Y10044   5.845   1.366   6.876 -0.6043 -2.2777 -0.3595
  100SAPS   C2310045   5.368   0.984   7.053  0.0553  0.1046  0.0013
  100SAPS   H3R10046   5.461   0.974   7.113 -0.5034  1.0568  1.0580
  100SAPS   H3S10047   5.338   0.880   7.028 -0.5185  0.5937 -1.4408
  100SAPS   C2410048   5.268   1.063   7.151 -0.5720  0.5503  0.0549
  100SAPS   H4R10049   5.243   1.002   7.241  1.0882  1.0215  0.8692
  100SAPS   H4S10050   5.179   1.077   7.087 -0.5742 -1.4684 -0.4010
  100SAPS   C2510051   5.313   1.200   7.199 -0.4122  0.7799  0.5701
  100SAPS   H5R10052   5.301   1.279   7.124  0.0413  1.7169  1.4634
  100SAPS   C2610053   5.358   1.230   7.323 -0.3418  0.0584 -0.4106
  100SAPS   H6R10054   5.386   1.333   7.346  3.7536 -0.7783 -1.2416
  100SAPS   C2710055   5.362   1.136   7.440 -0.0790  0.4014 -1.0839
  100SAPS   H7R10056   5.335   1.031   7.416  2.6601 -0.8144  0.9040
  100SAPS   H7S10057   5.290   1.175   7.516  3.2416  0.4817  2.1791
  100SAPS   C2810058   5.502   1.122   7.498  0.6789  0.4055 -0.3167
  100SAPS   H8R10059   5.572   1.068   7.432 -0.1418  1.9782 -2.5403
  100SAPS   C2910060   5.535   1.172   7.618 -0.4882  0.5655  0.4294
  100SAPS   H9R10061   5.632   1.148   7.665 -0.4829 -0.1600  0.0512
  100SAPS  C21010062   5.446   1.247   7.714 -0.5317 -0.4356  0.0779
  100SAPS  H10R10063   5.348   1.196   7.730 -0.0578 -0.9700  1.3684
  100SAPS  H10S10064   5.438   1.347   7.668  0.1955 -0.9293 -1.1356
  100SAPS  C21110065   5.494   1.237   7.856 -0.1234  0.3128 -0.3239
  100SAPS  H11R10066   5.484   1.138   7.902  3.2165  0.1689  0.2654
  100SAPS  C21210067   5.534   1.341   7.940 -0.3925  0.0028  0.2001
  100SAPS  H12R10068   5.559   1.316   8.045  0.8849 -0.6315 -0.2531
  100SAPS  C21310069   5.540   1.487   7.914 -0.3724 -0.2017 -0.0224
  100SAPS  H13R10070   5.467   1.540   7.979 -0.1897  1.1684 -0.9075
  100SAPS  H13S10071   5.503   1.524   7.816 -0.7379  0.3646  0.3277
  100SAPS  C21410072   5.684   1.544   7.925 -0.0868 -0.0625  0.1741
  100SAPS  H14R10073   5.734   1.553   7.827  1.9162 -0.7034  1.0959
  100SAPS  C21510074   5.754   1.581   8.035 -0.4237  0.2942  0.1253
  100SAPS  H15R10075   5.853   1.628   8.025 -0.0684 -0.3617  0.6018
  100SAPS  C21610076   5.691   1.578   8.178 -0.0726 -1.5532  0.3596
  100SAPS  H16R10077   5.581   1.569   8.172 -0.0439 -2.5603  1.2874
  100SAPS  H16S10078   5.711   1.672   8.232 -1.7305 -1.1656  0.3174
  100SAPS  C21710079   5.738   1.462   8.268 -0.5313 -0.5533 -0.0541
  100SAPS  H17R10080   5.849   1.470   8.277 -0.5327 -0.1840 -0.3543
  100SAPS  H17S10081   5.710   1.363   8.228  3.4798 -0.8903 -2.3312
  100SAPS  C21810082   5.676   1.465   8.409 -0.2404  0.3076 -0.5053
  100SAPS  H18R10083   5.701   1.556   8.467  1.3877  0.1611 -0.9539
  100SAPS  H18S10084   5.730   1.388   8.470  0.2909 -0.0403 -1.4020
  100SAPS  C21910085   5.522   1.443   8.421  0.9489  0.7479 -0.8440
  100SAPS  H19R10086   5.485   1.344   8.386  0.9867  0.7567 -0.9079
  100SAPS  H19S10087   5.478   1.520   8.354 -0.2808  2.0866  1.4461
  100SAPS  C22010088   5.485   1.469   8.566 -0.7822 -0.7607  0.3259
  100SAPS  H20R10089   5.375   1.462   8.573 -0.9982  1.7658 -0.2135
  100SAPS  H20S10090   5.507   1.574   8.596  4.0319 -1.1753 -1.2751
  100SAPS  H20T10091   5.527   1.396   8.638  3.0741  0.8999 -0.1164
  100SAPS   C3310092   5.652   1.480   6.877  0.4953  0.4009 -0.5915
  100SAPS   H3X10093   5.599   1.405   6.939  2.7686 -1.0399 -0.3215
  100SAPS   H3Y10094   5.586   1.534   6.805 -0.2926  2.2730  1.4827
  100SAPS   C3410095   5.701   1.579   6.988 -0.0691 -0.1620 -0.3132
  100SAPS   H4X10096   5.628   1.661   7.008  0.0854  0.1699 -1.0967
  100SAPS   H4Y10097   5.790   1.631   6.946 -0.5464  2.6225  1.9566
  100SAPS   C3510098   5.727   1.509   7.122 -0.2772 -0.1953 -0.8993
  100SAPS   H5X10099   5.796   1.423   7.108 -0.1691 -0.6478  2.1772
  100SAPS   H5Y10100   5.641   1.453   7.163  0.7983 -1.6909 -0.6302
  100SAPS   C3610101   5.769   1.591   7.243  0.7685  0.0217 -0.1096
  100SAPS   H6X10102   5.675   1.637   7.282 -0.2185 -1.0499 -1.1872
  100SAPS   H6Y10103   5.847   1.666   7.218  0.7329 -0.7307 -2.5525
  100SAPS   C3710104   5.821   1.514   7.366 -0.3504 -0.2372 -0.2048
  100SAPS   H7X10105   5.909   1.456   7.330 -0.4672 -2.1068  2.3541
  100SAPS   H7Y10106   5.750   1.436   7.401 -2.9891  0.7759 -3.0692
  100SAPS   C3810107   5.860   1.603   7.485  0.5754 -0.5647  0.0443
  100SAPS   H8X10108   5.766   1.654   7.518  1.3959  1.1153 -0.1512
  100SAPS   H8Y10109   5.934   1.680   7.456  0.0127 -0.4650 -1.1607
  100SAPS   C3910110   5.923   1.527   7.603 -0.2028  0.1928 -0.2879
  100SAPS   H9X10111   6.008   1.467   7.566  0.2951 -0.1284  1.3279
  100SAPS   H9Y10112   5.844   1.462   7.646 -0.3192 -0.8402 -2.0217
  100SAPS  C31010113   5.970   1.622   7.714  0.0938 -0.2277  0.3178
  100SAPS  H10X10114   5.879   1.669   7.757  0.5939  1.0702 -0.0143
  100SAPS  H10Y10115   6.035   1.703   7.673 -1.1985  0.3466 -0.6076
  100SAPS  C31110116   6.054   1.546   7.816  0.8271 -1.0081  0.2441
  100SAPS  H11X10117   6.125   1.482   7.759 -0.5730 -1.9672 -0.4527
  100SAPS  H11Y10118   5.988   1.487   7.883 -1.1683 -1.6185 -2.1487
  100SAPS  C31210119   6.143   1.636   7.904  0.0951 -0.3710  0.4997
  100SAPS  H12X10120   6.078   1.701   7.966 -1.1029  0.1264 -1.2326
  100SAPS  H12Y10121   6.204   1.704   7.841 -2.3768  1.6561  0.2311
  100SAPS  C31310122   6.231   1.546   7.996  0.7761  0.0226  0.5869
  100SAPS  H13X10123   6.327   1.524   7.946  1.3453 -1.4679  2.2719
  100SAPS  H13Y10124   6.176   1.451   8.012 -3.7900  2.3104 -0.7040
  100SAPS  C31410125   6.241   1.614   8.134  0.0164  1.2140  0.3918
  100SAPS  H14X10126   6.144   1.619   8.187  0.0963  0.5757  0.6009
  100SAPS  H14Y10127   6.278   1.718   8.126  1.1692  0.9365  1.8619
  100SAPS  C31510128   6.345   1.538   8.219 -0.6358 -0.0301  0.1213
  100SAPS  H15X10129   6.359   1.592   8.315  4.7722 -0.4754 -0.2412
  100SAPS  H15Y10130   6.445   1.531   8.171 -1.8520 -1.9337 -2.2503
  100SAPS  C31610131   6.318   1.394   8.254  0.2276 -0.0440 -0.2907
  100SAPS  H16X10132   6.407   1.343   8.296  0.7167  2.4806  1.9263
  100SAPS  H16Y10133   6.293   1.335   8.164 -1.3501  1.5072 -0.8969
  100SAPS  C31710134   6.203   1.393   8.357 -0.4445  0.0456  0.2792
  100SAPS  H17X10135   6.111   1.448   8.328 -0.8285 -1.5460 -1.6489
  100SAPS  H17Y10136   6.244   1.452   8.442  0.2452  0.2696 -0.2018
  100SAPS  C31810137   6.179   1.248   8.392 -0.5460  0.5073 -0.5751
  100SAPS  H18X10138   6.108   1.223   8.474  0.7924  0.8193  0.7172
  100SAPS  H18Y10139   6.275   1.203   8.428 -0.1581  2.1960  0.5849
  100SAPS  H18Z10140   6.153   1.186   8.304  1.7035 -0.2557 -0.7576
  101OSM      N10141   3.554   1.813  11.198 -0.6583  0.7690 -0.4013
  101OSM    C1510142   3.595   1.947  11.140 -0.1413  0.7481  0.0393
  101OSM   H15A10143   3.577   1.942  11.033 -1.7560 -1.8158  0.3901
  101OSM   H15B10144   3.698   1.968  11.165 -0.4682  0.0865  1.9769
  101OSM   H15C10145   3.527   2.013  11.190 -0.4661 -0.1488  0.7894
  101OSM    C1410146   3.576   1.809  11.344 -0.2587  0.1825 -0.2070
  101OSM   H14A10147   3.550   1.710  11.379  4.0082 -0.6932  0.8260
  101OSM   H14B10148   3.526   1.890  11.393  1.3249  1.1321 -0.1124
  101OSM   H14C10149   3.682   1.824  11.363 -0.2202 -1.0552  0.6550
  101OSM    C1310150   3.405   1.800  11.173  0.4955  0.7626 -0.0912
  101OSM   H13A10151   3.352   1.884  11.214 -1.7414 -0.1391 -1.0665
  101OSM   H13B10152   3.365   1.718  11.231 -0.4818  1.7442  0.6305
  101OSM   H13C10153   3.378   1.797  11.069  1.3892  1.2618 -0.3378
  101OSM    C1210154   3.627   1.706  11.125 -0.0935 -0.0574  0.2895
  101OSM   H12A10155   3.620   1.609  11.174  0.7084 -0.8262 -1.0731
  101OSM   H12B10156   3.731   1.736  11.124 -0.3808  0.9275 -0.7964
  101OSM    C1110157   3.582   1.678  10.971  0.2925 -0.4785  0.1649
  101OSM   H11A10158   3.478   1.639  10.968 -0.4113  1.1371  2.4435
  101OSM   H11B10159   3.641   1.592  10.932  1.5364  0.3725  0.1357
  101OSM      P10160   3.729   1.826  10.832  0.3627  0.4181  0.0609
  101OSM    O1310161   3.718   1.950  10.752  0.0512  0.2790 -0.0158
  101OSM    O1410162   3.832   1.808  10.943 -0.0298 -0.6866  0.5205
  101OSM    O1110163   3.759   1.720  10.725 -0.4962 -0.5639  0.5877
  101OSM    O1210164   3.584   1.802  10.893  0.1045 -0.3350  0.7217
  101OSM    C1S10165   3.669   1.690  10.617  0.5087 -0.2674  0.2107
  101OSM    H1S10166   3.588   1.766  10.618  0.6026 -0.1305 -1.4770
  101OSM    H1T10167   3.618   1.595  10.644  1.2319 -0.1716  1.9621
  101OSM     NF10168   3.630   1.670  10.390  0.0061  0.7741 -0.5201
  101OSM    HNF10169   3.598   1.582  10.358 -0.8913  1.0450 -0.3766
  101OSM    C2S10170   3.740   1.685  10.486  0.4009 -0.7196 -0.4864
  101OSM    H2S10171   3.794   1.781  10.472  1.0234 -0.9750  0.1781
  101OSM    C3S10172   3.839   1.572  10.474 -0.4874 -0.0254 -0.2520
  101OSM    H3S10173   3.788   1.474  10.461 -0.9404 -0.1109  1.9237
  101OSM     O310174   3.923   1.551  10.586  0.0096  0.6933 -0.1060
  101OSM    HO310175   3.875   1.605  10.648  0.7018  1.4326 -0.2124
  101OSM    C4S10176   3.925   1.580  10.346 -0.7512 -0.0284 -0.1759
  101OSM    H4S10177   3.877   1.541  10.255  2.4448  0.1225 -1.9938
  101OSM    C5S10178   4.050   1.632  10.327  0.2820 -0.0940 -0.3251
  101OSM    H5S10179   4.091   1.683  10.416 -1.7767 -1.2464  1.3330
  101OSM    C6S10180   4.133   1.645  10.202  0.0557  0.3388  0.3907
  101OSM    H6S10181   4.227   1.590  10.220 -0.0009  0.7307  1.9147
  101OSM    H6T10182   4.172   1.744  10.171  1.5173 -0.2533  0.3179
  101OSM    C7S10183   4.066   1.596  10.068  1.0769  0.5507  0.1027
  101OSM    H7S10184   3.984   1.668  10.045  0.4518  0.5412  2.2183
  101OSM    H7T10185   4.019   1.495  10.070  0.9469  0.4858 -2.7569
  101OSM    C8S10186   4.148   1.599   9.938  0.0046  0.1963 -0.0578
  101OSM    H8S10187   4.216   1.512   9.930  1.4877  1.5367 -2.7017
  101OSM    H8T10188   4.211   1.691   9.942 -0.5958  0.5618  1.8422
  101OSM    C9S10189   4.058   1.608   9.814 -0.2918  0.1375  0.8215
  101OSM    H9S10190   3.987   1.692   9.826 -0.5845 -0.0079  0.1413
  101OSM    H9T10191   4.011   1.511   9.785  2.0441 -0.3316 -1.5401
  101OSM   C10S10192   4.138   1.669   9.698 -0.1917 -0.4028 -0.1966
  101OSM   H10S10193   4.232   1.610   9.688  0.2304  0.2467 -0.0984
  101OSM   H10T10194   4.176   1.769   9.729  0.5532 -0.6932 -0.1677
  101OSM   C11S10195   4.064   1.661   9.567 -0.2031 -0.2488  0.2121
  101OSM   H11S10196   4.009   1.757   9.558  2.6772  1.4853  0.3389
  101OSM   H11T10197   3.999   1.571   9.567  1.9269 -1.8242 -0.7700
  101OSM   C12S10198   4.157   1.667   9.443 -0.2617  0.0425 -0.8572
  101OSM   H12S10199   4.211   1.571   9.431  1.5393  1.1994 -2.1620
  101OSM   H12T10200   4.229   1.751   9.448 -0.0461 -0.1675 -0.4119
  101OSM   C13S10201   4.075   1.697   9.322 -0.0294 -0.3009  0.1994
  101OSM   H13S10202   4.030   1.798   9.318  0.3475 -0.1835 -3.2031
  101OSM   H13T10203   3.980   1.639   9.318 -0.9173  1.1497  0.1616
  101OSM   C14S10204   4.162   1.671   9.196 -0.1950  0.1012 -0.0928
  101OSM   H14S10205   4.200   1.568   9.211  0.6163  0.3355 -0.4704
  101OSM   H14T10206   4.249   1.740   9.212 -0.3789  0.0581  1.1540
  101OSM   C15S10207   4.088   1.695   9.059  0.8310  0.2499  0.2110
  101OSM   H15S10208   4.046   1.798   9.053  0.3936  0.2840  3.0797
  101OSM   H15T10209   4.003   1.625   9.073 -0.5105  1.8280  0.1609
  101OSM   C16S10210   4.162   1.650   8.933 -0.0743 -0.2963  0.0135
  101OSM   H16S10211   4.164   1.540   8.912  1.8601  0.0575 -1.8566
  101OSM   H16T10212   4.271   1.668   8.939 -0.1152 -0.4461  1.4019
  101OSM   C17S10213   4.124   1.730   8.809 -0.3201  0.2532 -0.5034
  101OSM   H17S10214   4.168   1.828   8.834  0.1060 -0.2471  0.7220
  101OSM   H17T10215   4.018   1.728   8.774  0.0039 -1.8202 -1.4427
  101OSM   C18S10216   4.200   1.669   8.690  0.5304  0.3557  0.0378
  101OSM   H18S10217   4.311   1.670   8.701  0.7350 -2.4478 -1.5027
  101OSM   H18T10218   4.179   1.727   8.598  0.8124  0.9191  0.3265
  101OSM   H18U10219   4.173   1.566   8.661 -0.0473  1.1613 -2.3761
  101OSM    C1F10220   3.553   1.768  10.360  0.0969 -0.3553  0.4970
  101OSM     OF10221   3.568   1.876  10.411 -0.1594  0.1183  0.2697
  101OSM    C2F10222   3.438   1.752  10.262  0.6991  0.2160  0.3611
  101OSM    H2F10223   3.414   1.644  10.263 -1.0361  0.5832  0.0700
  101OSM    H2G10224   3.466   1.773  10.157 -1.4539  3.1634  0.3111
  101OSM    C3F10225   3.322   1.852  10.294  0.5627 -0.3496  0.1943
  101OSM    H3F10226   3.370   1.952  10.308  0.9195 -0.7610  1.9437
  101OSM    H3G10227   3.269   1.824  10.387 -0.1474 -2.1068 -0.7145
  101OSM    C4F10228   3.217   1.859  10.189 -0.0893 -1.1755  0.0146
  101OSM    H4F10229   3.121   1.895  10.230 -0.6287 -1.3158 -1.1041
  101OSM    H4G10230   3.204   1.754  10.155 -0.7320 -0.4440 -2.0900
  101OSM    C5F10231   3.245   1.941  10.060  0.7836  0.3694  0.4900
  101OSM    H5F10232   3.303   1.882   9.985 -0.8868 -1.3252  0.4818
  101OSM    H5G10233   3.314   2.024  10.086  3.2978 -1.5550  0.1338
  101OSM    C6F10234   3.116   1.981   9.988 -0.1822 -0.4602 -0.4353
  101OSM    H6F10235   3.041   2.011  10.065  1.1174 -0.9944  1.0794
  101OSM    H6G10236   3.081   1.887   9.940 -1.4740 -0.4287  0.4237
  101OSM    C7F10237   3.144   2.107   9.897  0.0645 -0.0938 -0.0886
  101OSM    H7F10238   3.167   2.190   9.967  2.1576 -1.2057  0.5702
  101OSM    H7G10239   3.045   2.133   9.853 -0.0294 -0.4752 -0.1045
  101OSM    C8F10240   3.248   2.104   9.793  0.4149 -0.4489  0.4883
  101OSM    H8F10241   3.348   2.104   9.841  0.9234  0.3682 -0.5508
  101OSM    H8G10242   3.230   2.195   9.730  0.4663 -0.5400  0.3408
  101OSM    C9F10243   3.244   1.982   9.703  0.7532 -0.2150  0.8805
  101OSM    H9F10244   3.286   1.886   9.736 -1.0268 -1.3821 -0.1648
  101OSM   C10F10245   3.186   1.974   9.578  0.5236  0.2720 -0.0105
  101OSM   H10F10246   3.208   1.880   9.527  1.3700 -0.5334  1.7837
  101OSM   C11F10247   3.116   2.090   9.515 -0.9568  0.0906 -0.0426
  101OSM   H11F10248   3.066   2.170   9.575 -0.1680  2.6223 -2.6190
  101OSM   H11G10249   3.035   2.041   9.455  0.0877  0.5261 -1.8526
  101OSM   C12F10250   3.209   2.168   9.424  0.4277  0.2817 -0.1030
  101OSM   H12F10251   3.254   2.107   9.343  1.9891  1.7569 -0.3824
  101OSM   H12G10252   3.301   2.182   9.485  1.7504 -0.9100 -1.7536
  101OSM   C13F10253   3.148   2.300   9.370  0.0896 -0.8361  0.2259
  101OSM   H13F10254   3.140   2.368   9.457  1.0597 -2.6420  1.7756
  101OSM   H13G10255   3.045   2.273   9.338 -0.6691  0.2272  1.7165
  101OSM   C14F10256   3.222   2.360   9.243  0.2121  0.1841  0.3255
  101OSM   H14F10257   3.171   2.456   9.221  0.5358 -0.1611 -2.0934
  101OSM   H14G10258   3.211   2.287   9.160 -2.8376 -0.3249  1.1291
  101OSM   C15F10259   3.370   2.393   9.268  0.3553  0.3240 -0.1769
  101OSM   H15F10260   3.416   2.292   9.281 -0.6857 -0.4805 -2.4511
  101OSM   H15G10261   3.381   2.462   9.355  0.9886  2.7659 -2.1513
  101OSM   C16F10262   3.435   2.479   9.155  0.0020 -0.1309 -0.9085
  101OSM   H16F10263   3.379   2.574   9.145 -1.5534 -0.9287  0.1232
  101OSM   H16G10264   3.437   2.429   9.056  1.6668 -1.4642 -0.2452
  101OSM   C17F10265   3.587   2.515   9.178  0.0896 -0.3300  0.0369
  101OSM   H17F10266   3.585   2.572   9.274 -2.4427  0.3799 -0.4163
  101OSM   H17G10267   3.624   2.588   9.103 -0.5764 -0.8659 -0.8074
  101OSM   C18F10268   3.674   2.389   9.195  0.1024  0.0817  1.0891
  101OSM   H18F10269   3.780   2.420   9.203  1.1389 -2.3274 -2.0509
  101OSM   H18G10270   3.667   2.332   9.099  1.2173  0.4939  0.7497
  101OSM   H18H10271   3.638   2.320   9.274 -1.9881 -0.4046 -0.2504
  102OSM      N10272   4.109   1.160  10.668  0.4170 -0.2850  0.0532
  102OSM    C1510273   4.129   1.014  10.631 -0.3728 -0.2422  0.1742
  102OSM   H15A10274   4.034   0.973  10.600 -0.0103 -1.5525  0.7678
  102OSM   H15B10275   4.162   0.963  10.720 -0.2672  2.0678  1.4891
  102OSM   H15C10276   4.196   1.007  10.546 -0.8221 -0.9177 -0.1251
  102OSM    C1410277   4.038   1.153  10.802  0.0171 -0.0684 -0.0201
  102OSM   H14A10278   4.032   1.252  10.845  0.2327  0.5356 -1.3733
  102OSM   H14B10279   4.094   1.097  10.876  2.2630  2.3386  0.1710
  102OSM   H14C10280   3.940   1.111  10.786 -0.4276  0.2376  1.8365
  102OSM    C1310281   4.243   1.232  10.695  0.9243  0.1414 -0.0669
  102OSM   H13A10282   4.305   1.232  10.607  0.7248 -2.9202 -0.2511
  102OSM   H13B10283   4.292   1.183  10.778  1.0327 -1.5965 -1.1278
  102OSM   H13C10284   4.223   1.333  10.727  5.0050  0.5869  1.3483
  102OSM    C1210285   4.027   1.235  10.565 -0.4854 -0.2445 -0.8801
  102OSM   H12A10286   4.087   1.291  10.495 -1.5354  2.3903  0.2685
  102OSM   H12B10287   3.975   1.316  10.613  1.4674  0.2262  0.5357
  102OSM    C1110288   3.914   1.155  10.490  0.6540 -0.6143 -0.8389
  102OSM   H11A10289   3.963   1.065  10.446  0.6829 -0.5383 -0.9641
  102OSM   H11B10290   3.878   1.211  10.401 -0.8015 -0.2710 -0.0367
  102OSM      P10291   3.734   0.990  10.550  0.0484 -0.0903 -0.2995
  102OSM    O1310292   3.830   0.878  10.551  0.8542  0.3265  0.0117
  102OSM    O1410293   3.604   0.975  10.627  0.2881  0.1887  0.5507
  102OSM    O1110294   3.707   1.029  10.396  0.0968  0.1736 -0.3177
  102OSM    O1210295   3.807   1.125  10.581  0.1053  0.3611  0.0431
  102OSM    C1S10296   3.574   1.073  10.358  0.7775  0.1630  0.0962
  102OSM    H1S10297   3.557   1.172  10.405  0.2082  0.6228 -1.0647
  102OSM    H1T10298   3.491   1.004  10.383 -0.3768  1.0991 -1.0854
  102OSM     NF10299   3.429   1.145  10.169  0.0225 -0.1108  0.4217
  102OSM    HNF10300   3.388   1.080  10.106  0.9802 -0.2880 -0.0320
  102OSM    C2S10301   3.562   1.092  10.196  0.6266  0.1737  0.1153
  102OSM    H2S10302   3.640   1.164  10.166  0.1394  0.3279 -0.7989
  102OSM    C3S10303   3.592   0.957  10.120  0.5856 -0.0696 -0.3647
  102OSM    H3S10304   3.512   0.887  10.150  1.5371 -1.0498 -0.0882
  102OSM     O310305   3.716   0.900  10.152  0.2937  0.2782  0.2246
  102OSM    HO310306   3.756   0.957  10.219 -0.7030  0.0265  1.0525
  102OSM    C4S10307   3.579   0.986   9.971 -0.3782  1.1767 -0.0467
  102OSM    H4S10308   3.480   1.026   9.944  0.2223  0.5618 -3.2772
  102OSM    C5S10309   3.675   0.976   9.876 -0.2162  0.6498  1.0453
  102OSM    H5S10310   3.780   0.964   9.907  0.2485  1.3673 -0.2369
  102OSM    C6S10311   3.645   1.001   9.728 -0.4739 -0.2948 -0.8049
  102OSM    H6S10312   3.691   1.096   9.693 -0.5538  0.7468  1.7799
  102OSM    H6T10313   3.539   0.992   9.695  0.0764 -2.1629 -2.1557
  102OSM    C7S10314   3.719   0.907   9.635  0.3917 -0.7894  0.4005
  102OSM    H7S10315   3.686   0.802   9.654 -1.2300 -0.1349  1.3635
  102OSM    H7T10316   3.827   0.915   9.660  0.1342  0.7670  1.0697
  102OSM    C8S10317   3.712   0.945   9.486  0.1833 -0.0770  0.0591
  102OSM    H8S10318   3.749   0.856   9.431 -0.8581 -0.3401 -0.2210
  102OSM    H8T10319   3.762   1.042   9.468 -0.5757  0.4518  0.7670
  102OSM    C9S10320   3.564   0.976   9.439  0.1036  0.5732 -0.4642
  102OSM    H9S10321   3.527   1.074   9.475 -0.6207  0.6111 -1.3028
  102OSM    H9T10322   3.495   0.901   9.481 -0.0708  1.2235  0.4286
  102OSM   C10S10323   3.551   0.960   9.287 -0.4067  0.0400  0.3848
  102OSM   H10S10324   3.599   0.864   9.258  1.4344  1.6483 -2.1982
  102OSM   H10T10325   3.612   1.034   9.230 -0.8093  0.2696  0.2458
  102OSM   C11S10326   3.409   0.965   9.245 -0.7769 -0.5446  0.4399
  102OSM   H11S10327   3.368   1.067   9.263 -2.1828 -1.0370  0.1032
  102OSM   H11T10328   3.349   0.901   9.313 -1.0997  0.5688  1.2221
  102OSM   C12S10329   3.380   0.906   9.109  0.2832  0.4070  0.6700
  102OSM   H12S10330   3.271   0.890   9.091  0.7696  0.5905 -2.7877
  102OSM   H12T10331   3.423   0.805   9.097 -1.7795 -0.1906 -2.2818
  102OSM   C13S10332   3.427   0.994   8.993  0.0114 -0.3260  0.2417
  102OSM   H13S10333   3.537   0.988   8.982 -0.0691 -0.1961 -0.6041
  102OSM   H13T10334   3.424   1.103   9.012 -1.6183 -0.0836 -1.3120
  102OSM   C14S10335   3.373   0.964   8.859  0.8171 -0.7054  0.2970
  102OSM   H14S10336   3.279   0.910   8.881  0.5058  0.6826  2.6445
  102OSM   H14T10337   3.428   0.890   8.798 -2.0466 -2.9242  0.3393
  102OSM   C15S10338   3.378   1.090   8.759 -0.0614  0.7129 -0.1220
  102OSM   H15S10339   3.437   1.175   8.798  0.3795  0.4429 -0.2001
  102OSM   H15T10340   3.271   1.121   8.751 -1.1771 -2.4273  1.7431
  102OSM   C16S10341   3.435   1.042   8.618 -0.3548 -0.0173  0.2641
  102OSM   H16S10342   3.543   1.020   8.631 -0.4536 -0.8499 -0.2766
  102OSM   H16T10343   3.432   1.134   8.557 -0.8989  0.2222  0.6473
  102OSM   C17S10344   3.369   0.933   8.528  0.0634  0.4793 -0.7950
  102OSM   H17S10345   3.271   0.969   8.492  0.0348  1.2741  0.0667
  102OSM   H17T10346   3.336   0.849   8.593  0.0231  0.1227 -1.2715
  102OSM   C18S10347   3.458   0.874   8.413 -0.0929 -0.7191 -0.0894
  102OSM   H18S10348   3.535   0.809   8.459  1.5340 -0.0010 -1.7143
  102OSM   H18T10349   3.502   0.961   8.359 -2.5820  0.9160  0.4148
  102OSM   H18U10350   3.391   0.812   8.351  0.0100 -0.9342  0.0160
  102OSM    C1F10351   3.377   1.259  10.211  0.0364  0.4303  0.0881
  102OSM     OF10352   3.449   1.345  10.259 -0.1810  0.1822  0.0186
  102OSM    C2F10353   3.228   1.271  10.191 -0.2055 -0.5544 -0.1463
  102OSM    H2F10354   3.177   1.203  10.262  0.8654 -1.2194  0.0057
  102OSM    H2G10355   3.209   1.236  10.087 -0.0842 -0.2001 -0.2891
  102OSM    C3F10356   3.166   1.410  10.199  0.3112 -0.0032  0.5558
  102OSM    H3F10357   3.221   1.484  10.137 -0.0814 -0.6087 -0.5246
  102OSM    H3G10358   3.173   1.431  10.308  2.3384 -0.4783  0.5300
  102OSM    C4F10359   3.019   1.408  10.147 -0.3561  0.3391 -0.4788
  102OSM    H4F10360   2.969   1.493  10.199  0.4120  1.3958 -1.4453
  102OSM    H4G10361   2.972   1.314  10.184  0.1747  0.2408 -0.0597
  102OSM    C5F10362   2.998   1.416   9.996 -0.1865  0.0836 -0.6445
  102OSM    H5F10363   2.889   1.429   9.985 -0.1937  1.1862  0.5714
  102OSM    H5G10364   3.032   1.322   9.948 -3.4705 -0.8343 -1.2529
  102OSM    C6F10365   3.067   1.542   9.937  0.1191  0.0541  0.0340
  102OSM    H6F10366   3.178   1.537   9.945 -0.0694 -1.5632  1.9494
  102OSM    H6G10367   3.043   1.621  10.011  0.6267  0.1415  0.1086
  102OSM    C7F10368   3.016   1.575   9.794 -1.0401  0.8014 -0.9587
  102OSM    H7F10369   3.060   1.671   9.762 -0.9426  1.1109  0.0854
  102OSM    H7G10370   2.905   1.576   9.803 -0.8738  3.8301  1.3408
  102OSM    C8F10371   3.047   1.466   9.689 -0.3251 -0.0897  0.1935
  102OSM    H8F10372   3.019   1.360   9.709  2.8587 -0.9160  0.5575
  102OSM    H8G10373   3.157   1.467   9.683 -0.2470  0.0254  1.3771
  102OSM    C9F10374   2.987   1.508   9.557 -0.0028  0.4586 -0.4184
  102OSM    H9F10375   3.013   1.610   9.527  0.0237  0.7306  0.5212
  102OSM   C10F10376   2.907   1.437   9.475  0.7305  0.0207 -0.8646
  102OSM   H10F10377   2.878   1.488   9.382  1.2180 -0.3170 -1.2062
  102OSM   C11F10378   2.850   1.293   9.501  0.4468  0.1140  0.2940
  102OSM   H11F10379   2.741   1.288   9.483  0.3339  0.8619  0.7277
  102OSM   H11G10380   2.863   1.257   9.606  0.4840  1.7118  0.8569
  102OSM   C12F10381   2.924   1.187   9.416 -1.3130 -0.0507  0.0095
  102OSM   H12F10382   2.880   1.091   9.449 -2.8041  0.1301 -1.3407
  102OSM   H12G10383   3.033   1.183   9.433 -0.2560  2.0671 -5.2539
  102OSM   C13F10384   2.901   1.200   9.267  0.2765 -0.4887  0.6399
  102OSM   H13F10385   2.949   1.295   9.234 -1.3784  0.4019  0.7155
  102OSM   H13G10386   2.791   1.206   9.258  0.4879  0.8559 -1.4116
  102OSM   C14F10387   2.952   1.084   9.182  0.4738 -0.4373 -0.4194
  102OSM   H14F10388   2.927   0.981   9.216  0.4817 -0.1923  0.3339
  102OSM   H14G10389   3.062   1.079   9.191  0.7804  0.3062 -3.2126
  102OSM   C15F10390   2.903   1.110   9.038 -0.2852 -0.5899  0.1237
  102OSM   H15F10391   2.949   1.207   9.007  1.3946 -0.6240  2.3594
  102OSM   H15G10392   2.792   1.113   9.030 -0.2483 -1.5093 -0.8834
  102OSM   C16F10393   2.950   0.996   8.946 -0.2490  0.1709  0.0713
  102OSM   H16F10394   2.900   0.903   8.981  0.6665 -0.2846  0.1925
  102OSM   H16G10395   3.060   0.981   8.958 -0.1490  0.8493 -0.0003
  102OSM   C17F10396   2.919   1.010   8.800 -0.3184 -0.3881  0.2523
  102OSM   H17F10397   2.974   1.098   8.760  1.2565 -0.8640  1.2931
  102OSM   H17G10398   2.812   1.038   8.792 -0.5336 -0.7533  1.6002
  102OSM   C18F10399   2.961   0.899   8.701  0.3170  0.9457 -0.4353
  102OSM   H18F10400   2.917   0.797   8.712  1.2048  0.6395  0.3333
  102OSM   H18G10401   3.071   0.885   8.699  0.1161 -1.4266  1.6376
  102OSM   H18H10402   2.928   0.930   8.600 -1.2530  0.7954  0.0147
  103OSM      N10403   4.882   3.212  10.875 -0.4585 -0.1713  0.9200
  103OSM    C1510404   4.995   3.174  10.779 -0.2752  0.5243 -0.0471
  103OSM   H15A10405   5.018   3.069  10.783  0.4711  0.7067  0.5170
  103OSM   H15B10406   5.081   3.236  10.799  0.3816  0.0176 -1.2353
  103OSM   H15C10407   4.964   3.222  10.687 -0.0505 -0.8296 -0.8321
  103OSM    C1410408   4.839   3.350  10.837  0.0747 -0.4682  0.2829
  103OSM   H14A10409   4.841   3.367  10.731  2.3845 -1.8972  0.0757
  103OSM   H14B10410   4.908   3.420  10.881  1.8264 -1.8564 -0.2143
  103OSM   H14C10411   4.740   3.368  10.879  0.5037  1.3967  0.5330
  103OSM    C1310412   4.774   3.120  10.855 -0.3911  0.0726  1.0654
  103OSM   H13A10413   4.688   3.140  10.917  0.5764  4.6288  1.0529
  103OSM   H13B10414   4.792   3.014  10.864 -0.2334 -0.0147 -0.1089
  103OSM   H13C10415   4.739   3.138  10.754  0.3800  0.7940  0.9256
  103OSM    C1210416   4.922   3.205  11.021  0.2393 -0.1918 -0.4961
  103OSM   H12A10417   4.985   3.119  11.034 -1.7954 -1.3113  2.4714
  103OSM   H12B10418   4.832   3.195  11.079  0.1476  0.8785 -0.4309
  103OSM    C1110419   5.010   3.324  11.077 -0.4375  0.0898 -0.8459
  103OSM   H11A10420   5.045   3.300  11.180 -0.0248  1.8233 -0.5652
  103OSM   H11B10421   4.945   3.414  11.087 -0.3371  0.0065  0.6455
  103OSM      P10422   5.227   3.469  11.028  0.3078 -0.0572 -0.0686
  103OSM    O1310423   5.196   3.524  11.166 -0.5111  0.4480 -0.0041
  103OSM    O1410424   5.362   3.432  10.990  0.2567  0.4336  0.1664
  103OSM    O1110425   5.176   3.577  10.923 -0.7759 -0.4171  0.2124
  103OSM    O1210426   5.129   3.348  10.993 -0.0557  0.0092 -0.5516
  103OSM    C1S10427   5.162   3.550  10.784  0.7911 -0.2070 -0.1935
  103OSM    H1S10428   5.056   3.521  10.769  1.2440 -1.8657 -0.2846
  103OSM    H1T10429   5.212   3.456  10.752  1.0174 -0.1419 -0.0267
  103OSM     NF10430   5.191   3.609  10.552 -0.1654  0.2429  0.0808
  103OSM    HNF10431   5.269   3.558  10.516 -0.0278  0.6172 -0.1534
  103OSM    C2S10432   5.209   3.664  10.691  0.1870  0.5705  0.8218
  103OSM    H2S10433   5.146   3.755  10.695  0.2766  0.6584  0.2897
  103OSM    C3S10434   5.355   3.719  10.718 -0.4582 -0.9289  0.3482
  103OSM    H3S10435   5.417   3.636  10.679  1.3591  0.4959  0.1358
  103OSM     O310436   5.385   3.750  10.857  0.1433 -0.6124 -0.5644
  103OSM    HO310437   5.300   3.728  10.894 -0.4534  1.4800 -0.5960
  103OSM    C4S10438   5.381   3.835  10.630 -0.8429 -0.9603 -0.1260
  103OSM    H4S10439   5.358   3.939  10.661 -0.9517 -1.5306  1.7782
  103OSM    C5S10440   5.464   3.823  10.524 -0.7714 -0.6132  0.0186
  103OSM    H5S10441   5.508   3.726  10.497 -0.5659  0.0428 -2.1124
  103OSM    C6S10442   5.494   3.939  10.437 -0.3828 -0.0677 -0.5372
  103OSM    H6S10443   5.603   3.957  10.439 -0.5108  0.7635 -0.6126
  103OSM    H6T10444   5.453   4.035  10.476 -0.4133 -0.5727  0.6910
  103OSM    C7S10445   5.458   3.919  10.284 -0.7471  0.2513  0.2311
  103OSM    H7S10446   5.502   4.014  10.247  0.0094 -0.2280 -0.1189
  103OSM    H7T10447   5.348   3.905  10.278 -0.5917 -1.1600  0.6110
  103OSM    C8S10448   5.534   3.803  10.217  0.0785 -0.0198  0.5675
  103OSM    H8S10449   5.488   3.711  10.259  0.5298 -0.8628 -0.7549
  103OSM    H8T10450   5.636   3.806  10.261  0.0845  0.3257  0.5296
  103OSM    C9S10451   5.526   3.800  10.064  0.0477  0.3122  0.3740
  103OSM    H9S10452   5.600   3.732  10.017 -1.0589  0.1262 -1.1566
  103OSM    H9T10453   5.554   3.897  10.017  0.1803  1.2299  2.3012
  103OSM   C10S10454   5.388   3.753  10.014 -0.3057 -0.1320 -0.9015
  103OSM   H10S10455   5.320   3.837  10.041 -2.4095 -1.9908 -0.2636
  103OSM   H10T10456   5.355   3.669  10.078 -0.9934 -0.0972 -1.2007
  103OSM   C11S10457   5.373   3.724   9.861 -0.3871 -0.3199  0.0494
  103OSM   H11S10458   5.455   3.654   9.831  1.5020  1.6938  0.3533
  103OSM   H11T10459   5.408   3.819   9.815 -0.2018 -0.4889 -0.1659
  103OSM   C12S10460   5.241   3.678   9.809 -0.2237 -0.5921 -0.0475
  103OSM   H12S10461   5.162   3.757   9.812 -0.5408 -0.9186  0.2229
  103OSM   H12T10462   5.202   3.596   9.872 -0.9715 -0.9013 -0.9063
  103OSM   C13S10463   5.246   3.601   9.679 -1.0264 -0.6908  0.7625
  103OSM   H13S10464   5.151   3.548   9.655 -1.2893  0.4038 -0.6888
  103OSM   H13T10465   5.326   3.524   9.671  1.8801  2.3036 -0.3422
  103OSM   C14S10466   5.272   3.704   9.571  0.3631 -0.2159  0.7337
  103OSM   H14S10467   5.374   3.749   9.578  0.6713 -0.5594 -1.1469
  103OSM   H14T10468   5.197   3.784   9.588  1.6549  1.0842  0.4279
  103OSM   C15S10469   5.259   3.646   9.437 -0.4662  0.4564 -0.4286
  103OSM   H15S10470   5.152   3.618   9.424 -0.3859 -0.4057  0.7539
  103OSM   H15T10471   5.317   3.553   9.447 -1.0677  0.2240  0.9373
  103OSM   C16S10472   5.316   3.739   9.321 -0.6203 -0.1247  0.4429
  103OSM   H16S10473   5.421   3.755   9.352 -0.5658  0.0297  0.1750
  103OSM   H16T10474   5.259   3.834   9.332  1.3393  1.1779 -0.4527
  103OSM   C17S10475   5.308   3.704   9.175 -0.4317 -0.0047  0.8591
  103OSM   H17S10476   5.323   3.797   9.117 -0.1630 -0.6389 -0.0894
  103OSM   H17T10477   5.203   3.670   9.157 -0.1022 -0.6634  0.1401
  103OSM   C18S10478   5.403   3.593   9.126  0.6409 -0.0643 -0.4813
  103OSM   H18S10479   5.396   3.569   9.018  0.8708  0.0933 -0.5329
  103OSM   H18T10480   5.369   3.506   9.187 -0.4405  0.1746 -0.7378
  103OSM   H18U10481   5.506   3.625   9.151  0.7467 -0.0736 -0.9152
  103OSM    C1F10482   5.075   3.587  10.497  0.0894 -0.5246 -0.1533
  103OSM     OF10483   4.968   3.605  10.556 -0.1236  0.5042 -0.4409
  103OSM    C2F10484   5.070   3.522  10.360 -0.8690 -0.4199 -1.3615
  103OSM    H2F10485   5.013   3.427  10.369 -0.5281 -0.5300 -0.2840
  103OSM    H2G10486   5.173   3.502  10.325  0.5197  0.7143  1.8848
  103OSM    C3F10487   5.006   3.610  10.253  0.6025 -0.5297 -0.1748
  103OSM    H3F10488   5.061   3.706  10.243  0.5379 -0.7334 -2.8771
  103OSM    H3G10489   4.896   3.616  10.263  0.6447  0.4394 -0.2611
  103OSM    C4F10490   5.022   3.544  10.111  0.1176 -0.3336 -0.3924
  103OSM    H4F10491   4.977   3.444  10.124 -1.2325  0.2698 -0.3210
  103OSM    H4G10492   5.133   3.538  10.106  0.1382 -0.0142 -0.3504
  103OSM    C5F10493   4.949   3.628  10.006 -0.3752 -0.1034 -0.3907
  103OSM    H5F10494   5.006   3.721   9.985 -0.8004 -0.3151 -2.6064
  103OSM    H5G10495   4.845   3.654  10.033  0.6813  0.3274  3.6495
  103OSM    C6F10496   4.931   3.534   9.883  0.5947  0.1040  0.2417
  103OSM    H6F10497   4.862   3.453   9.913 -1.2724  0.7111 -2.2580
  103OSM    H6G10498   5.025   3.480   9.861 -0.6577 -2.1631  0.3640
  103OSM    C7F10499   4.865   3.612   9.769  0.2720  0.4816  0.4367
  103OSM    H7F10500   4.929   3.698   9.739 -2.0585  1.4610 -2.0227
  103OSM    H7G10501   4.779   3.671   9.808  0.6171  0.2403  1.5869
  103OSM    C8F10502   4.819   3.539   9.640  0.5144  0.4538 -0.0792
  103OSM    H8F10503   4.781   3.436   9.659 -0.4327  1.0293  1.2645
  103OSM    H8G10504   4.910   3.531   9.578  0.9994 -2.5688  0.9452
  103OSM    C9F10505   4.706   3.611   9.574  0.2635 -0.8573  0.4917
  103OSM    H9F10506   4.646   3.668   9.647  1.1306 -0.7097  1.0943
  103OSM   C10F10507   4.690   3.639   9.446  0.6718  0.5327  0.8879
  103OSM   H10F10508   4.610   3.708   9.415  0.4982 -0.0236  0.0805
  103OSM   C11F10509   4.787   3.585   9.339  0.0607  0.4678 -0.3832
  103OSM   H11F10510   4.727   3.527   9.266 -0.5774  0.2076  0.3290
  103OSM   H11G10511   4.871   3.527   9.382  0.5871  2.8476  1.9903
  103OSM   C12F10512   4.843   3.710   9.259 -0.0940 -0.4205 -0.6044
  103OSM   H12F10513   4.910   3.767   9.326 -0.2731  2.6927 -2.9393
  103OSM   H12G10514   4.762   3.780   9.230  1.9337  2.4726  0.5586
  103OSM   C13F10515   4.923   3.672   9.137  0.1037  0.4831 -0.2235
  103OSM   H13F10516   5.010   3.616   9.177  0.6626  1.4873 -0.0091
  103OSM   H13G10517   4.872   3.598   9.071  1.0297  0.4962 -0.9828
  103OSM   C14F10518   4.964   3.784   9.044 -0.4932  0.0720 -0.2974
  103OSM   H14F10519   5.052   3.836   9.088  1.4570 -0.9018 -2.8339
  103OSM   H14G10520   4.884   3.861   9.041  0.7874  1.5238  1.7072
  103OSM   C15F10521   4.994   3.744   8.902 -0.3113  0.5998  0.3134
  103OSM   H15F10522   4.897   3.709   8.862  0.9944 -0.3632 -2.1539
  103OSM   H15G10523   5.062   3.656   8.896 -1.1401 -0.1585  1.8818
  103OSM   C16F10524   5.059   3.849   8.807 -0.4946 -0.9527  0.4145
  103OSM   H16F10525   5.132   3.799   8.740 -0.4286 -0.5055  0.1550
  103OSM   H16G10526   5.101   3.938   8.859 -0.6259  0.3532 -1.6828
  103OSM   C17F10527   4.960   3.909   8.709  0.5705 -0.3195  0.0369
  103OSM   H17F10528   4.895   3.982   8.762 -1.9541 -2.4061 -0.0905
  103OSM   H17G10529   4.894   3.828   8.672 -1.9515  0.3244  2.9253
  103OSM   C18F10530   5.026   3.965   8.584  0.5103  0.3642  0.4215
  103OSM   H18F10531   5.109   4.037   8.602 -0.8520  1.2743  3.4762
  103OSM   H18G10532   4.962   3.995   8.498  1.3438  0.8547 -0.0303
  103OSM   H18H10533   5.074   3.873   8.543 -0.0717  0.8387 -1.3829
  104OSM      N10534   2.105   3.593  11.023  0.0847  0.1147 -0.2569
  104OSM    C1510535   2.164   3.524  11.141 -0.0255 -0.9054 -0.2392
  104OSM   H15A10536   2.162   3.416  11.133 -0.2143 -1.0359  1.3569
  104OSM   H15B10537   2.104   3.549  11.228 -0.1914 -0.3363 -0.5220
  104OSM   H15C10538   2.266   3.549  11.164 -0.7055  1.3528  0.4976
  104OSM    C1410539   1.960   3.586  11.024 -0.6450 -0.4988 -0.0725
  104OSM   H14A10540   1.916   3.613  11.119  0.6330 -1.8081  0.9193
  104OSM   H14B10541   1.936   3.482  11.004 -2.7861 -0.5540  2.5132
  104OSM   H14C10542   1.918   3.642  10.942  0.1667 -1.4368 -1.1531
  104OSM    C1310543   2.137   3.741  11.034  0.0902  0.0261  0.2338
  104OSM   H13A10544   2.094   3.788  10.947 -0.7469  0.1760  0.7172
  104OSM   H13B10545   2.244   3.753  11.032  0.0205  0.7470 -3.9407
  104OSM   H13C10546   2.104   3.777  11.131  1.8261  2.3046  0.0340
  104OSM    C1210547   2.160   3.531  10.897  0.4234 -0.0707  0.2678
  104OSM   H12A10548   2.155   3.424  10.914  0.8824 -0.6149 -2.5988
  104OSM   H12B10549   2.266   3.551  10.891  0.3547  1.0082  2.4036
  104OSM    C1110550   2.095   3.557  10.758  0.5515 -0.3528  0.4024
  104OSM   H11A10551   1.989   3.526  10.773  0.1257  0.8975  0.0107
  104OSM   H11B10552   2.143   3.485  10.688 -0.3263 -0.3685 -0.2013
  104OSM      P10553   2.227   3.745  10.646 -0.4444 -0.1944 -0.3859
  104OSM    O1310554   2.240   3.894  10.670 -0.4474  0.1253 -0.3725
  104OSM    O1410555   2.348   3.664  10.671  0.4277  0.5765  0.5623
  104OSM    O1110556   2.183   3.725  10.503 -0.8647 -0.1554  0.1024
  104OSM    O1210557   2.103   3.691  10.721 -0.5564  0.4741 -0.0580
  104OSM    C1S10558   2.062   3.790  10.448  0.2065 -0.1286 -0.5966
  104OSM    H1S10559   2.072   3.901  10.452  1.3156 -0.2254 -0.5871
  104OSM    H1T10560   1.970   3.743  10.489  1.4010 -2.3559 -0.3999
  104OSM     NF10561   2.031   3.867  10.227  0.4071 -0.4667  0.1015
  104OSM    HNF10562   1.937   3.862  10.192  1.0920 -0.5644 -1.7842
  104OSM    C2S10563   2.076   3.757  10.304 -0.1246 -0.1790  0.3721
  104OSM    H2S10564   2.180   3.750  10.267  0.1050  0.8508  0.8246
  104OSM    C3S10565   1.999   3.617  10.286  0.2946 -0.0947  0.0474
  104OSM    H3S10566   1.895   3.641  10.315 -0.3451 -1.0603 -1.3802
  104OSM     O310567   2.048   3.512  10.374  0.8988 -0.6314 -0.1794
  104OSM    HO310568   2.102   3.549  10.444  0.2557 -0.7075  0.3645
  104OSM    C4S10569   2.022   3.576  10.144 -0.2092 -0.0384 -0.5562
  104OSM    H4S10570   2.118   3.527  10.123  0.1839 -1.2203  3.6355
  104OSM    C5S10571   1.930   3.604  10.046 -0.2822 -0.4835 -0.0863
  104OSM    H5S10572   1.835   3.657  10.065 -1.1911 -1.7204 -1.0542
  104OSM    C6S10573   1.940   3.554   9.905 -0.2016  0.1729  0.3326
  104OSM    H6S10574   1.838   3.527   9.869 -0.4526  1.8237 -0.2403
  104OSM    H6T10575   1.999   3.462   9.887  0.8455  0.8842  0.0863
  104OSM    C7S10576   2.002   3.662   9.809 -0.1377  0.1456 -0.0672
  104OSM    H7S10577   2.106   3.659   9.846 -1.0459 -3.8416  2.5232
  104OSM    H7T10578   1.961   3.762   9.833 -0.1572 -0.1337  1.1023
  104OSM    C8S10579   2.003   3.639   9.659 -0.8058  0.4376  0.9783
  104OSM    H8S10580   2.041   3.537   9.641  0.0808  0.7217  1.2433
  104OSM    H8T10581   2.083   3.707   9.625  0.1701 -1.2758 -0.1822
  104OSM    C9S10582   1.861   3.655   9.605 -0.0700  0.6005 -0.1150
  104OSM    H9S10583   1.813   3.742   9.655 -0.5777  0.7764 -0.9041
  104OSM    H9T10584   1.795   3.568   9.625  1.9281 -0.4551  2.1291
  104OSM   C10S10585   1.854   3.684   9.457 -0.1048  0.0712 -0.0505
  104OSM   H10S10586   1.922   3.770   9.436  0.1156  0.5103  2.3890
  104OSM   H10T10587   1.751   3.717   9.433 -0.1912  0.2473  0.5607
  104OSM   C11S10588   1.884   3.557   9.377  0.3650  0.6944 -0.1652
  104OSM   H11S10589   1.824   3.472   9.415 -1.5402  0.9681 -2.4319
  104OSM   H11T10590   1.986   3.529   9.413  2.3179  3.7359 -2.9911
  104OSM   C12S10591   1.861   3.574   9.231  0.6613 -0.9187  0.2348
  104OSM   H12S10592   1.946   3.627   9.183 -0.0078 -1.2264 -1.3357
  104OSM   H12T10593   1.770   3.633   9.204 -0.0825 -2.9631 -1.9521
  104OSM   C13S10594   1.848   3.438   9.148 -0.2817 -0.1851 -0.1460
  104OSM   H13S10595   1.759   3.379   9.179 -0.6993 -0.1058 -1.1579
  104OSM   H13T10596   1.938   3.385   9.184  0.5542 -0.6048 -2.7463
  104OSM   C14S10597   1.855   3.455   8.996 -0.9521 -0.7162  0.1591
  104OSM   H14S10598   1.879   3.355   8.955  0.8760 -1.4945  2.9714
  104OSM   H14T10599   1.932   3.527   8.960 -1.9713 -0.3405 -1.3180
  104OSM   C15S10600   1.726   3.519   8.936 -0.9665 -0.8406 -0.2666
  104OSM   H15S10601   1.699   3.615   8.986  0.6525  0.1886 -1.2887
  104OSM   H15T10602   1.643   3.452   8.965  0.8723 -2.0675  2.3158
  104OSM   C16S10603   1.742   3.550   8.791 -0.4818  0.4333  0.3000
  104OSM   H16S10604   1.794   3.474   8.728  1.5127  1.6308  0.4810
  104OSM   H16T10605   1.809   3.638   8.782 -0.0555  0.1286  0.5130
  104OSM   C17S10606   1.615   3.589   8.725  0.2410  0.1198  0.1252
  104OSM   H17S10607   1.575   3.684   8.765  0.4268  0.5854 -0.7847
  104OSM   H17T10608   1.545   3.506   8.748 -0.2312  0.2279 -0.8788
  104OSM   C18S10609   1.615   3.601   8.573  0.7174  0.2355 -0.1700
  104OSM   H18S10610   1.641   3.507   8.519 -1.0484 -0.2077 -0.2860
  104OSM   H18T10611   1.696   3.671   8.542  1.4740 -0.3542  0.4798
  104OSM   H18U10612   1.520   3.637   8.527 -0.4451 -1.2224  1.0393
  104OSM    C1F10613   2.110   3.972  10.195 -0.4071 -0.0896  0.1474
  104OSM     OF10614   2.205   3.999  10.261 -0.1683  0.3812  0.1818
  104OSM    C2F10615   2.060   4.063  10.084  0.5771  0.4061 -0.0304
  104OSM    H2F10616   2.004   4.149  10.127 -0.8965 -0.1528 -0.7755
  104OSM    H2G10617   1.988   4.005  10.022 -0.9683  1.8384  0.3873
  104OSM    C3F10618   2.172   4.117   9.990 -0.6522 -0.0054 -0.4063
  104OSM    H3F10619   2.232   4.032   9.951 -2.0880  0.4391 -3.7884
  104OSM    H3G10620   2.243   4.185  10.042 -1.3175 -0.1154  0.6563
  104OSM    C4F10621   2.115   4.187   9.862  0.5599 -0.0000 -0.2163
  104OSM    H4F10622   2.088   4.291   9.888 -2.2443 -0.6602 -0.3867
  104OSM    H4G10623   2.020   4.132   9.847  0.7759 -0.4295 -0.0125
  104OSM    C5F10624   2.195   4.192   9.734 -0.5264  0.5288 -0.1059
  104OSM    H5F10625   2.237   4.094   9.702  0.6202 -0.1036  3.1584
  104OSM    H5G10626   2.271   4.273   9.743 -0.1348  0.0560  0.8756
  104OSM    C6F10627   2.116   4.235   9.609 -0.3865 -0.2815  0.3530
  104OSM    H6F10628   2.090   4.342   9.629  2.4882  0.5467 -0.0580
  104OSM    H6G10629   2.028   4.174   9.581  0.9371 -0.9329 -2.5459
  104OSM    C7F10630   2.201   4.232   9.479 -0.3105 -0.0130 -0.2414
  104OSM    H7F10631   2.292   4.294   9.494  0.6858 -1.2996 -0.9313
  104OSM    H7G10632   2.145   4.281   9.396  1.6658  3.8397  0.6089
  104OSM    C8F10633   2.234   4.094   9.436  0.6459  0.4698  0.4286
  104OSM    H8F10634   2.303   4.051   9.512  0.5080 -0.9753 -0.2489
  104OSM    H8G10635   2.300   4.097   9.347 -0.7669 -1.0209 -0.6908
  104OSM    C9F10636   2.119   4.004   9.397 -0.0614  0.0391  0.3153
  104OSM    H9F10637   2.061   3.970   9.484  0.9040  0.0766  0.9728
  104OSM   C10F10638   2.068   3.978   9.278 -0.5087  0.6198  0.5611
  104OSM   H10F10639   1.979   3.916   9.265  0.7235 -0.6280 -2.3149
  104OSM   C11F10640   2.129   4.023   9.144  0.1185  1.0176  0.0232
  104OSM   H11F10641   2.201   4.107   9.156  0.1240  0.6743  2.6261
  104OSM   H11G10642   2.052   4.073   9.082 -0.5207 -0.2049 -0.1882
  104OSM   C12F10643   2.179   3.915   9.043  0.5996  0.7563 -0.2309
  104OSM   H12F10644   2.092   3.850   9.019  1.8547  0.0785 -3.2394
  104OSM   H12G10645   2.256   3.851   9.090  0.3630  0.4265 -0.2942
  104OSM   C13F10646   2.231   3.987   8.915 -0.0187  0.0045  0.3389
  104OSM   H13F10647   2.292   4.076   8.943 -0.3503 -0.1373  1.5205
  104OSM   H13G10648   2.133   4.017   8.872 -0.4370 -0.8768  0.6763
  104OSM   C14F10649   2.306   3.904   8.816 -0.0259 -0.5950 -0.6597
  104OSM   H14F10650   2.238   3.832   8.767  2.2745 -1.7741 -2.2472
  104OSM   H14G10651   2.393   3.863   8.873 -0.4541  0.1768  0.5640
  104OSM   C15F10652   2.383   3.978   8.703 -0.2230 -0.4257 -0.2607
  104OSM   H15F10653   2.458   4.051   8.739 -1.7239  1.5683 -1.1011
  104OSM   H15G10654   2.309   4.034   8.642  0.0723 -1.8531 -1.9718
  104OSM   C16F10655   2.461   3.874   8.620 -0.4718 -0.4195 -0.2056
  104OSM   H16F10656   2.376   3.820   8.574  0.3360 -0.4831 -1.6553
  104OSM   H16G10657   2.528   3.815   8.685  1.6900  1.0448 -1.0384
  104OSM   C17F10658   2.545   3.922   8.506 -0.1232  0.6359 -0.2984
  104OSM   H17F10659   2.570   3.831   8.447  0.9224  1.3754 -1.0042
  104OSM   H17G10660   2.648   3.945   8.539  0.3376 -0.8079 -0.7079
  104OSM   C18F10661   2.486   4.039   8.426 -0.4080  0.8089  0.2299
  104OSM   H18F10662   2.470   4.130   8.488  1.4227 -0.0665  2.0370
  104OSM   H18G10663   2.397   4.007   8.367 -0.9495  0.7160  1.0980
  104OSM   H18H10664   2.549   4.085   8.347 -2.7347  2.4260 -0.7739
  105OSM      N10665   2.333   3.010  11.050  0.3242 -0.7937  0.5285
  105OSM    C1510666   2.455   2.999  10.960 -0.1600  0.0338  0.0473
  105OSM   H15A10667   2.478   2.897  10.931  2.3981  1.0188 -1.5291
  105OSM   H15B10668   2.534   3.036  11.024 -1.5762 -0.0346  1.8475
  105OSM   H15C10669   2.450   3.064  10.874  0.9695  2.3092  1.6622
  105OSM    C1410670   2.341   2.905  11.157  0.1793 -0.0811 -0.2524
  105OSM   H14A10671   2.252   2.919  11.218  0.0760 -2.0920  0.0785
  105OSM   H14B10672   2.428   2.919  11.218 -1.5728  3.7627  1.5408
  105OSM   H14C10673   2.341   2.804  11.120 -0.3696  0.5169 -1.9622
  105OSM    C1310674   2.336   3.142  11.113 -0.1322  0.5006  0.2952
  105OSM   H13A10675   2.241   3.158  11.162 -0.1672  1.1960  0.0157
  105OSM   H13B10676   2.353   3.225  11.045 -0.6730  0.4243  0.0609
  105OSM   H13C10677   2.411   3.145  11.190 -0.4740  0.4199  0.6306
  105OSM    C1210678   2.214   2.989  10.964  0.0213 -0.3074 -0.0831
  105OSM   H12A10679   2.126   2.998  11.026 -0.9676  0.1095 -1.5058
  105OSM   H12B10680   2.227   2.892  10.918  0.7084 -0.2070 -0.0924
  105OSM    C1110681   2.191   3.088  10.845 -0.1933 -0.1210 -0.5773
  105OSM   H11A10682   2.166   3.026  10.756  1.4960 -1.4660 -0.1651
  105OSM   H11B10683   2.284   3.142  10.817  0.2586 -1.0510 -0.9203
  105OSM      P10684   1.946   3.176  10.887 -0.1573  0.1232 -0.0081
  105OSM    O1310685   1.898   3.044  10.931  0.2152  0.4385  0.1878
  105OSM    O1410686   1.911   3.301  10.961  0.3016 -0.8620 -0.0098
  105OSM    O1110687   1.891   3.197  10.742  0.3786 -0.0798  0.4018
  105OSM    O1210688   2.098   3.186  10.877 -0.0678 -0.4513  0.0712
  105OSM    C1S10689   1.967   3.213  10.625 -0.3598 -0.0202  0.1028
  105OSM    H1S10690   2.047   3.135  10.622 -0.4775 -0.1574  0.5211
  105OSM    H1T10691   2.016   3.312  10.623 -0.8037  0.2294  1.3511
  105OSM     NF10692   1.964   3.227  10.378  0.3528 -0.3360 -0.1506
  105OSM    HNF10693   1.967   3.314  10.330 -1.1933  1.2822  2.6072
  105OSM    C2S10694   1.879   3.207  10.495  0.8934  0.3496  0.2876
  105OSM    H2S10695   1.841   3.103  10.488 -0.3071  0.7604  0.6194
  105OSM    C3S10696   1.757   3.306  10.504  0.6256 -0.0303  0.0541
  105OSM    H3S10697   1.796   3.410  10.504  0.7372 -0.0702 -1.0751
  105OSM     O310698   1.677   3.288  10.619  0.0303 -0.4515 -0.0612
  105OSM    HO310699   1.739   3.246  10.678 -0.2729  1.0555  1.3628
  105OSM    C4S10700   1.678   3.292  10.374 -0.5381 -0.7922  0.2606
  105OSM    H4S10701   1.623   3.197  10.380 -0.4694 -0.6345  5.1457
  105OSM    C5S10702   1.677   3.367  10.266 -0.3514  0.0156  0.1637
  105OSM    H5S10703   1.710   3.471  10.282 -0.5247 -0.0707  1.1395
  105OSM    C6S10704   1.609   3.343  10.134  0.4634  0.5684  0.4610
  105OSM    H6S10705   1.664   3.390  10.050  0.6897 -0.9750 -0.2581
  105OSM    H6T10706   1.506   3.386  10.138  0.1954 -0.2313  2.5087
  105OSM    C7S10707   1.600   3.200  10.096 -0.4280 -1.0979 -0.8084
  105OSM    H7S10708   1.542   3.146  10.174  0.5325 -0.4731  0.3612
  105OSM    H7T10709   1.704   3.163  10.084  0.3366  0.6197  0.2068
  105OSM    C8S10710   1.546   3.186   9.958  0.0865 -0.0576  0.4644
  105OSM    H8S10711   1.623   3.222   9.887  1.5874 -2.8604  0.6306
  105OSM    H8T10712   1.455   3.251   9.949 -1.4597 -2.3323 -0.9304
  105OSM    C9S10713   1.508   3.039   9.932 -0.0517  0.1544 -0.5096
  105OSM    H9S10714   1.400   3.018   9.942 -0.3608  1.4513 -0.9790
  105OSM    H9T10715   1.556   2.985  10.017  1.7966  1.1430 -0.8807
  105OSM   C10S10716   1.571   2.990   9.795 -0.2514  0.4362  0.1224
  105OSM   H10S10717   1.574   2.879   9.788  2.5805  0.4747  0.2233
  105OSM   H10T10718   1.678   3.018   9.796 -0.8731  3.0209 -1.4045
  105OSM   C11S10719   1.502   3.051   9.681 -0.2240 -0.6771  0.2251
  105OSM   H11S10720   1.508   3.161   9.694  1.0422 -0.7610  0.3753
  105OSM   H11T10721   1.394   3.025   9.692  0.2512 -2.2397  1.3599
  105OSM   C12S10722   1.554   2.991   9.549  0.0711  0.0950 -0.1370
  105OSM   H12S10723   1.536   2.882   9.546  2.5482 -0.3985  1.2061
  105OSM   H12T10724   1.664   3.010   9.546  0.0062  0.3122 -1.2347
  105OSM   C13S10725   1.489   3.057   9.429 -0.5582  0.7290  0.7084
  105OSM   H13S10726   1.511   3.166   9.428  0.6042  0.4898 -0.1515
  105OSM   H13T10727   1.380   3.051   9.448 -0.5946 -0.2440  0.1895
  105OSM   C14S10728   1.519   2.980   9.303  0.1200  1.0890 -0.1353
  105OSM   H14S10729   1.515   2.871   9.324  0.0634  1.2143  0.5130
  105OSM   H14T10730   1.618   3.004   9.258  0.8915 -0.6170  0.6192
  105OSM   C15S10731   1.413   3.012   9.194  0.3396 -0.7189  0.1095
  105OSM   H15S10732   1.400   3.122   9.194 -1.0310 -0.7674 -4.4294
  105OSM   H15T10733   1.320   2.959   9.222  0.0818 -0.5856 -0.4831
  105OSM   C16S10734   1.453   2.968   9.054  0.4081 -1.0741  0.2123
  105OSM   H16S10735   1.434   2.861   9.034  0.0801 -1.2688  1.5097
  105OSM   H16T10736   1.562   2.985   9.042  0.3857 -0.6497  0.5979
  105OSM   C17S10737   1.390   3.055   8.935  0.7127 -0.1733  0.1274
  105OSM   H17S10738   1.406   3.160   8.969  1.3304  0.7269 -2.8152
  105OSM   H17T10739   1.281   3.041   8.920  1.1546 -1.2215 -2.3358
  105OSM   C18S10740   1.468   3.047   8.801 -0.8643  0.0692 -0.5360
  105OSM   H18S10741   1.416   3.095   8.715  0.7076  1.5447 -0.7004
  105OSM   H18T10742   1.486   2.940   8.775 -0.6775  0.2248 -1.0549
  105OSM   H18U10743   1.570   3.086   8.819 -1.0279  0.4355 -0.3971
  105OSM    C1F10744   2.055   3.129  10.353  0.0577 -0.0269  0.5390
  105OSM     OF10745   2.065   3.024  10.417  0.2711  0.4437  0.6248
  105OSM    C2F10746   2.153   3.157  10.241 -0.1044 -0.0092 -0.4456
  105OSM    H2F10747   2.199   3.063  10.204  1.2859  0.8662 -0.9797
  105OSM    H2G10748   2.232   3.225  10.281 -1.1621  0.3431  1.0866
  105OSM    C3F10749   2.086   3.208  10.117 -0.4541 -0.1256  0.0365
  105OSM    H3F10750   2.167   3.228  10.043 -1.0915 -2.9666 -1.4986
  105OSM    H3G10751   2.031   3.303  10.135 -0.7821 -0.5835  1.4635
  105OSM    C4F10752   1.988   3.119  10.045  0.6052  0.3148  0.9897
  105OSM    H4F10753   1.906   3.083  10.110 -1.6190 -1.6010 -2.7423
  105OSM    H4G10754   2.050   3.032  10.016  1.1582  1.1648 -0.4326
  105OSM    C5F10755   1.938   3.167   9.909 -0.4614 -0.6050  0.0256
  105OSM    H5F10756   1.879   3.260   9.926 -0.5739 -0.4603 -1.1360
  105OSM    H5G10757   1.869   3.089   9.871  0.7169 -0.2724 -2.9386
  105OSM    C6F10758   2.045   3.190   9.798 -0.1913  0.4439 -0.1674
  105OSM    H6F10759   2.109   3.099   9.801 -2.0749 -0.8460  2.5744
  105OSM    H6G10760   2.116   3.268   9.834 -0.4342  0.0900  1.0989
  105OSM    C7F10761   1.990   3.227   9.656 -0.0533 -0.4039  0.0538
  105OSM    H7F10762   1.919   3.310   9.677  1.3153  0.7401  0.2072
  105OSM    H7G10763   1.928   3.144   9.616 -0.2444 -0.2184 -0.0342
  105OSM    C8F10764   2.087   3.281   9.548 -0.8475  0.9650  0.1406
  105OSM    H8F10765   2.138   3.370   9.593 -0.3625  0.6282  0.2634
  105OSM    H8G10766   2.016   3.320   9.473 -1.9148  2.0980  1.7027
  105OSM    C9F10767   2.179   3.174   9.500  0.3281 -0.2403  0.1150
  105OSM    H9F10768   2.246   3.139   9.579 -1.1035 -0.2922  1.3327
  105OSM   C10F10769   2.190   3.111   9.381  0.9996 -0.6068  0.4988
  105OSM   H10F10770   2.265   3.033   9.364  1.1106 -0.5140  0.5681
  105OSM   C11F10771   2.104   3.160   9.263  0.3002 -0.1698  0.3839
  105OSM   H11F10772   2.101   3.271   9.263  0.5986 -0.1092 -3.1231
  105OSM   H11G10773   1.999   3.125   9.261  0.9396 -2.1111 -0.6466
  105OSM   C12F10774   2.168   3.112   9.134  0.3949  0.3168 -0.2297
  105OSM   H12F10775   2.140   3.005   9.123 -0.2029  0.5447 -0.9454
  105OSM   H12G10776   2.278   3.098   9.147  0.2929 -0.9113 -0.5766
  105OSM   C13F10777   2.123   3.177   9.004 -0.1786 -0.4239  0.0192
  105OSM   H13F10778   2.123   3.288   9.009  0.4371 -0.3413 -1.4293
  105OSM   H13G10779   2.016   3.150   8.993 -0.4622  0.2909  0.9531
  105OSM   C14F10780   2.190   3.123   8.885  0.5095  0.2781 -0.2106
  105OSM   H14F10781   2.180   3.013   8.874  1.4095  0.2761 -1.1393
  105OSM   H14G10782   2.299   3.148   8.889  0.7654 -0.7722 -0.3129
  105OSM   C15F10783   2.127   3.185   8.755 -0.2797  0.0289  0.5743
  105OSM   H15F10784   2.017   3.192   8.773 -0.4351  2.1921 -0.9558
  105OSM   H15G10785   2.155   3.117   8.671 -1.8317 -0.2586  0.2757
  105OSM   C16F10786   2.185   3.325   8.717  0.7753  1.0080  0.0023
  105OSM   H16F10787   2.291   3.320   8.686  0.8881  1.2402  0.3415
  105OSM   H16G10788   2.172   3.393   8.804 -1.0451  0.3874  0.2439
  105OSM   C17F10789   2.090   3.394   8.623  0.6312 -0.4375  0.2155
  105OSM   H17F10790   1.994   3.418   8.673  1.7199 -0.6951  2.4817
  105OSM   H17G10791   2.070   3.321   8.542  0.9281 -0.1956 -0.0776
  105OSM   C18F10792   2.150   3.521   8.557  0.4366  0.0318  1.0299
  105OSM   H18F10793   2.182   3.592   8.636  0.7830  1.2630 -0.1938
  105OSM   H18G10794   2.066   3.569   8.502  0.4945 -0.7056  0.3016
  105OSM   H18H10795   2.234   3.494   8.489 -0.0325 -1.6880  1.1146
  106OSM      N10796   3.309   1.236  10.791 -0.6690 -0.2862 -0.4919
  106OSM    C1510797   3.255   1.377  10.763  0.0061 -0.0408 -0.2500
  106OSM   H15A10798   3.173   1.377  10.693  1.9947 -0.8187 -2.6732
  106OSM   H15B10799   3.339   1.434  10.725 -0.0055 -0.4875 -0.9570
  106OSM   H15C10800   3.223   1.423  10.855  2.8497  4.3517 -1.2761
  106OSM    C1410801   3.407   1.241  10.899 -0.2103  0.1741  0.3132
  106OSM   H14A10802   3.454   1.145  10.913  0.2863  0.6204  1.8111
  106OSM   H14B10803   3.356   1.259  10.992 -2.5452  1.0965 -1.0923
  106OSM   H14C10804   3.487   1.314  10.888  1.9296 -2.0440  0.7507
  106OSM    C1310805   3.209   1.142  10.854 -0.4053 -0.5248  0.4330
  106OSM   H13A10806   3.124   1.118  10.791  0.2992 -4.3795  0.8546
  106OSM   H13B10807   3.182   1.166  10.956 -0.8338  3.0498 -0.4534
  106OSM   H13C10808   3.257   1.046  10.854 -0.0884 -0.3683  0.2138
  106OSM    C1210809   3.367   1.174  10.654 -0.8789 -0.0224  0.2468
  106OSM   H12A10810   3.415   1.078  10.664 -2.9025 -1.2312 -1.3588
  106OSM   H12B10811   3.443   1.241  10.616 -0.3903 -0.1074  1.0409
  106OSM    C1110812   3.267   1.153  10.540  0.2789  0.2774 -0.2435
  106OSM   H11A10813   3.317   1.117  10.448  0.6733 -1.1841  0.5258
  106OSM   H11B10814   3.228   1.251  10.505 -0.7682 -0.1383 -0.2704
  106OSM      P10815   3.165   0.908  10.568 -0.1373  0.1867  0.4409
  106OSM    O1310816   3.273   0.861  10.663  0.3727 -0.0110  0.0499
  106OSM    O1410817   3.041   0.842  10.590  0.1465  0.3019 -0.1243
  106OSM    O1110818   3.214   0.871  10.425 -0.3422 -0.1385 -0.8390
  106OSM    O1210819   3.153   1.070  10.576  0.1478 -0.3007  0.2442
  106OSM    C1S10820   3.143   0.917  10.309 -0.0211  0.1621 -0.3946
  106OSM    H1S10821   3.203   0.995  10.257  0.0518 -0.9617 -2.0619
  106OSM    H1T10822   3.045   0.963  10.332 -0.2162 -0.5526  0.2555
  106OSM     NF10823   3.086   0.854  10.072 -0.8909  0.1211 -0.4752
  106OSM    HNF10824   2.994   0.823  10.049  0.0252 -2.8595 -0.3551
  106OSM    C2S10825   3.138   0.806  10.200 -0.0103 -1.2953  0.4829
  106OSM    H2S10826   3.243   0.772  10.189  1.2022  2.3204  0.2380
  106OSM    C3S10827   3.067   0.678  10.252  0.2477 -0.0468 -0.0708
  106OSM    H3S10828   2.968   0.718  10.280  0.4599  1.4330 -1.3899
  106OSM     O310829   3.126   0.618  10.366  0.7450 -0.6914  0.4479
  106OSM    HO310830   3.193   0.683  10.388  0.5843 -0.0575 -0.9396
  106OSM    C4S10831   3.045   0.575  10.144  0.9366 -0.7986  0.0723
  106OSM    H4S10832   2.986   0.612  10.059  0.7213 -0.3946  0.3949
  106OSM    C5S10833   3.109   0.458  10.121  0.9767 -0.9912 -0.0665
  106OSM    H5S10834   3.188   0.423  10.188  1.2523 -0.2365  0.0124
  106OSM    C6S10835   3.080   0.361  10.008 -0.0753  0.2045  0.6426
  106OSM    H6S10836   3.047   0.265  10.052 -0.4448 -0.9962 -2.1107
  106OSM    H6T10837   3.175   0.341   9.954 -0.4909  1.0967 -0.4289
  106OSM    C7S10838   2.980   0.420   9.901 -0.5091  0.2010  0.4229
  106OSM    H7S10839   3.019   0.514   9.859 -0.5481 -0.8157 -1.9503
  106OSM    H7T10840   2.892   0.456   9.959 -2.0985  1.4148 -2.6767
  106OSM    C8S10841   2.952   0.307   9.795 -0.1902 -0.6935 -0.6115
  106OSM    H8S10842   2.879   0.239   9.844  1.4280 -1.8875  0.2016
  106OSM    H8T10843   3.042   0.242   9.784  1.5872  1.2126  2.0111
  106OSM    C9S10844   2.900   0.356   9.662 -0.5961  0.2217 -0.1320
  106OSM    H9S10845   2.940   0.285   9.587  1.1411  0.1143  0.8728
  106OSM    H9T10846   2.952   0.453   9.643 -0.4039  0.2286  0.4163
  106OSM   C10S10847   2.751   0.379   9.658  0.1853  0.1826  0.3262
  106OSM   H10S10848   2.721   0.453   9.735 -0.3713 -1.4348  1.6961
  106OSM   H10T10849   2.697   0.288   9.695 -0.1495 -0.0242 -0.6469
  106OSM   C11S10850   2.704   0.434   9.516  0.4215 -0.2625  0.1302
  106OSM   H11S10851   2.767   0.518   9.480  0.6876 -1.3552 -2.0211
  106OSM   H11T10852   2.598   0.464   9.527  0.7746  0.6832  1.0568
  106OSM   C12S10853   2.716   0.324   9.408 -0.0372 -0.6254  0.0874
  106OSM   H12S10854   2.666   0.235   9.451 -0.5827  0.2975  1.3977
  106OSM   H12T10855   2.826   0.311   9.404  0.3458  2.2705  0.0098
  106OSM   C13S10856   2.660   0.364   9.275  0.4707  0.3411 -0.5481
  106OSM   H13S10857   2.717   0.457   9.253  1.3363 -0.3913 -1.4322
  106OSM   H13T10858   2.551   0.388   9.275  0.6083  0.9534 -0.1089
  106OSM   C14S10859   2.681   0.273   9.158 -0.0941  0.1341 -0.8417
  106OSM   H14S10860   2.616   0.185   9.172  0.1953  0.2063  1.0680
  106OSM   H14T10861   2.789   0.245   9.153 -0.1340  0.3485 -3.7512
  106OSM   C15S10862   2.643   0.339   9.027 -0.6204  0.4580 -0.1308
  106OSM   H15S10863   2.673   0.446   9.017  1.3376 -0.1720 -1.2388
  106OSM   H15T10864   2.533   0.331   9.013 -0.4202 -0.8234 -1.0491
  106OSM   C16S10865   2.702   0.273   8.904 -0.4724 -0.2623 -0.1442
  106OSM   H16S10866   2.703   0.350   8.824  1.0655  2.1544  2.1136
  106OSM   H16T10867   2.645   0.183   8.871  0.2839 -0.9059  0.2732
  106OSM   C17S10868   2.853   0.228   8.910  0.3115  0.0395 -0.4238
  106OSM   H17S10869   2.858   0.133   8.968 -1.6660  0.5662  0.6282
  106OSM   H17T10870   2.903   0.302   8.975 -0.5035  1.1065 -1.0102
  106OSM   C18S10871   2.934   0.210   8.777 -0.8165  0.0984  0.6451
  106OSM   H18S10872   2.872   0.154   8.705 -0.3499 -1.6926  1.6049
  106OSM   H18T10873   3.025   0.149   8.798 -1.9108 -1.7978 -0.0341
  106OSM   H18U10874   2.956   0.306   8.725 -0.2575 -2.2010 -3.5071
  106OSM    C1F10875   3.148   0.954  10.009 -0.1940 -0.6757 -0.5708
  106OSM     OF10876   3.266   0.982  10.026  0.2778 -0.3686  0.0107
  106OSM    C2F10877   3.053   1.028   9.921  0.2998 -0.3874  0.0330
  106OSM    H2F10878   3.001   1.103   9.985  0.1640  0.4609 -1.0591
  106OSM    H2G10879   2.977   0.951   9.895  0.3016 -0.8782  1.4299
  106OSM    C3F10880   3.114   1.085   9.787  0.4665  0.2556  0.5046
  106OSM    H3F10881   3.181   1.172   9.802 -2.0575  2.2513  0.6316
  106OSM    H3G10882   3.029   1.121   9.725  0.8960 -0.3238 -0.4306
  106OSM    C4F10883   3.201   0.991   9.707 -0.4506 -0.1804  0.3731
  106OSM    H4F10884   3.286   0.942   9.757  0.0368  0.3907  0.1076
  106OSM    H4G10885   3.236   1.048   9.618 -0.2890 -0.1453  0.4593
  106OSM    C5F10886   3.117   0.879   9.644  0.4227 -0.8505 -0.4631
  106OSM    H5F10887   3.016   0.922   9.628  0.6872 -0.4658 -1.1325
  106OSM    H5G10888   3.110   0.797   9.718 -1.5166  1.1053  1.6209
  106OSM    C6F10889   3.169   0.842   9.505 -0.4147 -0.4632 -0.4768
  106OSM    H6F10890   3.270   0.796   9.507 -1.2329 -2.2536  1.6770
  106OSM    H6G10891   3.178   0.940   9.453  0.1471  0.5085  1.4014
  106OSM    C7F10892   3.062   0.759   9.424 -0.4137  0.0711  0.9182
  106OSM    H7F10893   2.970   0.820   9.437 -0.6706 -0.3951  1.3148
  106OSM    H7G10894   3.040   0.662   9.474 -0.1688 -0.5238 -0.1039
  106OSM    C8F10895   3.100   0.747   9.280 -0.3441  1.0814  0.0197
  106OSM    H8F10896   3.196   0.691   9.274 -1.1407 -0.4352  1.1237
  106OSM    H8G10897   3.112   0.850   9.241 -2.6816  1.5449  0.4837
  106OSM    C9F10898   2.995   0.673   9.197  0.9466  0.3252  0.4035
  106OSM    H9F10899   2.906   0.736   9.207 -0.0106 -0.9460  0.0574
  106OSM   C10F10900   2.992   0.563   9.117 -0.0916  0.1573  0.3576
  106OSM   H10F10901   2.902   0.543   9.057 -0.5535  0.6553  0.8792
  106OSM   C11F10902   3.105   0.471   9.094  0.5764 -0.2800 -0.1621
  106OSM   H11F10903   3.083   0.364   9.072  0.1503 -0.1708 -0.2708
  106OSM   H11G10904   3.159   0.457   9.191 -0.9938 -3.0725  0.3740
  106OSM   C12F10905   3.193   0.541   8.984  0.2666  0.3982  0.4536
  106OSM   H12F10906   3.294   0.493   8.990  0.2746  0.4041  0.3568
  106OSM   H12G10907   3.217   0.647   9.006 -1.7065  1.1775 -1.0709
  106OSM   C13F10908   3.127   0.535   8.846  0.4157 -0.1108 -0.3025
  106OSM   H13F10909   3.048   0.612   8.831  0.2283 -0.4486 -1.0713
  106OSM   H13G10910   3.081   0.438   8.820 -0.6424  0.3547 -0.1689
  106OSM   C14F10911   3.237   0.558   8.741 -0.8084 -0.0100  0.1239
  106OSM   H14F10912   3.302   0.468   8.737 -0.0008  0.6173 -1.2211
  106OSM   H14G10913   3.295   0.648   8.772 -0.9289 -0.0924  0.5880
  106OSM   C15F10914   3.177   0.588   8.601  0.0610 -0.2291  0.6290
  106OSM   H15F10915   3.254   0.643   8.543  1.0880 -0.1661  2.0303
  106OSM   H15G10916   3.094   0.659   8.622 -1.9417 -2.6542  1.1668
  106OSM   C16F10917   3.131   0.472   8.512 -0.3919  0.0296  0.5025
  106OSM   H16F10918   3.061   0.402   8.562  0.8813 -0.3221  1.8516
  106OSM   H16G10919   3.219   0.408   8.488  0.5333  1.3399  0.3546
  106OSM   C17F10920   3.066   0.512   8.383 -0.0132 -0.3947  0.5496
  106OSM   H17F10921   2.974   0.565   8.414  0.1165  1.7653 -2.5954
  106OSM   H17G10922   3.028   0.424   8.327  2.8636 -2.4529  1.6527
  106OSM   C18F10923   3.146   0.588   8.279 -0.2448 -0.1975 -0.4632
  106OSM   H18F10924   3.074   0.596   8.195  0.0575 -1.5244 -0.8482
  106OSM   H18G10925   3.233   0.533   8.239 -1.6009 -1.0246 -2.3406
  106OSM   H18H10926   3.175   0.687   8.322 -0.1392  0.5198 -2.1442
  107OSM      N10927   4.132   5.326  11.405 -0.0816 -0.8142 -0.2110
  107OSM    C1510928   3.996   5.396  11.418  0.1205 -0.8468  0.4973
  107OSM   H15A10929   3.932   5.391  11.331  2.8189  0.7847 -1.6693
  107OSM   H15B10930   4.001   5.504  11.426 -2.9483 -0.6094 -0.3374
  107OSM   H15C10931   3.938   5.348  11.496 -0.3706 -1.4334 -0.2283
  107OSM    C1410932   4.214   5.359  11.527 -0.1133 -0.5434 -0.2741
  107OSM   H14A10933   4.163   5.328  11.617  0.1986  0.2009  0.1632
  107OSM   H14B10934   4.235   5.465  11.531 -1.4337 -0.1932 -2.0948
  107OSM   H14C10935   4.312   5.312  11.524  0.9237  1.5885 -1.6052
  107OSM    C1310936   4.117   5.180  11.393  0.2295 -0.1599 -0.7610
  107OSM   H13A10937   4.058   5.147  11.478  0.4770  1.6020  0.1149
  107OSM   H13B10938   4.209   5.125  11.397 -0.2740 -0.9543  0.3841
  107OSM   H13C10939   4.065   5.159  11.301  1.0184  0.0028 -1.2356
  107OSM    C1210940   4.210   5.383  11.282 -0.2781  0.0729  0.5630
  107OSM   H12A10941   4.313   5.352  11.285 -0.5125 -0.8440 -0.7609
  107OSM   H12B10942   4.193   5.490  11.286  3.5753  0.7783  0.5090
  107OSM    C1110943   4.155   5.353  11.140  0.6208  0.0805  0.7191
  107OSM   H11A10944   4.167   5.244  11.120 -3.2363 -0.4727  1.1326
  107OSM   H11B10945   4.218   5.390  11.056 -0.1699 -2.2779 -0.9556
  107OSM      P10946   3.980   5.523  11.048  0.3127 -0.0200 -0.0070
  107OSM    O1310947   3.835   5.561  11.068  0.0468  0.8936  0.3152
  107OSM    O1410948   4.067   5.637  11.087 -0.0480  0.7224  0.0724
  107OSM    O1110949   4.009   5.499  10.892 -0.0233 -0.4088 -0.1146
  107OSM    O1210950   4.017   5.392  11.128 -0.0085  0.3395  0.8226
  107OSM    C1S10951   3.979   5.375  10.829  0.2680  0.1819  0.3290
  107OSM    H1S10952   3.872   5.373  10.800  0.9853 -0.1720 -2.4117
  107OSM    H1T10953   4.006   5.281  10.883 -1.5371  0.1696  1.2620
  107OSM     NF10954   3.999   5.257  10.605 -0.0489 -0.6540 -0.4541
  107OSM    HNF10955   4.052   5.173  10.615  0.3041 -0.4375 -0.4948
  107OSM    C2S10956   4.048   5.366  10.690 -0.8580 -0.5199 -0.1627
  107OSM    H2S10957   4.022   5.454  10.626  0.7736  1.2220  1.4892
  107OSM    C3S10958   4.208   5.360  10.710  0.3177 -0.5117 -0.4355
  107OSM    H3S10959   4.230   5.259  10.750  2.9585 -0.4065 -1.4861
  107OSM     O310960   4.261   5.458  10.799 -0.3754 -0.0040  0.2329
  107OSM    HO310961   4.186   5.496  10.846 -0.0120  1.3074 -0.2116
  107OSM    C4S10962   4.281   5.380  10.581  0.3932 -0.2765  0.4308
  107OSM    H4S10963   4.286   5.481  10.536  0.3623 -1.9058 -3.4581
  107OSM    C5S10964   4.360   5.289  10.523  0.0981  0.2327  0.3140
  107OSM    H5S10965   4.374   5.186  10.560 -0.1134 -0.6503 -2.0195
  107OSM    C6S10966   4.436   5.312  10.398  0.7035  0.4122 -0.2108
  107OSM    H6S10967   4.532   5.256  10.405  0.6586 -0.0665 -2.9742
  107OSM    H6T10968   4.469   5.418  10.411  1.9078 -0.1113  1.2159
  107OSM    C7S10969   4.379   5.259  10.267  0.1109  0.5015 -0.5475
  107OSM    H7S10970   4.272   5.289  10.259  0.1079  0.4599 -0.6532
  107OSM    H7T10971   4.362   5.151  10.251 -3.3980  0.9788 -0.5444
  107OSM    C8S10972   4.453   5.327  10.144  0.5470  0.5340  0.1231
  107OSM    H8S10973   4.433   5.436  10.153 -1.3253  0.1518  0.7047
  107OSM    H8T10974   4.395   5.284  10.060 -1.7689  1.8996  0.9679
  107OSM    C9S10975   4.600   5.317  10.123 -0.2773  0.2840  0.0325
  107OSM    H9S10976   4.643   5.216  10.102 -2.9057 -0.9719  0.4913
  107OSM    H9T10977   4.664   5.352  10.207 -0.6037  1.5466 -0.2486
  107OSM   C10S10978   4.639   5.414  10.006  0.7145  0.0155  0.1656
  107OSM   H10S10979   4.595   5.514  10.026  1.7220  0.5153 -0.1014
  107OSM   H10T10980   4.612   5.367   9.909  1.4808 -2.1619  0.9636
  107OSM   C11S10981   4.794   5.434   9.986  0.2326  0.2389 -0.3770
  107OSM   H11S10982   4.851   5.353  10.037 -0.1587  0.3206  0.1931
  107OSM   H11T10983   4.823   5.530  10.034  0.9990  0.0828 -0.5192
  107OSM   C12S10984   4.822   5.465   9.841 -0.1928  0.1234  0.8804
  107OSM   H12S10985   4.783   5.378   9.784  0.3902  1.6137 -1.8721
  107OSM   H12T10986   4.932   5.463   9.823 -0.4238  2.9050 -1.1617
  107OSM   C13S10987   4.761   5.597   9.790  0.2025  0.0085  0.0421
  107OSM   H13S10988   4.814   5.679   9.844  1.3430 -0.1775 -0.7679
  107OSM   H13T10989   4.653   5.595   9.815 -0.3152  1.3544 -1.9501
  107OSM   C14S10990   4.762   5.609   9.639 -0.4376  0.4400 -0.0343
  107OSM   H14S10991   4.867   5.627   9.609 -0.0553 -0.8250  0.4857
  107OSM   H14T10992   4.705   5.698   9.605 -0.9534  0.3769  0.6520
  107OSM   C15S10993   4.703   5.480   9.567 -0.0919 -0.8737 -0.4233
  107OSM   H15S10994   4.617   5.446   9.630  1.4054 -2.1236  0.9977
  107OSM   H15T10995   4.785   5.405   9.562 -0.6759 -1.5542  0.0672
  107OSM   C16S10996   4.651   5.513   9.426 -0.1122  0.8644  0.1692
  107OSM   H16S10997   4.576   5.594   9.430 -1.5927 -0.5524  1.5432
  107OSM   H16T10998   4.594   5.427   9.385  1.3273 -0.8505  1.6860
  107OSM   C17S10999   4.763   5.551   9.328 -0.6534  0.2889 -0.6465
  107OSM   H17S11000   4.838   5.623   9.368 -1.2047  0.1443  0.6664
  107OSM   H17T11001   4.728   5.617   9.245  0.6112  0.7909 -0.7977
  107OSM   C18S11002   4.829   5.420   9.286 -0.6528 -0.8412  1.0090
  107OSM   H18S11003   4.912   5.451   9.219 -0.6993 -0.7515  0.9926
  107OSM   H18T11004   4.760   5.349   9.236  0.5183 -1.6049  0.4577
  107OSM   H18U11005   4.891   5.377   9.368  1.4059  1.1063  0.5251
  107OSM    C1F11006   3.884   5.261  10.534  0.4773 -0.0298  0.1398
  107OSM     OF11007   3.820   5.370  10.537  0.0096 -0.7365 -0.5850
  107OSM    C2F11008   3.847   5.129  10.476  0.2820 -0.1787  0.1866
  107OSM    H2F11009   3.740   5.108  10.499  0.6884 -1.1288  1.2663
  107OSM    H2G11010   3.910   5.047  10.517  1.5586 -1.0914 -3.4137
  107OSM    C3F11011   3.857   5.137  10.321  0.4393 -0.2402 -0.5336
  107OSM    H3F11012   3.798   5.222  10.280 -3.4162 -1.4394  2.2142
  107OSM    H3G11013   3.809   5.044  10.283  0.0203 -0.3131  0.1617
  107OSM    C4F11014   4.008   5.133  10.275 -0.4104 -0.4301 -0.1389
  107OSM    H4F11015   4.057   5.048  10.328  0.8168 -0.0382 -0.6380
  107OSM    H4G11016   4.063   5.222  10.311 -0.2785 -1.0056  1.1362
  107OSM    C5F11017   4.041   5.111  10.127  0.3230  0.3498 -0.3173
  107OSM    H5F11018   4.151   5.104  10.112  0.3932 -0.0815  0.4135
  107OSM    H5G11019   4.013   5.209  10.082  0.0232  0.6336  0.4797
  107OSM    C6F11020   3.965   4.996  10.055 -0.3609 -0.0417  0.3707
  107OSM    H6F11021   3.856   4.999  10.078 -0.4320 -0.1372  0.0438
  107OSM    H6G11022   4.010   4.899  10.085 -0.2994 -0.8562 -2.2637
  107OSM    C7F11023   3.992   4.998   9.907  0.8530  0.7563 -0.1427
  107OSM    H7F11024   4.101   4.979   9.894  0.7311 -1.1412  1.3517
  107OSM    H7G11025   3.974   5.107   9.891  1.5210  0.8458 -0.3144
  107OSM    C8F11026   3.911   4.900   9.827  0.5881  0.1015  0.3638
  107OSM    H8F11027   3.956   4.900   9.725  0.8086  0.4969  0.4613
  107OSM    H8G11028   3.804   4.927   9.814  0.4318 -0.3948  0.6202
  107OSM    C9F11029   3.904   4.766   9.876  0.8427  0.2859  0.2746
  107OSM    H9F11030   3.885   4.758   9.984 -0.5657  1.9801  0.1779
  107OSM   C10F11031   3.921   4.651   9.806  0.0406  0.5209 -0.3958
  107OSM   H10F11032   3.893   4.555   9.852 -1.1410  1.2901  0.5248
  107OSM   C11F11033   3.955   4.649   9.657  0.6591  0.0338  0.2029
  107OSM   H11F11034   3.879   4.692   9.589 -0.1533 -1.7547 -0.0711
  107OSM   H11G11035   3.961   4.542   9.625  0.8628  0.1944 -0.2931
  107OSM   C12F11036   4.100   4.693   9.613  0.0448  0.1544  0.2719
  107OSM   H12F11037   4.169   4.621   9.661  1.2819 -0.5458 -2.4974
  107OSM   H12G11038   4.122   4.794   9.656  0.6143 -0.2346  0.9061
  107OSM   C13F11039   4.109   4.690   9.454  0.3362  0.1818 -0.5466
  107OSM   H13F11040   4.062   4.594   9.424 -1.3123  1.2273 -1.3542
  107OSM   H13G11041   4.218   4.669   9.449  0.0295 -1.5137 -0.4908
  107OSM   C14F11042   4.057   4.806   9.379  0.1655  0.4145 -0.2379
  107OSM   H14F11043   4.091   4.897   9.433 -0.7204 -1.0971  2.9786
  107OSM   H14G11044   3.946   4.810   9.383  0.2475  3.0326  0.7468
  107OSM   C15F11045   4.097   4.826   9.230 -0.4803  0.2880 -0.4834
  107OSM   H15F11046   4.206   4.809   9.228 -0.2632  1.5604  0.2455
  107OSM   H15G11047   4.067   4.925   9.190 -1.0480  1.2942  2.3199
  107OSM   C16F11048   4.028   4.719   9.140 -0.5578 -0.1117 -0.7019
  107OSM   H16F11049   3.922   4.715   9.174 -0.0126 -0.3179  1.0556
  107OSM   H16G11050   4.073   4.619   9.158 -0.3721  0.4746  2.4891
  107OSM   C17F11051   4.027   4.739   8.986  0.0624 -0.0026  1.0197
  107OSM   H17F11052   3.971   4.649   8.952  2.5347 -0.4913 -1.9999
  107OSM   H17G11053   4.131   4.738   8.949  0.6793 -1.0355  2.7054
  107OSM   C18F11054   3.957   4.868   8.944 -0.6744  0.1004  0.4888
  107OSM   H18F11055   4.026   4.956   8.947  1.5491 -1.4862 -2.0072
  107OSM   H18G11056   3.882   4.894   9.022  0.6528 -0.5262  2.0199
  107OSM   H18H11057   3.922   4.866   8.839 -0.7481 -0.0414  0.5159
  108OSM      N11058   0.974   2.965  11.254  0.5709 -0.2557 -0.1502
  108OSM    C1511059   1.038   2.911  11.382 -0.9675  0.2050 -0.2590
  108OSM   H15A11060   1.138   2.876  11.362 -0.7511  0.9376 -0.4582
  108OSM   H15B11061   0.979   2.828  11.419  1.2440 -2.1588 -1.8790
  108OSM   H15C11062   1.048   2.991  11.454 -0.3317 -0.8620  0.8605
  108OSM    C1411063   0.828   2.981  11.289 -0.3248 -0.0200  1.0827
  108OSM   H14A11064   0.760   2.971  11.206  1.8302  0.3573 -0.7689
  108OSM   H14B11065   0.812   3.084  11.318 -0.7887  0.6344 -1.3951
  108OSM   H14C11066   0.792   2.906  11.359 -1.8563  0.4983  0.8877
  108OSM    C1311067   1.043   3.088  11.208  0.7286  0.1570 -0.0063
  108OSM   H13A11068   1.149   3.066  11.208  1.0215  1.5440 -0.5329
  108OSM   H13B11069   1.029   3.170  11.277  0.2737  2.9494 -3.3024
  108OSM   H13C11070   1.005   3.121  11.112 -1.5664 -1.7669  0.1802
  108OSM    C1211071   0.977   2.859  11.150 -0.1685 -0.1835  0.2823
  108OSM   H12A11072   0.941   2.763  11.184 -0.2839  0.9876  3.6400
  108OSM   H12B11073   1.084   2.847  11.151  0.0906  1.8232 -0.4432
  108OSM    C1111074   0.913   2.890  11.011 -0.4812 -0.0549 -0.1920
  108OSM   H11A11075   0.803   2.901  11.027 -0.7785 -1.0786 -1.5021
  108OSM   H11B11076   0.913   2.804  10.940  0.7149  2.0381 -2.8093
  108OSM      P11077   1.089   2.993  10.845  0.0852  0.2628 -0.3784
  108OSM    O1311078   1.128   3.130  10.798 -0.2567 -0.3112  0.1831
  108OSM    O1411079   1.188   2.915  10.921  0.2274 -0.1035 -0.0605
  108OSM    O1111080   1.039   2.909  10.723  0.3323  0.3328  0.3003
  108OSM    O1211081   0.961   3.009  10.942 -0.1185 -0.5357 -0.1278
  108OSM    C1S11082   0.919   2.917  10.643 -0.2886 -0.5339 -0.4957
  108OSM    H1S11083   0.894   3.023  10.618 -2.5299 -0.8952  0.1089
  108OSM    H1T11084   0.837   2.880  10.708 -0.8488 -1.0866 -1.5217
  108OSM     NF11085   0.820   2.832  10.430 -0.6363 -0.6012 -0.3735
  108OSM    HNF11086   0.773   2.744  10.433 -0.0327 -0.8631  2.7990
  108OSM    C2S11087   0.938   2.830  10.515 -0.1912  0.8531 -0.2572
  108OSM    H2S11088   1.019   2.870  10.451 -2.4159 -0.1479 -3.9131
  108OSM    C3S11089   0.978   2.683  10.546  0.1615  0.1094  0.4005
  108OSM    H3S11090   0.890   2.640  10.598  0.2864 -1.6523 -0.7884
  108OSM     O311091   1.090   2.671  10.634  0.0864 -0.3623 -0.0421
  108OSM    HO311092   1.103   2.761  10.666  0.7668  0.1752 -1.7436
  108OSM    C4S11093   1.010   2.605  10.426  0.7751  0.4231 -0.3070
  108OSM    H4S11094   1.098   2.640  10.371  0.6023  1.2434 -0.0757
  108OSM    C5S11095   0.929   2.504  10.376  0.0553  0.4427 -0.3186
  108OSM    H5S11096   0.834   2.473  10.423  1.6732 -1.6194  1.7041
  108OSM    C6S11097   0.961   2.434  10.245 -0.2027 -0.0074 -0.2987
  108OSM    H6S11098   0.891   2.349  10.230 -0.3961  0.1734 -0.4272
  108OSM    H6T11099   1.068   2.405  10.242  0.1194  0.9007  1.3169
  108OSM    C7S11100   0.951   2.534  10.123  0.3591  0.0919 -0.4724
  108OSM    H7S11101   1.020   2.619  10.137  0.9379 -0.2427 -1.2579
  108OSM    H7T11102   0.850   2.578  10.138  0.3605 -0.0419 -0.0700
  108OSM    C8S11103   0.969   2.468   9.987 -0.1303 -0.1443  0.2596
  108OSM    H8S11104   0.928   2.366  10.001  2.4244 -1.0884  1.0829
  108OSM    H8T11105   1.079   2.469   9.969 -0.3569  3.5518 -1.4898
  108OSM    C9S11106   0.889   2.543   9.875  0.6712 -0.1142  0.4204
  108OSM    H9S11107   0.918   2.650   9.871  1.5310 -0.3282  0.8454
  108OSM    H9T11108   0.782   2.545   9.905  0.1168  2.9785 -1.5299
  108OSM   C10S11109   0.883   2.454   9.748 -0.2285 -0.5666  0.1659
  108OSM   H10S11110   0.882   2.348   9.780  1.4346 -1.2230 -1.8050
  108OSM   H10T11111   0.979   2.454   9.692  0.8893 -0.8831  2.0384
  108OSM   C11S11112   0.765   2.495   9.654  0.3083 -0.4231 -0.4453
  108OSM   H11S11113   0.747   2.605   9.643 -0.5754 -0.5795 -0.6220
  108OSM   H11T11114   0.676   2.446   9.698  0.0194  0.8348  0.4221
  108OSM   C12S11115   0.799   2.437   9.518  0.5306 -0.1612  0.2822
  108OSM   H12S11116   0.812   2.327   9.531  1.2602  0.0580  1.4812
  108OSM   H12T11117   0.896   2.469   9.476  0.8980 -0.2862  1.0149
  108OSM   C13S11118   0.683   2.456   9.418  0.1016  0.2664  1.3173
  108OSM   H13S11119   0.660   2.564   9.406  2.2058  0.6256  0.3505
  108OSM   H13T11120   0.593   2.417   9.470  1.0110 -0.6526  2.2282
  108OSM   C14S11121   0.716   2.409   9.277 -0.4589  0.5454 -0.3137
  108OSM   H14S11122   0.702   2.299   9.280 -1.7470  0.6551 -1.4334
  108OSM   H14T11123   0.824   2.433   9.274 -0.5158  0.6610 -1.7980
  108OSM   C15S11124   0.643   2.488   9.174  0.1576 -0.3347  0.5723
  108OSM   H15S11125   0.682   2.592   9.167  0.5824 -0.4515  1.1015
  108OSM   H15T11126   0.534   2.493   9.193 -0.0114  1.3014 -0.6979
  108OSM   C16S11127   0.659   2.430   9.029 -0.4407  0.2881  0.6583
  108OSM   H16S11128   0.636   2.321   9.029  3.1403 -0.5432  2.9778
  108OSM   H16T11129   0.762   2.448   8.992 -1.1963 -0.7592 -2.1108
  108OSM   C17S11130   0.567   2.495   8.930  0.3416 -0.4948  0.2577
  108OSM   H17S11131   0.569   2.606   8.935  1.3044 -0.5799  2.2486
  108OSM   H17T11132   0.467   2.471   8.971 -0.7333  0.3578 -1.8230
  108OSM   C18S11133   0.571   2.439   8.787  0.7963  0.1771 -0.0312
  108OSM   H18S11134   0.663   2.469   8.732 -0.7823  0.2345 -2.7281
  108OSM   H18T11135   0.491   2.485   8.725  0.5284 -0.5173 -0.2030
  108OSM   H18U11136   0.563   2.328   8.786  1.3118  0.1376  0.2539
  108OSM    C1F11137   0.770   2.943  10.377  0.3773  0.1953  0.5111
  108OSM     OF11138   0.839   3.043  10.355  0.4232 -0.0158  0.0246
  108OSM    C2F11139   0.618   2.957  10.344  0.0577  0.7376 -0.0451
  108OSM    H2F11140   0.611   3.048  10.282  0.8521  0.0281 -1.1874
  108OSM    H2G11141   0.549   2.970  10.430 -2.6373 -1.0581 -1.8809
  108OSM    C3F11142   0.569   2.838  10.260 -0.0236  0.3308 -0.4519
  108OSM    H3F11143   0.458   2.842  10.257 -0.0833 -1.4929 -0.9361
  108OSM    H3G11144   0.595   2.741  10.307 -0.8224 -0.6612 -2.0214
  108OSM    C4F11145   0.622   2.839  10.113 -0.2276 -0.7468 -0.1792
  108OSM    H4F11146   0.733   2.832  10.115  0.0288  1.5774 -2.6847
  108OSM    H4G11147   0.609   2.941  10.071 -0.0319 -0.3019  0.8130
  108OSM    C5F11148   0.542   2.740  10.030 -0.9370 -0.2440 -0.2907
  108OSM    H5F11149   0.437   2.758  10.060 -1.3106  0.7164 -2.1189
  108OSM    H5G11150   0.567   2.633  10.046  0.9795  0.0347 -1.2526
  108OSM    C6F11151   0.550   2.779   9.884  0.0099  1.0282 -0.4082
  108OSM    H6F11152   0.654   2.755   9.855  0.3735  0.4480  1.3000
  108OSM    H6G11153   0.538   2.889   9.872 -0.7415  1.1151  0.9958
  108OSM    C7F11154   0.442   2.707   9.804 -0.7907 -0.0792 -0.0409
  108OSM    H7F11155   0.467   2.736   9.700 -0.2181 -1.5562 -0.3311
  108OSM    H7G11156   0.335   2.737   9.817 -0.7010  0.0672  0.3705
  108OSM    C8F11157   0.435   2.553   9.813 -0.0384 -0.6425 -0.8223
  108OSM    H8F11158   0.538   2.513   9.823  0.4488  1.1012  2.0946
  108OSM    H8G11159   0.396   2.504   9.722 -0.4584 -0.3337 -0.8108
  108OSM    C9F11160   0.360   2.510   9.942 -0.2054 -0.0802  0.3287
  108OSM    H9F11161   0.260   2.554   9.945 -0.7279 -1.1296 -0.9392
  108OSM   C10F11162   0.395   2.422  10.035 -0.2467 -0.4714  0.4075
  108OSM   H10F11163   0.324   2.393  10.114  0.8753 -0.7677  1.3284
  108OSM   C11F11164   0.519   2.344  10.051 -0.0511  0.5644 -0.0351
  108OSM   H11F11165   0.547   2.353  10.158  0.0234  2.7163 -0.2046
  108OSM   H11G11166   0.607   2.388  10.000  1.5870 -0.6433  1.6771
  108OSM   C12F11167   0.518   2.195  10.008  0.2365 -0.0101 -0.1215
  108OSM   H12F11168   0.424   2.149  10.044  0.1352  1.7963  2.0212
  108OSM   H12G11169   0.599   2.144  10.065 -0.1009  0.1944  0.5406
  108OSM   C13F11170   0.552   2.177   9.853 -0.3718 -0.3311  0.3972
  108OSM   H13F11171   0.645   2.229   9.819  0.6547 -0.4591  2.9010
  108OSM   H13G11172   0.469   2.218   9.792  1.7906  1.0279 -1.7508
  108OSM   C14F11173   0.582   2.033   9.813  0.1070  0.2187  0.0629
  108OSM   H14F11174   0.489   1.977   9.836 -0.2014  1.0514  0.8342
  108OSM   H14G11175   0.649   1.981   9.885  1.0214  0.6765 -0.4565
  108OSM   C15F11176   0.630   2.025   9.666  0.5042  0.5494 -0.4020
  108OSM   H15F11177   0.602   2.113   9.604 -0.8113  0.1046 -0.4447
  108OSM   H15G11178   0.594   1.933   9.616  2.2623 -0.2544 -0.2279
  108OSM   C16F11179   0.787   2.008   9.653 -0.5023 -1.1922 -0.0398
  108OSM   H16F11180   0.823   1.946   9.738 -1.9273  0.6341  1.9627
  108OSM   H16G11181   0.834   2.107   9.670 -0.1783 -1.3968  0.2519
  108OSM   C17F11182   0.829   1.947   9.523 -0.5612 -0.2423 -0.3367
  108OSM   H17F11183   0.787   1.844   9.521 -0.4000 -0.2950 -1.4076
  108OSM   H17G11184   0.939   1.930   9.526 -0.5405 -0.7992 -3.0793
  108OSM   C18F11185   0.788   2.020   9.393 -0.3737 -0.5251 -0.7522
  108OSM   H18F11186   0.798   1.944   9.313  1.2454 -0.9943 -0.1291
  108OSM   H18G11187   0.856   2.107   9.379  0.2062 -0.4986  1.9493
  108OSM   H18H11188   0.686   2.066   9.391 -0.4453 -0.6298  0.2467
  109OSM      N11189   1.265   3.426  10.485 -0.4352 -0.3230 -0.4532
  109OSM    C1511190   1.208   3.309  10.559 -0.3068 -0.0521 -0.1304
  109OSM   H15A11191   1.289   3.239  10.575  1.1912  1.6855 -0.0220
  109OSM   H15B11192   1.131   3.253  10.507 -1.1171  2.0545 -1.2723
  109OSM   H15C11193   1.161   3.331  10.653 -1.1562  0.1983 -0.6010
  109OSM    C1411194   1.399   3.473  10.542 -0.0605 -0.0176  0.0483
  109OSM   H14A11195   1.388   3.512  10.642  1.7089  0.3636  0.1143
  109OSM   H14B11196   1.438   3.560  10.491  1.4093 -0.7856 -0.1673
  109OSM   H14C11197   1.473   3.395  10.546 -1.2315 -1.1340  0.3927
  109OSM    C1311198   1.286   3.382  10.344  0.5952 -0.5120 -0.0541
  109OSM   H13A11199   1.205   3.321  10.307 -1.2453  2.6514 -1.4022
  109OSM   H13B11200   1.385   3.338  10.333  0.6419  0.1914 -2.7405
  109OSM   H13C11201   1.284   3.469  10.280 -1.2110 -1.2450 -1.0199
  109OSM    C1211202   1.174   3.548  10.483  0.0970 -0.0592  0.7230
  109OSM   H12A11203   1.078   3.515  10.447  2.1381 -3.0421 -2.2569
  109OSM   H12B11204   1.209   3.625  10.415 -1.8302  0.5282  0.3579
  109OSM    C1111205   1.143   3.612  10.620  0.3732  0.4066  0.2787
  109OSM   H11A11206   1.091   3.541  10.687 -2.0123  0.0652 -1.8323
  109OSM   H11B11207   1.066   3.688  10.592 -1.2569 -1.0988  0.5703
  109OSM      P11208   1.312   3.815  10.663  0.2903  0.0873 -0.2054
  109OSM    O1311209   1.237   3.926  10.735 -0.2432  0.5498 -0.3865
  109OSM    O1411210   1.462   3.807  10.679 -0.1359 -0.1960  0.6172
  109OSM    O1111211   1.287   3.824  10.507 -0.5189 -0.3838 -0.1615
  109OSM    O1211212   1.257   3.674  10.689  0.1327  0.5428 -0.3614
  109OSM    C1S11213   1.359   3.929  10.439 -0.3615 -0.3459 -0.5091
  109OSM    H1S11214   1.457   3.888  10.406 -0.0407  0.1257 -0.1341
  109OSM    H1T11215   1.380   4.015  10.506  2.0157 -2.6280  1.8068
  109OSM     NF11216   1.357   4.063  10.226  0.4874  0.7580  0.1794
  109OSM    HNF11217   1.328   4.157  10.238 -0.9696  0.4043 -0.4816
  109OSM    C2S11218   1.287   3.969  10.308 -0.4976  0.2780  0.4540
  109OSM    H2S11219   1.274   3.875  10.250  1.4053 -1.0872  2.1455
  109OSM    C3S11220   1.138   4.013  10.348  0.6993  0.8822  0.0903
  109OSM    H3S11221   1.136   4.113  10.397 -2.1754 -0.0192  1.9615
  109OSM     O311222   1.051   3.926  10.427 -0.4509 -0.5256  0.6900
  109OSM    HO311223   1.119   3.863  10.451  0.2883 -0.2579 -0.6658
  109OSM    C4S11224   1.053   4.022  10.217  0.4144 -0.3314 -0.0634
  109OSM    H4S11225   1.061   3.941  10.143 -1.5126 -2.6729  2.1938
  109OSM    C5S11226   0.966   4.120  10.189  0.4517  0.0576 -0.7797
  109OSM    H5S11227   0.936   4.200  10.259  1.3488 -0.1736 -0.1216
  109OSM    C6S11228   0.892   4.132  10.057  0.5593  0.4186  0.1193
  109OSM    H6S11229   0.914   4.234  10.021  2.6907  0.1399  0.5821
  109OSM    H6T11230   0.781   4.133  10.062  0.3890  1.1768 -2.9450
  109OSM    C7S11231   0.935   4.030   9.950 -0.1970  0.6229  0.6288
  109OSM    H7S11232   0.926   3.924   9.984 -1.0887  0.2285 -0.7874
  109OSM    H7T11233   1.038   4.066   9.931 -0.9933  3.3082  1.1734
  109OSM    C8S11234   0.866   4.049   9.811  0.6134  0.4506 -0.1795
  109OSM    H8S11235   0.836   4.156   9.806  5.0660  1.8475  0.4075
  109OSM    H8T11236   0.783   3.977   9.800  1.9645 -1.7364  2.9842
  109OSM    C9S11237   0.961   4.032   9.693  0.0589 -0.0188 -0.2134
  109OSM    H9S11238   0.996   3.926   9.692 -1.6173 -0.5879  0.2473
  109OSM    H9T11239   1.054   4.091   9.703  0.7685 -0.9671 -1.0139
  109OSM   C10S11240   0.897   4.075   9.557  0.6237 -0.0163  0.5627
  109OSM   H10S11241   0.887   4.185   9.567 -0.2123 -0.1510  1.2960
  109OSM   H10T11242   0.795   4.034   9.541  0.7962  0.6253 -2.4054
  109OSM   C11S11243   0.983   4.047   9.429  0.7970 -0.1121  0.2632
  109OSM   H11S11244   1.001   3.938   9.420 -0.9517 -0.2351 -2.5461
  109OSM   H11T11245   1.086   4.088   9.424  0.9960 -0.4425  1.6112
  109OSM   C12S11246   0.902   4.082   9.301 -0.1155  0.1003 -0.3766
  109OSM   H12S11247   0.868   4.187   9.314 -2.1763 -0.4706 -0.9317
  109OSM   H12T11248   0.813   4.018   9.280 -1.3167  1.5446  0.1680
  109OSM   C13S11249   0.997   4.071   9.180  0.3003 -0.0686  0.4062
  109OSM   H13S11250   1.061   3.984   9.208  0.1656 -0.6189 -0.9695
  109OSM   H13T11251   1.066   4.155   9.158  0.2490 -0.3497 -0.8189
  109OSM   C14S11252   0.906   4.046   9.058 -0.3329  0.5524 -0.6117
  109OSM   H14S11253   0.824   4.121   9.066  0.0113  0.8058  0.6165
  109OSM   H14T11254   0.849   3.952   9.070 -1.3703  1.4141  1.4380
  109OSM   C15S11255   0.982   4.049   8.926 -0.0854 -0.3916  1.0199
  109OSM   H15S11256   1.051   3.962   8.931  1.3414  0.8581  6.2639
  109OSM   H15T11257   1.039   4.145   8.918 -1.2884  0.2092 -0.7152
  109OSM   C16S11258   0.881   4.053   8.808 -0.1870 -0.0669 -0.1453
  109OSM   H16S11259   0.837   4.155   8.807 -0.5487 -0.2117  0.9457
  109OSM   H16T11260   0.803   3.979   8.837 -2.3540  1.1159 -2.6532
  109OSM   C17S11261   0.961   4.029   8.680  0.9261 -0.2234  0.3062
  109OSM   H17S11262   1.026   3.940   8.663  0.8463 -0.0104 -1.1732
  109OSM   H17T11263   1.034   4.112   8.679 -0.0717  0.6743 -2.1447
  109OSM   C18S11264   0.864   4.027   8.560 -0.2138  0.0372  0.0640
  109OSM   H18S11265   0.914   4.007   8.462  1.6343  1.4959  0.6886
  109OSM   H18T11266   0.803   4.120   8.558 -0.9285 -0.4378 -2.7647
  109OSM   H18U11267   0.787   3.950   8.584  0.1993 -0.2782  0.3845
  109OSM    C1F11268   1.459   4.037  10.159 -0.0098  0.6340  0.4533
  109OSM     OF11269   1.485   3.917  10.142 -0.1176 -0.6068  0.1317
  109OSM    C2F11270   1.531   4.146  10.101 -0.5586  0.0283  0.3008
  109OSM    H2F11271   1.620   4.162  10.165 -0.1732 -0.3619 -0.1314
  109OSM    H2G11272   1.458   4.230  10.101 -0.2385  0.3357 -1.7212
  109OSM    C3F11273   1.562   4.135   9.953 -0.2413 -0.3388 -0.3225
  109OSM    H3F11274   1.591   4.237   9.921  1.4359 -0.6734  0.0291
  109OSM    H3G11275   1.473   4.095   9.900 -1.5744  0.4265  1.3115
  109OSM    C4F11276   1.691   4.048   9.925 -0.1259  0.5897 -0.4174
  109OSM    H4F11277   1.665   3.941   9.933 -1.5888  0.9950  0.4765
  109OSM    H4G11278   1.766   4.053  10.007 -0.5998 -0.1256  0.0653
  109OSM    C5F11279   1.755   4.079   9.786 -0.3370  0.5856 -0.1107
  109OSM    H5F11280   1.835   4.005   9.767 -0.6684  0.0922  0.4127
  109OSM    H5G11281   1.792   4.182   9.804 -0.5376  0.3167  1.9882
  109OSM    C6F11282   1.662   4.079   9.667 -0.0702  0.4340  0.4208
  109OSM    H6F11283   1.572   4.132   9.705  0.1200 -0.1874  1.7574
  109OSM    H6G11284   1.634   3.974   9.644  2.6832 -0.4277  0.8306
  109OSM    C7F11285   1.719   4.151   9.548  0.3836  0.1973 -0.1915
  109OSM    H7F11286   1.827   4.128   9.534 -0.2777 -3.8729  0.5319
  109OSM    H7G11287   1.713   4.259   9.569 -1.3380 -0.1358  1.1419
  109OSM    C8F11288   1.651   4.118   9.411  0.6942 -0.4648 -0.2390
  109OSM    H8F11289   1.695   4.022   9.375 -0.8032 -1.4582  0.5255
  109OSM    H8G11290   1.694   4.195   9.344 -0.6127  0.4002 -0.1080
  109OSM    C9F11291   1.502   4.107   9.397 -0.2260  1.1030  0.1834
  109OSM    H9F11292   1.458   4.027   9.459 -1.0352  2.6922  1.6909
  109OSM   C10F11293   1.425   4.193   9.320  0.2248 -0.4521  0.0875
  109OSM   H10F11294   1.318   4.168   9.324 -0.2165  1.5198  0.7275
  109OSM   C11F11295   1.468   4.318   9.243  0.3518  0.7389 -0.5155
  109OSM   H11F11296   1.575   4.321   9.213 -0.0030  0.0182 -1.9216
  109OSM   H11G11297   1.455   4.403   9.313  0.0306  1.0180 -0.9147
  109OSM   C12F11298   1.392   4.340   9.119 -0.4978  0.7511  0.1076
  109OSM   H12F11299   1.380   4.447   9.091 -0.3575  0.0662 -2.6435
  109OSM   H12G11300   1.289   4.299   9.127 -1.5083  2.7406 -2.2550
  109OSM   C13F11301   1.459   4.264   8.998 -0.4516 -0.3305 -0.0406
  109OSM   H13F11302   1.513   4.176   9.039 -0.1559  0.3909  1.1355
  109OSM   H13G11303   1.527   4.327   8.938 -0.8099  0.5737  0.4920
  109OSM   C14F11304   1.353   4.205   8.911 -0.2337  0.3268  0.7691
  109OSM   H14F11305   1.304   4.279   8.844 -2.0569 -1.3645  0.1788
  109OSM   H14G11306   1.271   4.151   8.962  0.5018 -0.7960  0.7656
  109OSM   C15F11307   1.423   4.111   8.810 -0.2390 -0.0058  0.3161
  109OSM   H15F11308   1.528   4.143   8.794 -0.4075  0.8319  0.8347
  109OSM   H15G11309   1.366   4.119   8.715  2.2999  1.0713 -1.1738
  109OSM   C16F11310   1.419   3.966   8.857 -0.2047 -0.1175  0.0830
  109OSM   H16F11311   1.452   3.907   8.769 -0.9785  1.3947 -1.2429
  109OSM   H16G11312   1.314   3.938   8.881 -0.8866  0.2233 -2.4222
  109OSM   C17F11313   1.506   3.919   8.980 -0.4551 -0.2469 -0.3573
  109OSM   H17F11314   1.470   3.815   8.989 -2.1091  0.3118 -0.1661
  109OSM   H17G11315   1.472   3.968   9.074  2.3773  1.6595 -0.2603
  109OSM   C18F11316   1.658   3.925   8.958 -0.5430 -0.2942 -0.0596
  109OSM   H18F11317   1.677   3.863   8.868 -0.6659 -2.2333  1.2248
  109OSM   H18G11318   1.693   3.874   9.050 -0.8407  0.7578  0.6533
  109OSM   H18H11319   1.698   4.028   8.943 -2.1701  0.0995 -1.8351
  110OSM      N11320   3.182   3.806  10.983  0.3888  0.2199 -0.2294
  110OSM    C1511321   3.099   3.715  11.071 -0.9185 -0.0476 -0.4940
  110OSM   H15A11322   3.111   3.612  11.040 -0.4967 -0.0868 -0.1915
  110OSM   H15B11323   2.992   3.728  11.062 -0.7050  0.6865 -2.1542
  110OSM   H15C11324   3.130   3.714  11.174  0.1476 -2.5833 -0.7836
  110OSM    C1411325   3.253   3.904  11.069  0.0958  0.0796 -0.3469
  110OSM   H14A11326   3.187   3.971  11.123  2.0891  0.0710  2.1907
  110OSM   H14B11327   3.322   3.965  11.013 -0.1048  1.4065  0.8223
  110OSM   H14C11328   3.311   3.873  11.154 -1.9188 -0.4929  0.8490
  110OSM    C1311329   3.276   3.714  10.913 -0.2288 -0.7453  0.5066
  110OSM   H13A11330   3.226   3.629  10.868 -1.5548 -0.2002  0.9201
  110OSM   H13B11331   3.345   3.675  10.987  3.7019  3.2426 -0.8391
  110OSM   H13C11332   3.334   3.770  10.841  1.7041 -1.6280  1.3324
  110OSM    C1211333   3.095   3.879  10.883  0.6411  0.4072 -0.7160
  110OSM   H12A11334   3.152   3.959  10.837  1.3360  0.0798 -0.4349
  110OSM   H12B11335   3.014   3.925  10.937 -0.0026  1.3200 -2.4293
  110OSM    C1111336   3.028   3.797  10.772  0.6598  0.2867 -0.6567
  110OSM   H11A11337   3.097   3.731  10.714  0.8803 -0.3408  0.3133
  110OSM   H11B11338   2.993   3.874  10.700  2.1247  1.6245  0.0346
  110OSM      P11339   2.891   3.573  10.815 -0.3593 -0.3532  0.2868
  110OSM    O1311340   3.017   3.509  10.842 -0.1665  0.2175  0.0860
  110OSM    O1411341   2.774   3.527  10.898 -0.2198 -0.6381 -0.2895
  110OSM    O1111342   2.856   3.560  10.661 -0.2832  0.5116  0.4236
  110OSM    O1211343   2.914   3.732  10.824  0.8436 -0.4629 -0.5469
  110OSM    C1S11344   2.764   3.638  10.595  0.1712 -0.4494  0.0443
  110OSM    H1S11345   2.804   3.735  10.558 -0.1578 -0.0231  0.8015
  110OSM    H1T11346   2.677   3.654  10.662  0.8981 -1.1472  1.1671
  110OSM     NF11347   2.593   3.636  10.411  0.2406  0.9047  0.5159
  110OSM    HNF11348   2.498   3.637  10.442 -0.1270 -2.1734 -0.3460
  110OSM    C2S11349   2.698   3.553  10.479 -0.3194  0.4649  0.0561
  110OSM    H2S11350   2.781   3.546  10.406 -1.6700 -2.4863 -1.2949
  110OSM    C3S11351   2.655   3.412  10.526 -0.2634 -0.0270 -0.1464
  110OSM    H3S11352   2.569   3.424  10.595  0.9302  1.1259  1.1652
  110OSM     O311353   2.751   3.319  10.584  0.2894  1.0907  0.3286
  110OSM    HO311354   2.825   3.376  10.602  1.9246 -0.6829 -0.6319
  110OSM    C4S11355   2.592   3.351  10.400 -0.2224 -0.0606  0.1546
  110OSM    H4S11356   2.482   3.358  10.404 -0.1781  1.8550 -1.3671
  110OSM    C5S11357   2.653   3.281  10.300 -0.3336 -0.6298 -0.9041
  110OSM    H5S11358   2.762   3.266  10.299  0.1545  2.2248  1.0894
  110OSM    C6S11359   2.567   3.229  10.196  0.2872  0.6086  0.1099
  110OSM    H6S11360   2.459   3.246  10.217 -0.3815 -3.2852  0.0958
  110OSM    H6T11361   2.570   3.118  10.200  0.3505  0.6644  1.6246
  110OSM    C7S11362   2.602   3.288  10.057  0.1330  0.1685 -0.0831
  110OSM    H7S11363   2.712   3.282  10.043  0.3246  2.0426  0.4586
  110OSM    H7T11364   2.573   3.395  10.064  1.6255  0.4766  1.8421
  110OSM    C8S11365   2.530   3.226   9.945  0.0269 -0.5014 -1.1906
  110OSM    H8S11366   2.425   3.258   9.962  0.6449  0.9108  0.1475
  110OSM    H8T11367   2.530   3.116   9.934 -0.7140 -0.7728  1.1618
  110OSM    C9S11368   2.578   3.272   9.804  0.3075  0.0001 -0.5716
  110OSM    H9S11369   2.683   3.304   9.823  0.5680 -0.4558 -1.2445
  110OSM    H9T11370   2.526   3.365   9.771 -0.2127 -0.6613 -1.6114
  110OSM   C10S11371   2.560   3.164   9.700  0.0636 -0.4487 -0.4329
  110OSM   H10S11372   2.453   3.149   9.677 -0.1948  0.0686  0.4099
  110OSM   H10T11373   2.596   3.067   9.740 -0.7988  0.2014  2.0128
  110OSM   C11S11374   2.628   3.206   9.566  0.4644  0.3970 -0.0123
  110OSM   H11S11375   2.739   3.203   9.578  0.3470 -1.7212  0.7150
  110OSM   H11T11376   2.601   3.309   9.535  0.1004  0.1616 -0.4869
  110OSM   C12S11377   2.601   3.110   9.449 -0.5459 -0.7000 -0.1785
  110OSM   H12S11378   2.490   3.113   9.442 -0.4418 -1.5917 -3.0094
  110OSM   H12T11379   2.624   3.007   9.484  1.3575 -0.2034  0.1139
  110OSM   C13S11380   2.671   3.162   9.325  0.0885 -0.6494 -1.0087
  110OSM   H13S11381   2.780   3.162   9.343 -0.5761 -3.1751  3.7005
  110OSM   H13T11382   2.630   3.264   9.309 -0.0213 -0.3492  1.0931
  110OSM   C14S11383   2.658   3.069   9.202  0.3690 -0.7119 -0.6652
  110OSM   H14S11384   2.552   3.054   9.171 -0.1460  2.3825 -0.5240
  110OSM   H14T11385   2.713   2.975   9.224  0.4636  0.3784  4.2612
  110OSM   C15S11386   2.723   3.146   9.084 -0.4282  0.1540  0.5947
  110OSM   H15S11387   2.809   3.204   9.124 -1.7871  1.7290  1.2722
  110OSM   H15T11388   2.655   3.229   9.057  1.3671  1.4632 -0.0405
  110OSM   C16S11389   2.742   3.068   8.963  0.1573 -0.4933  0.2834
  110OSM   H16S11390   2.733   3.137   8.876 -2.3531  1.1412  1.7545
  110OSM   H16T11391   2.664   2.991   8.947 -0.0229 -0.1135 -0.7024
  110OSM   C17S11392   2.870   2.990   8.945  0.8299 -0.0081  0.1231
  110OSM   H17S11393   2.877   2.922   9.032 -1.5912  0.1783  0.5064
  110OSM   H17T11394   2.956   3.061   8.945 -0.0519  1.0796 -0.2268
  110OSM   C18S11395   2.875   2.904   8.818  0.6526  0.6039  0.7301
  110OSM   H18S11396   2.959   2.832   8.814  2.2443  2.4294  0.4399
  110OSM   H18T11397   2.876   2.958   8.721 -1.9906 -1.4656 -0.5215
  110OSM   H18U11398   2.781   2.845   8.815  1.0964 -0.0928  0.6134
  110OSM    C1F11399   2.623   3.749  10.340 -0.0556 -0.0484  0.5330
  110OSM     OF11400   2.736   3.794  10.333 -0.4153  0.3469 -0.6899
  110OSM    C2F11401   2.507   3.835  10.291 -0.5200 -0.1921 -0.8981
  110OSM    H2F11402   2.488   3.929  10.348 -3.3103 -0.7653 -0.8330
  110OSM    H2G11403   2.416   3.772  10.289 -0.2676 -0.8437  2.9865
  110OSM    C3F11404   2.542   3.876  10.142 -1.1009 -0.2082  0.4153
  110OSM    H3F11405   2.641   3.918  10.116 -0.8043 -0.7973  0.5918
  110OSM    H3G11406   2.469   3.961  10.135 -0.5225  0.2858  0.3582
  110OSM    C4F11407   2.496   3.768  10.041 -0.4043 -0.8226 -0.3207
  110OSM    H4F11408   2.390   3.734  10.049 -0.0356 -1.4393  2.2882
  110OSM    H4G11409   2.560   3.680  10.063  0.4575 -0.4402 -1.2958
  110OSM    C5F11410   2.518   3.817   9.901 -0.4545  0.7456 -0.4656
  110OSM    H5F11411   2.627   3.836   9.887  0.5212 -3.0266  1.4315
  110OSM    H5G11412   2.463   3.913   9.887  0.2663  1.1971 -0.2522
  110OSM    C6F11413   2.472   3.716   9.786 -0.2725  0.6193 -0.2159
  110OSM    H6F11414   2.370   3.674   9.800  0.3268 -0.2866  1.5174
  110OSM    H6G11415   2.540   3.628   9.789 -0.2658  0.6489  0.7000
  110OSM    C7F11416   2.483   3.779   9.647  0.6264 -0.1052  0.4877
  110OSM    H7F11417   2.591   3.778   9.622  0.3439  0.2857 -0.8058
  110OSM    H7G11418   2.437   3.880   9.658  1.2518  0.1070  1.1283
  110OSM    C8F11419   2.404   3.702   9.534 -0.2360  0.4929  0.2400
  110OSM    H8F11420   2.399   3.771   9.447 -0.8861 -0.0883 -0.1864
  110OSM    H8G11421   2.298   3.691   9.564  0.0945 -0.9878  0.8858
  110OSM    C9F11422   2.470   3.574   9.494  0.5591 -0.3231  0.6973
  110OSM    H9F11423   2.550   3.545   9.563  0.2787 -1.5837  0.5114
  110OSM   C10F11424   2.435   3.506   9.385 -0.0641 -0.1574  0.3574
  110OSM   H10F11425   2.465   3.401   9.374  0.7887 -0.2490  3.2430
  110OSM   C11F11426   2.342   3.564   9.278 -0.3845  0.2674  0.1562
  110OSM   H11F11427   2.363   3.669   9.249 -0.6282  0.1767 -0.3518
  110OSM   H11G11428   2.240   3.549   9.322 -0.3059 -1.6010 -0.2618
  110OSM   C12F11429   2.335   3.481   9.143  0.3202  0.2638 -0.3508
  110OSM   H12F11430   2.244   3.513   9.088 -0.7534 -1.8832  0.1214
  110OSM   H12G11431   2.331   3.374   9.172 -3.0079  0.6403  0.7066
  110OSM   C13F11432   2.463   3.506   9.068  0.0152  0.2648 -0.4837
  110OSM   H13F11433   2.543   3.440   9.107 -0.0996 -0.9810 -2.2470
  110OSM   H13G11434   2.499   3.610   9.083  0.7647  0.1781 -1.6315
  110OSM   C14F11435   2.443   3.469   8.921  0.2696  0.6504 -0.2435
  110OSM   H14F11436   2.356   3.525   8.881 -0.4718 -0.2248  0.1289
  110OSM   H14G11437   2.427   3.360   8.913 -0.2116  0.5671  1.6256
  110OSM   C15F11438   2.571   3.519   8.850 -0.2253  0.2290 -0.7353
  110OSM   H15F11439   2.664   3.466   8.877 -0.4964 -0.5493 -1.3062
  110OSM   H15G11440   2.576   3.624   8.886 -3.1039  0.4330 -0.7904
  110OSM   C16F11441   2.567   3.499   8.699 -0.7747 -0.1126  0.8854
  110OSM   H16F11442   2.488   3.556   8.645 -3.0822 -2.1497  1.9930
  110OSM   H16G11443   2.541   3.391   8.688 -0.3915  0.1405 -3.6205
  110OSM   C17F11444   2.699   3.504   8.625 -0.2677 -0.0692 -0.1559
  110OSM   H17F11445   2.757   3.419   8.666 -1.7743 -1.2864 -0.5086
  110OSM   H17G11446   2.747   3.601   8.651  0.6319 -0.0861 -1.7320
  110OSM   C18F11447   2.668   3.499   8.472 -0.5242  0.5486 -0.0483
  110OSM   H18F11448   2.757   3.498   8.405 -1.2569 -1.3112 -1.0639
  110OSM   H18G11449   2.601   3.584   8.447  0.2642  1.6079  1.3949
  110OSM   H18H11450   2.605   3.407   8.462 -0.9758  0.9131 -0.6284
  111OSM      N11451   3.496   6.515  11.092 -0.0356 -0.0400 -0.2871
  111OSM    C1511452   3.524   6.661  11.094 -0.6778 -0.5132 -0.3381
  111OSM   H15A11453   3.495   6.708  11.186 -0.2588  2.9840 -1.8954
  111OSM   H15B11454   3.463   6.711  11.020 -1.8526 -0.5407  0.5947
  111OSM   H15C11455   3.630   6.681  11.085 -0.5673 -0.2636  1.3441
  111OSM    C1411456   3.571   6.442  11.209  0.0201  0.1425 -0.1646
  111OSM   H14A11457   3.579   6.337  11.185 -1.5558  0.2373 -1.1966
  111OSM   H14B11458   3.525   6.468  11.303 -0.9646 -2.0005 -0.0282
  111OSM   H14C11459   3.670   6.485  11.211  0.3419 -0.3276 -3.1008
  111OSM    C1311460   3.348   6.501  11.099  0.5313  0.5887  0.5030
  111OSM   H13A11461   3.317   6.398  11.107  2.4768 -0.2375 -1.8079
  111OSM   H13B11462   3.300   6.560  11.023  2.6959  1.5526 -0.1654
  111OSM   H13C11463   3.317   6.545  11.193  0.7192  1.9214 -0.0417
  111OSM    C1211464   3.547   6.468  10.963  0.4311  0.1346  0.1312
  111OSM   H12A11465   3.543   6.360  10.954  1.8167  0.1254 -0.5493
  111OSM   H12B11466   3.654   6.476  10.974  0.3932 -0.4219  1.0404
  111OSM    C1111467   3.512   6.547  10.831  0.1264  0.2767  0.4395
  111OSM   H11A11468   3.591   6.521  10.757  0.5877  0.1980  0.9476
  111OSM   H11B11469   3.530   6.656  10.845  2.5676  0.2164 -1.7685
  111OSM      P11470   3.288   6.634  10.740 -0.3797  0.1529  0.4623
  111OSM    O1311471   3.176   6.565  10.676 -0.1511 -0.4344  0.3097
  111OSM    O1411472   3.269   6.724  10.858  0.2187  0.4473 -0.1442
  111OSM    O1111473   3.370   6.715  10.630  0.0630  0.3332  0.0205
  111OSM    O1211474   3.380   6.519  10.786  0.2120 -0.5338 -0.0041
  111OSM    C1S11475   3.438   6.631  10.529  0.8977 -0.0391  0.4110
  111OSM    H1S11476   3.458   6.526  10.560  1.3308  0.0205  0.3362
  111OSM    H1T11477   3.536   6.671  10.496 -1.0487  5.1100  0.3760
  111OSM     NF11478   3.408   6.506  10.320 -0.0205  0.4388  0.1376
  111OSM    HNF11479   3.461   6.538  10.242 -0.3129 -1.2765 -0.7889
  111OSM    C2S11480   3.340   6.606  10.401 -0.3253  0.3883 -0.2023
  111OSM    H2S11481   3.242   6.565  10.432  0.9663 -2.2281  0.5253
  111OSM    C3S11482   3.295   6.742  10.334  0.4637  0.2810  0.0641
  111OSM    H3S11483   3.388   6.797  10.310 -0.1139  0.2516 -2.2970
  111OSM     O311484   3.228   6.831  10.425 -0.1357 -0.0568 -0.2129
  111OSM    HO311485   3.245   6.792  10.511 -1.4208 -2.4492 -0.9850
  111OSM    C4S11486   3.207   6.731  10.220  0.2025  0.1936  0.3731
  111OSM    H4S11487   3.108   6.687  10.240  0.3435  0.1374  0.9442
  111OSM    C5S11488   3.240   6.779  10.095 -0.4905  0.3021  0.4823
  111OSM    H5S11489   3.323   6.849  10.080 -3.6005  3.8503 -1.1524
  111OSM    C6S11490   3.145   6.771   9.979 -0.5779 -0.4704  0.5685
  111OSM    H6S11491   3.069   6.852   9.984  1.2062  1.2380  0.6743
  111OSM    H6T11492   3.085   6.678   9.980 -0.6057 -0.5063 -1.8000
  111OSM    C7S11493   3.209   6.763   9.836 -0.6943  0.3015  0.0967
  111OSM    H7S11494   3.282   6.680   9.828 -0.4676  0.7053 -2.4838
  111OSM    H7T11495   3.264   6.860   9.835  1.0251 -0.6565  0.2803
  111OSM    C8S11496   3.115   6.747   9.717  0.6114 -0.6386 -0.1771
  111OSM    H8S11497   3.019   6.796   9.744  1.0409  0.1943 -0.1602
  111OSM    H8T11498   3.083   6.643   9.696 -2.0229  0.4473 -1.8319
  111OSM    C9S11499   3.172   6.807   9.585 -0.1033 -0.1967 -0.6853
  111OSM    H9S11500   3.268   6.760   9.555  0.2893 -1.6377  2.5990
  111OSM    H9T11501   3.205   6.911   9.605 -1.2322  0.1758 -0.6762
  111OSM   C10S11502   3.057   6.809   9.481 -0.3726 -0.7350  0.3221
  111OSM   H10S11503   2.981   6.887   9.507 -0.1565  0.2892 -1.9245
  111OSM   H10T11504   3.018   6.706   9.471 -0.3473 -0.7416  0.3023
  111OSM   C11S11505   3.106   6.841   9.337 -0.4756  0.5501 -0.0332
  111OSM   H11S11506   3.141   6.946   9.327  1.3385 -0.1545 -1.4184
  111OSM   H11T11507   3.016   6.842   9.271  0.5242  1.4077 -1.4204
  111OSM   C12S11508   3.207   6.737   9.278  0.2561 -0.0271  0.7376
  111OSM   H12S11509   3.157   6.638   9.270 -0.9177  0.7247 -1.4703
  111OSM   H12T11510   3.303   6.721   9.332  0.8650 -3.0861 -1.1126
  111OSM   C13S11511   3.260   6.774   9.135  0.1003  0.4676  0.1730
  111OSM   H13S11512   3.262   6.885   9.141 -2.0077  0.4942  0.8827
  111OSM   H13T11513   3.182   6.744   9.062 -0.1845 -0.7288  0.9571
  111OSM   C14S11514   3.387   6.709   9.109  0.1225  0.4435 -0.1446
  111OSM   H14S11515   3.380   6.599   9.124  1.1687  0.1380 -1.7656
  111OSM   H14T11516   3.456   6.760   9.180 -0.3302  0.3899  0.3299
  111OSM   C15S11517   3.442   6.723   8.961 -0.4042  0.3985 -0.1784
  111OSM   H15S11518   3.365   6.676   8.896 -0.7854 -0.6340  1.0127
  111OSM   H15T11519   3.538   6.667   8.947  0.2308  1.4381 -0.0040
  111OSM   C16S11520   3.452   6.874   8.927 -0.4218  0.0909 -0.1617
  111OSM   H16S11521   3.527   6.920   8.995 -1.6833  1.4383  0.3676
  111OSM   H16T11522   3.359   6.932   8.947  0.6987  1.7131  0.3827
  111OSM   C17S11523   3.481   6.888   8.780 -0.5761 -0.9101  0.5886
  111OSM   H17S11524   3.379   6.870   8.740 -1.1151 -0.2620  1.6412
  111OSM   H17T11525   3.554   6.809   8.750 -0.8890 -1.0581  0.2171
  111OSM   C18S11526   3.529   7.028   8.745 -0.1803  0.8373  0.0486
  111OSM   H18S11527   3.508   7.053   8.639  2.4743  2.6553 -0.1314
  111OSM   H18T11528   3.636   7.053   8.764  0.1600  0.5385 -1.3863
  111OSM   H18U11529   3.451   7.092   8.791 -2.1100 -1.3886 -0.0469
  111OSM    C1F11530   3.431   6.376  10.348  0.2220  0.4956 -0.7674
  111OSM     OF11531   3.388   6.313  10.452  0.5103 -0.0855  0.6619
  111OSM    C2F11532   3.514   6.301  10.249  1.0752 -0.2120 -0.4495
  111OSM    H2F11533   3.610   6.303  10.305  0.1153 -0.6668  1.2586
  111OSM    H2G11534   3.524   6.364  10.158  1.6590 -0.4023 -0.5144
  111OSM    C3F11535   3.479   6.150  10.213  0.2591 -0.5265  0.2113
  111OSM    H3F11536   3.381   6.142  10.162 -0.2932 -0.3567  1.2363
  111OSM    H3G11537   3.477   6.071  10.291  0.0761 -0.7492 -0.0228
  111OSM    C4F11538   3.588   6.104  10.117 -0.3225  0.0309  0.7857
  111OSM    H4F11539   3.679   6.131  10.174  0.7257 -0.3590 -0.6518
  111OSM    H4G11540   3.568   6.171  10.030  1.0190 -1.2406 -0.5343
  111OSM    C5F11541   3.597   5.957  10.072 -0.3386  0.1370 -0.1313
  111OSM    H5F11542   3.507   5.926  10.016 -0.2807  0.6900 -0.5389
  111OSM    H5G11543   3.590   5.896  10.165 -0.9019  0.9576  0.3666
  111OSM    C6F11544   3.735   5.924  10.007 -0.0012 -0.1386  0.6059
  111OSM    H6F11545   3.760   5.816  10.013  1.7109  0.3001  1.9577
  111OSM    H6G11546   3.818   5.977  10.060  0.2421  0.4446 -0.3570
  111OSM    C7F11547   3.725   5.960   9.856 -0.6060  0.0153 -0.0296
  111OSM    H7F11548   3.709   6.069   9.841  1.0352 -0.0863 -2.9007
  111OSM    H7G11549   3.637   5.922   9.800 -0.6570 -0.4628  0.3687
  111OSM    C8F11550   3.854   5.927   9.778 -0.7738 -0.2492  0.2856
  111OSM    H8F11551   3.934   5.953   9.851 -0.4418  2.6445 -1.0571
  111OSM    H8G11552   3.859   6.006   9.700 -0.0650 -0.6059 -0.0281
  111OSM    C9F11553   3.866   5.788   9.747 -0.0015  0.6030 -0.8390
  111OSM    H9F11554   3.840   5.714   9.824 -2.3974  0.1180 -2.0422
  111OSM   C10F11555   3.897   5.746   9.623 -0.3923  0.3150  0.3985
  111OSM   H10F11556   3.887   5.637   9.610 -0.9437  0.2674  1.2198
  111OSM   C11F11557   3.922   5.832   9.500  0.2951  0.2735 -0.2187
  111OSM   H11F11558   3.972   5.768   9.424  0.1518  0.6024 -0.5920
  111OSM   H11G11559   3.993   5.912   9.531 -0.8364  0.8291  1.0176
  111OSM   C12F11560   3.792   5.882   9.434 -0.4280  0.2420 -0.3068
  111OSM   H12F11561   3.738   5.959   9.493  1.3005  3.0348 -2.2119
  111OSM   H12G11562   3.718   5.802   9.414 -0.4918  0.3841 -0.6517
  111OSM   C13F11563   3.825   5.951   9.296 -0.7430  0.4091 -1.1297
  111OSM   H13F11564   3.892   5.886   9.236  0.3729 -1.0739  1.6112
  111OSM   H13G11565   3.882   6.045   9.313 -0.3562  0.3163 -1.8956
  111OSM   C14F11566   3.692   5.976   9.219  0.1926  0.2307 -0.1802
  111OSM   H14F11567   3.633   6.042   9.286  0.9512 -0.2586  0.9811
  111OSM   H14G11568   3.644   5.879   9.196  0.6739 -0.1530  0.4396
  111OSM   C15F11569   3.720   6.043   9.093 -0.2766  0.2586  0.4548
  111OSM   H15F11570   3.739   5.958   9.024  0.5249  1.0132 -0.2626
  111OSM   H15G11571   3.815   6.099   9.095  0.2476 -0.4180 -2.6275
  111OSM   C16F11572   3.607   6.137   9.049  0.6738  1.0642 -0.5846
  111OSM   H16F11573   3.615   6.229   9.110  2.9656 -0.5735  1.6865
  111OSM   H16G11574   3.508   6.088   9.064  0.2639  1.3205 -2.2927
  111OSM   C17F11575   3.630   6.182   8.903 -0.5133  0.4537  0.1812
  111OSM   H17F11576   3.738   6.207   8.891 -0.2613 -0.4733  0.4703
  111OSM   H17G11577   3.563   6.267   8.880 -0.9894 -0.4974 -2.0179
  111OSM   C18F11578   3.602   6.079   8.792  0.5511 -0.5729 -0.0963
  111OSM   H18F11579   3.499   6.038   8.801  0.3028  0.0799  0.1045
  111OSM   H18G11580   3.671   5.993   8.792  1.9687  0.5395  0.7164
  111OSM   H18H11581   3.589   6.132   8.695 -4.6359  0.3119  0.9417
  112OSM      N11582   4.875   4.245  11.324  0.1478 -0.0161 -0.5405
  112OSM    C1511583   4.819   4.106  11.348 -0.3252  0.0940  0.4220
  112OSM   H15A11584   4.805   4.083  11.453  0.2906  0.6290  0.6302
  112OSM   H15B11585   4.879   4.030  11.300  2.0101  0.7431  2.2222
  112OSM   H15C11586   4.722   4.092  11.305 -1.0019 -1.7401  2.4450
  112OSM    C1411587   4.785   4.345  11.386 -0.4235  0.4670 -0.2903
  112OSM   H14A11588   4.682   4.320  11.367  0.0596 -0.7896 -1.3822
  112OSM   H14B11589   4.798   4.444  11.346  0.6129 -0.1444 -1.5056
  112OSM   H14C11590   4.784   4.349  11.494  1.1730  0.7400 -0.2698
  112OSM    C1311591   5.006   4.240  11.400 -0.0065 -0.0769 -0.9659
  112OSM   H13A11592   5.061   4.321  11.354 -2.0990  0.9148 -1.7543
  112OSM   H13B11593   5.041   4.138  11.399  0.4243  0.0603 -0.0618
  112OSM   H13C11594   4.992   4.262  11.505  3.0190 -1.8563 -0.1097
  112OSM    C1211595   4.898   4.276  11.177  0.8147 -0.3647  0.1876
  112OSM   H12A11596   4.983   4.221  11.140  1.0997  0.7808 -0.8802
  112OSM   H12B11597   4.914   4.383  11.172  0.8275 -0.3469  0.6022
  112OSM    C1111598   4.778   4.252  11.072 -0.0295  0.0307 -0.5299
  112OSM   H11A11599   4.765   4.142  11.071 -1.0386  0.0475  3.2713
  112OSM   H11B11600   4.811   4.285  10.971 -0.1858 -1.5232 -1.0967
  112OSM      P11601   4.521   4.252  11.140  0.4643  0.0279  0.0232
  112OSM    O1311602   4.541   4.138  11.232  0.1673  0.2891 -0.3667
  112OSM    O1411603   4.422   4.353  11.197  0.6000 -1.0683  0.0539
  112OSM    O1111604   4.458   4.193  11.006 -0.1063  0.6793  0.0543
  112OSM    O1211605   4.656   4.323  11.107 -0.9894  0.6377 -0.0687
  112OSM    C1S11606   4.463   4.266  10.887 -0.0222  1.1354 -0.0639
  112OSM    H1S11607   4.572   4.284  10.870  0.0191  1.1648  0.2184
  112OSM    H1T11608   4.412   4.364  10.896 -0.4188  1.1204 -2.0683
  112OSM     NF11609   4.430   4.293  10.660 -0.2008 -0.1520  0.9322
  112OSM    HNF11610   4.360   4.360  10.637  0.1018  0.6434  2.2870
  112OSM    C2S11611   4.397   4.204  10.764 -0.0350  0.2803 -0.1085
  112OSM    H2S11612   4.451   4.108  10.748  1.6259  0.7121  2.7173
  112OSM    C3S11613   4.247   4.175  10.778  0.2957  0.1212  0.1117
  112OSM    H3S11614   4.185   4.266  10.790 -3.4114 -2.0316 -1.9647
  112OSM     O311615   4.213   4.093  10.891 -0.0536  0.0626 -0.6059
  112OSM    HO311616   4.294   4.086  10.942 -0.0710 -1.1965 -0.7312
  112OSM    C4S11617   4.198   4.117  10.646  0.4666 -0.1558 -0.7597
  112OSM    H4S11618   4.260   4.036  10.606  1.1672  0.2857 -0.5704
  112OSM    C5S11619   4.091   4.161  10.576  0.1199  0.1019 -0.6789
  112OSM    H5S11620   4.037   4.243  10.624  0.6091  0.4833 -0.7753
  112OSM    C6S11621   4.038   4.098  10.445  0.4394 -0.1854 -0.3784
  112OSM    H6S11622   4.037   4.171  10.361  0.5687 -0.0849 -0.2940
  112OSM    H6T11623   3.932   4.068  10.459  1.4201 -2.3416  2.8619
  112OSM    C7S11624   4.102   3.973  10.385 -0.1511 -0.5369  0.0354
  112OSM    H7S11625   4.124   3.900  10.466 -2.6830 -0.9607  0.3684
  112OSM    H7T11626   4.204   3.999  10.348  0.1759 -1.8740 -0.0271
  112OSM    C8S11627   4.038   3.904  10.267 -0.2955 -0.3249  0.2229
  112OSM    H8S11628   3.962   3.832  10.305 -1.3397 -1.8270 -4.4071
  112OSM    H8T11629   4.120   3.848  10.218  0.5885 -0.2642  1.5905
  112OSM    C9S11630   3.953   3.999  10.165 -0.5452  0.2020 -0.3214
  112OSM    H9S11631   4.006   4.096  10.153  0.6478 -0.6115 -1.7483
  112OSM    H9T11632   3.856   4.031  10.210 -0.5384  0.1136 -0.2444
  112OSM   C10S11633   3.930   3.928  10.028 -0.1318 -0.0148 -0.0632
  112OSM   H10S11634   3.870   3.837  10.052  0.4554 -0.2639  0.4559
  112OSM   H10T11635   4.033   3.894  10.005  0.3171  1.8455 -0.9138
  112OSM   C11S11636   3.893   4.012   9.908  0.5705 -0.0895  0.2387
  112OSM   H11S11637   3.968   4.093   9.898 -1.2713  2.0233  3.0796
  112OSM   H11T11638   3.798   4.066   9.925  0.9483  0.9219 -0.8107
  112OSM   C12S11639   3.894   3.930   9.780  0.1780  0.5826  0.2112
  112OSM   H12S11640   3.826   3.843   9.772  1.0196 -0.1794  1.0760
  112OSM   H12T11641   3.993   3.880   9.768 -0.3902 -0.5744  0.2551
  112OSM   C13S11642   3.865   4.020   9.663  0.1072  0.1762 -0.0679
  112OSM   H13S11643   3.947   4.095   9.659  0.7932 -0.6192 -1.2973
  112OSM   H13T11644   3.765   4.067   9.656  1.1663  2.1057 -3.5049
  112OSM   C14S11645   3.878   3.936   9.533  0.1036 -0.1605  0.3532
  112OSM   H14S11646   3.803   3.856   9.517 -0.4758  0.3041  0.7501
  112OSM   H14T11647   3.979   3.890   9.540  1.0801  1.5185 -1.9978
  112OSM   C15S11648   3.868   4.031   9.410 -0.7019 -0.1504 -0.3165
  112OSM   H15S11649   3.899   4.133   9.443 -0.7541  0.0384 -0.8331
  112OSM   H15T11650   3.759   4.054   9.410 -0.6624  0.0307  0.4849
  112OSM   C16S11651   3.923   3.991   9.277  0.3901 -0.2088 -0.2914
  112OSM   H16S11652   4.026   3.949   9.275  0.1435 -0.8182 -0.1307
  112OSM   H16T11653   3.938   4.079   9.210  0.0139  0.6492  0.7457
  112OSM   C17S11654   3.829   3.895   9.210 -0.2602 -0.1679  0.1939
  112OSM   H17S11655   3.743   3.940   9.156 -1.9098 -3.1837  0.1958
  112OSM   H17T11656   3.796   3.820   9.285  1.5621  1.3454  2.5725
  112OSM   C18S11657   3.905   3.809   9.113 -0.3130 -0.5017 -0.2129
  112OSM   H18S11658   3.843   3.733   9.060  0.4859 -2.4289  1.5387
  112OSM   H18T11659   3.992   3.762   9.163 -0.9348 -0.5897  0.7938
  112OSM   H18U11660   3.939   3.873   9.029  0.2527 -0.2155  0.2382
  112OSM    C1F11661   4.555   4.295  10.609 -0.1119  0.2989  0.1921
  112OSM     OF11662   4.644   4.210  10.636 -0.0349  0.4795  0.1431
  112OSM    C2F11663   4.573   4.398  10.503 -0.0422 -0.0196  0.0211
  112OSM    H2F11664   4.618   4.487  10.553  0.3815 -1.6910  2.7040
  112OSM    H2G11665   4.474   4.427  10.461  0.7682  2.2674 -0.3674
  112OSM    C3F11666   4.668   4.351  10.388  0.3089  0.1078 -0.2145
  112OSM    H3F11667   4.627   4.264  10.331 -1.4742  0.5977  0.2979
  112OSM    H3G11668   4.769   4.322  10.426  0.7865  0.8070 -0.9340
  112OSM    C4F11669   4.700   4.460  10.290  0.1347  0.7793  0.1607
  112OSM    H4F11670   4.743   4.550  10.338  0.0218 -0.0621  1.8712
  112OSM    H4G11671   4.609   4.500  10.239 -1.8334 -3.9127 -0.2255
  112OSM    C5F11672   4.803   4.405  10.193  0.3778 -0.6658 -0.0925
  112OSM    H5F11673   4.782   4.298  10.172  0.5835 -0.5533 -0.8608
  112OSM    H5G11674   4.906   4.406  10.234  0.4275 -1.3604 -0.1895
  112OSM    C6F11675   4.807   4.473  10.058 -0.1898 -0.4385  0.1245
  112OSM    H6F11676   4.901   4.446  10.007 -0.4043 -1.5054  0.2788
  112OSM    H6G11677   4.810   4.583  10.076 -0.4178  0.1200 -2.9946
  112OSM    C7F11678   4.686   4.437   9.969 -0.1874 -0.4277 -0.1805
  112OSM    H7F11679   4.597   4.494  10.003 -0.2904 -1.3579  1.1598
  112OSM    H7G11680   4.662   4.329   9.979 -1.1651 -0.6091 -3.9153
  112OSM    C8F11681   4.700   4.470   9.817 -0.3416 -0.4548  0.1298
  112OSM    H8F11682   4.611   4.441   9.757 -2.2653  3.0118  1.2007
  112OSM    H8G11683   4.786   4.406   9.784 -1.1482 -1.3734 -0.2194
  112OSM    C9F11684   4.738   4.614   9.782  0.0311 -0.9118 -0.1627
  112OSM    H9F11685   4.772   4.686   9.859 -0.7777  0.0233 -0.6839
  112OSM   C10F11686   4.742   4.663   9.658 -0.3552 -0.3885 -0.5653
  112OSM   H10F11687   4.774   4.767   9.644  0.9540 -0.6750  0.2290
  112OSM   C11F11688   4.723   4.593   9.523 -0.5958  0.1971 -0.5821
  112OSM   H11F11689   4.731   4.485   9.547 -1.4283 -0.1647 -1.8314
  112OSM   H11G11690   4.801   4.598   9.444  0.9512 -2.0428  0.7671
  112OSM   C12F11691   4.581   4.629   9.474  0.0490 -0.1131 -0.2566
  112OSM   H12F11692   4.550   4.734   9.491  0.9249  0.0683  0.2288
  112OSM   H12G11693   4.509   4.560   9.523 -0.0925 -0.5653 -1.0910
  112OSM   C13F11694   4.562   4.614   9.323 -0.0632  0.4408 -0.1377
  112OSM   H13F11695   4.454   4.632   9.300  0.1959  1.1230 -0.8290
  112OSM   H13G11696   4.593   4.511   9.297  0.8477  1.0588 -1.5439
  112OSM   C14F11697   4.644   4.701   9.237  0.0957 -0.3970 -0.2885
  112OSM   H14F11698   4.749   4.675   9.262 -0.4490 -0.0596  2.4455
  112OSM   H14G11699   4.647   4.811   9.253 -1.5724 -0.4504  0.4812
  112OSM   C15F11700   4.606   4.678   9.087  0.3073  0.1369 -0.9249
  112OSM   H15F11701   4.510   4.732   9.076  1.7443  2.6894 -1.1872
  112OSM   H15G11702   4.599   4.567   9.076  1.1904 -0.3177  2.4593
  112OSM   C16F11703   4.716   4.727   8.996  0.0577 -0.1850 -0.0250
  112OSM   H16F11704   4.807   4.672   9.026 -1.3534 -3.2495 -1.2077
  112OSM   H16G11705   4.735   4.837   8.996 -0.3791 -0.0861  2.4113
  112OSM   C17F11706   4.674   4.689   8.854  0.5688 -0.3109 -0.5292
  112OSM   H17F11707   4.582   4.743   8.824  0.2333 -1.6597 -2.0028
  112OSM   H17G11708   4.652   4.580   8.858  2.2479 -0.6558 -0.3151
  112OSM   C18F11709   4.786   4.716   8.755  0.0003  0.5360  0.0415
  112OSM   H18F11710   4.745   4.694   8.654  0.1005  1.7229 -0.2588
  112OSM   H18G11711   4.879   4.654   8.766  0.0518  0.9818  2.2279
  112OSM   H18H11712   4.817   4.822   8.757  0.4536  0.3836  2.4797
  113OSM      N11713   1.633   0.667  10.800  0.1685 -0.2050 -0.1123
  113OSM    C1511714   1.668   0.655  10.651  0.4008 -0.2233  0.2838
  113OSM   H15A11715   1.630   0.741  10.598 -1.2509  2.0754  4.9575
  113OSM   H15B11716   1.626   0.564  10.611  1.8021  0.2398 -2.3746
  113OSM   H15C11717   1.776   0.654  10.646  0.3062 -1.3724 -1.9402
  113OSM    C1411718   1.486   0.687  10.816 -0.3314 -0.0962  0.6551
  113OSM   H14A11719   1.460   0.790  10.797 -0.1838  0.1884  1.9175
  113OSM   H14B11720   1.462   0.683  10.921  1.9665 -0.6826  1.1937
  113OSM   H14C11721   1.435   0.614  10.755 -1.0846  0.9756 -0.0127
  113OSM    C1311722   1.678   0.546  10.876 -1.1466 -0.2915  0.2493
  113OSM   H13A11723   1.782   0.530  10.853 -1.2853 -0.9305  0.0678
  113OSM   H13B11724   1.620   0.458  10.853 -0.8368  0.0441 -1.9726
  113OSM   H13C11725   1.669   0.569  10.981 -0.8905  0.4234  0.1209
  113OSM    C1211726   1.705   0.793  10.855 -0.1724  0.3181  0.2560
  113OSM   H12A11727   1.810   0.770  10.847 -0.2933  0.1630 -1.0846
  113OSM   H12B11728   1.681   0.809  10.959  1.9535  1.1460  0.6380
  113OSM    C1111729   1.685   0.929  10.773  0.0314  0.5380 -0.8975
  113OSM   H11A11730   1.696   0.920  10.663  3.0148 -0.2294 -0.5852
  113OSM   H11B11731   1.764   1.002  10.802  0.8864 -1.0731  1.0026
  113OSM      P11732   1.506   1.056  10.935 -0.5092  0.3038 -0.1434
  113OSM    O1311733   1.422   0.959  11.002  0.3221  0.1398 -0.0057
  113OSM    O1411734   1.622   1.119  11.004 -1.0996 -0.8446 -0.7066
  113OSM    O1111735   1.409   1.179  10.883  0.6392 -0.2971  0.1794
  113OSM    O1211736   1.554   0.996  10.795 -0.1484  0.5737 -0.6296
  113OSM    C1S11737   1.452   1.251  10.758  0.1353  1.0625 -0.2035
  113OSM    H1S11738   1.468   1.168  10.687  1.9802 -0.7934  2.2622
  113OSM    H1T11739   1.553   1.293  10.776  1.1357 -1.8806  1.3059
  113OSM     NF11740   1.397   1.426  10.578  0.2324  0.5645 -0.4502
  113OSM    HNF11741   1.432   1.519  10.574  1.6514 -0.0220 -2.5015
  113OSM    C2S11742   1.351   1.368  10.710 -0.0008  0.0376 -0.3111
  113OSM    H2S11743   1.250   1.322  10.698 -0.2039  0.2385  0.6324
  113OSM    C3S11744   1.338   1.466  10.820  0.1761  0.3914  0.0832
  113OSM    H3S11745   1.432   1.521  10.844 -0.8782  1.9178  0.8391
  113OSM     O311746   1.313   1.414  10.953 -0.1093  0.0022 -0.2958
  113OSM    HO311747   1.345   1.324  10.950  0.0524 -0.0466  1.8634
  113OSM    C4S11748   1.242   1.574  10.779  0.4368  0.1614 -0.1658
  113OSM    H4S11749   1.282   1.673  10.755 -0.5345  0.4304 -0.6876
  113OSM    C5S11750   1.108   1.570  10.755  0.4415  0.4783  0.1260
  113OSM    H5S11751   1.041   1.483  10.768  0.6564  0.3112  0.1290
  113OSM    C6S11752   1.032   1.696  10.706  0.6332 -0.5830 -0.3687
  113OSM    H6S11753   1.093   1.769  10.648 -3.0439  1.3686 -1.9434
  113OSM    H6T11754   0.990   1.741  10.798 -0.8166  1.7828 -2.1162
  113OSM    C7S11755   0.918   1.648  10.610  0.6693  0.1754 -0.3521
  113OSM    H7S11756   0.850   1.734  10.591 -0.1507 -0.8042 -2.0396
  113OSM    H7T11757   0.852   1.580  10.669 -0.6830 -0.1565 -2.1814
  113OSM    C8S11758   0.958   1.580  10.483 -0.5661 -0.6734  0.5622
  113OSM    H8S11759   0.863   1.547  10.436  0.2462 -0.8207 -1.0063
  113OSM    H8T11760   1.016   1.486  10.494  0.5563 -0.0791 -0.0991
  113OSM    C9S11761   1.035   1.670  10.388 -0.1122  0.3754  0.3344
  113OSM    H9S11762   1.132   1.701  10.433  0.8946  1.0454 -2.1944
  113OSM    H9T11763   0.977   1.761  10.363  0.4386  0.4801 -0.5685
  113OSM   C10S11764   1.057   1.589  10.258  0.1401  1.3744  0.9956
  113OSM   H10S11765   0.957   1.572  10.211  0.5550  0.8048  0.3034
  113OSM   H10T11766   1.092   1.485  10.278 -1.8366  0.5036  0.1510
  113OSM   C11S11767   1.149   1.651  10.157  0.4585  1.0427  0.2116
  113OSM   H11S11768   1.254   1.651  10.193  0.9116 -0.8997 -1.0783
  113OSM   H11T11769   1.115   1.751  10.120 -2.0202 -0.4608 -1.7704
  113OSM   C12S11770   1.158   1.551  10.034  0.1671  0.1577 -0.3243
  113OSM   H12S11771   1.049   1.550  10.013 -0.3456 -3.0652  2.0735
  113OSM   H12T11772   1.193   1.452  10.072  0.6612  0.7147  0.6922
  113OSM   C13S11773   1.252   1.610   9.924  0.2523  0.2717  0.0468
  113OSM   H13S11774   1.286   1.515   9.878  1.6590  0.7884 -0.0142
  113OSM   H13T11775   1.345   1.656   9.965 -0.3293  1.2962  0.2435
  113OSM   C14S11776   1.199   1.697   9.812 -0.2329 -0.0787 -0.2153
  113OSM   H14S11777   1.180   1.794   9.863 -0.2784 -0.4936  0.5787
  113OSM   H14T11778   1.097   1.662   9.785 -0.4428 -1.9983  2.7552
  113OSM   C15S11779   1.284   1.714   9.684 -0.6384  0.4261 -0.0737
  113OSM   H15S11780   1.298   1.609   9.650 -0.6342 -0.3587  2.2915
  113OSM   H15T11781   1.382   1.765   9.691  0.5453 -1.7043 -0.7307
  113OSM   C16S11782   1.200   1.785   9.571  0.6423  0.0643 -0.0832
  113OSM   H16S11783   1.180   1.889   9.604 -0.7469 -0.6755  1.4848
  113OSM   H16T11784   1.102   1.732   9.563 -0.6757  2.1217  2.0690
  113OSM   C17S11785   1.267   1.788   9.438  0.1023 -0.3593  0.3894
  113OSM   H17S11786   1.303   1.683   9.426 -0.8184 -0.9299  2.3626
  113OSM   H17T11787   1.362   1.845   9.443  0.9024 -1.7792  2.3851
  113OSM   C18S11788   1.165   1.823   9.327 -0.6699  0.6733 -0.0853
  113OSM   H18S11789   1.084   1.748   9.318  1.4266 -1.5933 -0.8598
  113OSM   H18T11790   1.215   1.809   9.228  0.3419  0.9707  0.3753
  113OSM   H18U11791   1.124   1.924   9.345 -0.8282  0.5935 -0.0021
  113OSM    C1F11792   1.376   1.349  10.472 -0.0798 -0.0746  0.4766
  113OSM     OF11793   1.312   1.243  10.481 -0.2337 -0.1419 -0.5154
  113OSM    C2F11794   1.427   1.390  10.346  0.9868 -0.5151  0.0098
  113OSM    H2F11795   1.521   1.450  10.354  0.9620 -0.4840  0.0698
  113OSM    H2G11796   1.347   1.459  10.313 -2.0614 -1.5734  4.6862
  113OSM    C3F11797   1.450   1.274  10.249 -1.1473 -0.1853  0.0285
  113OSM    H3F11798   1.351   1.223  10.241 -1.5539  0.8050 -1.3142
  113OSM    H3G11799   1.521   1.200  10.292  0.0065  0.3194 -0.9928
  113OSM    C4F11800   1.484   1.312  10.103  0.1230 -0.3258  0.6926
  113OSM    H4F11801   1.592   1.335  10.105 -0.0115  0.3776  0.2278
  113OSM    H4G11802   1.426   1.401  10.068  0.9094 -0.7841 -1.9065
  113OSM    C5F11803   1.455   1.190  10.015  0.0609  0.4323 -0.0535
  113OSM    H5F11804   1.346   1.169  10.018 -0.3026  2.2740  0.5456
  113OSM    H5G11805   1.507   1.099  10.052 -0.7580  0.3084  0.8053
  113OSM    C6F11806   1.486   1.213   9.863 -0.1589  0.4410 -0.4047
  113OSM    H6F11807   1.596   1.206   9.853 -0.1368  0.3891 -0.1415
  113OSM    H6G11808   1.459   1.319   9.840 -0.1712 -0.0033 -2.4672
  113OSM    C7F11809   1.425   1.099   9.773  0.8008 -0.4146 -0.5926
  113OSM    H7F11810   1.328   1.068   9.819  0.7014 -1.4533 -1.4792
  113OSM    H7G11811   1.480   1.004   9.785 -3.3221 -2.7640  0.7993
  113OSM    C8F11812   1.397   1.134   9.631 -0.5284 -0.0874 -0.5737
  113OSM    H8F11813   1.327   1.220   9.642  0.5063  0.8314 -1.1179
  113OSM    H8G11814   1.361   1.045   9.576  2.1030 -1.5158 -0.0501
  113OSM    C9F11815   1.509   1.188   9.548 -0.8449  0.5648  0.6550
  113OSM    H9F11816   1.601   1.129   9.566 -2.4732 -1.7621  1.5754
  113OSM   C10F11817   1.521   1.301   9.469 -0.4700  0.1148 -0.3637
  113OSM   H10F11818   1.612   1.314   9.409  0.3265 -1.0684  0.5673
  113OSM   C11F11819   1.420   1.407   9.441  0.0612 -0.2602 -0.1192
  113OSM   H11F11820   1.455   1.512   9.433 -3.4863  0.8130 -2.5139
  113OSM   H11G11821   1.342   1.404   9.520  1.0766  0.4054  0.9304
  113OSM   C12F11822   1.337   1.378   9.308  0.7188  0.1236  0.1929
  113OSM   H12F11823   1.257   1.454   9.294 -2.6254 -3.2794 -0.2262
  113OSM   H12G11824   1.267   1.292   9.318 -0.7972  1.0153 -2.2343
  113OSM   C13F11825   1.424   1.373   9.181 -0.3965 -0.3026 -0.0376
  113OSM   H13F11826   1.487   1.282   9.197  0.1978  0.1235  0.0706
  113OSM   H13G11827   1.488   1.463   9.189  0.0717 -0.7754  1.7615
  113OSM   C14F11828   1.340   1.366   9.049 -0.4754  0.4437 -0.0812
  113OSM   H14F11829   1.272   1.452   9.032  0.7901  1.9032  2.0004
  113OSM   H14G11830   1.277   1.277   9.070 -2.5554  2.4616  2.4925
  113OSM   C15F11831   1.425   1.340   8.928  0.3006 -0.4366  0.1428
  113OSM   H15F11832   1.358   1.292   8.854 -0.7551  4.7341 -2.5140
  113OSM   H15G11833   1.485   1.250   8.950  0.9500 -0.4427 -1.5602
  113OSM   C16F11834   1.491   1.464   8.862 -0.5334  0.0749 -0.4346
  113OSM   H16F11835   1.559   1.517   8.933 -0.0142 -1.6976  0.4358
  113OSM   H16G11836   1.413   1.539   8.836 -3.5118 -1.6605  3.0056
  113OSM   C17F11837   1.572   1.414   8.741  0.8389 -0.8361 -0.1760
  113OSM   H17F11838   1.500   1.379   8.664  0.9155  1.2142 -1.2096
  113OSM   H17G11839   1.649   1.338   8.766  3.0086  2.3049  3.1583
  113OSM   C18F11840   1.654   1.536   8.692  0.7470  0.5402 -0.4475
  113OSM   H18F11841   1.690   1.514   8.589  1.8075 -0.7815  0.1914
  113OSM   H18G11842   1.743   1.561   8.753  0.8136  0.4628 -0.5117
  113OSM   H18H11843   1.596   1.631   8.696 -0.9917 -0.4570 -1.1922
  114OSM      N11844   2.838   4.623  11.265 -0.5558  0.4545  0.2263
  114OSM    C1511845   2.881   4.507  11.348  0.4771  0.2549 -0.2144
  114OSM   H15A11846   2.980   4.471  11.325  1.2746  1.3004  1.4323
  114OSM   H15B11847   2.807   4.429  11.340  1.7021 -0.9235 -0.3569
  114OSM   H15C11848   2.897   4.529  11.453  1.6873 -0.7151 -0.1831
  114OSM    C1411849   2.710   4.666  11.326  0.1979 -0.3243 -0.5456
  114OSM   H14A11850   2.660   4.750  11.281 -1.3950  0.2207  2.1073
  114OSM   H14B11851   2.741   4.692  11.426  0.8597  1.3520 -1.1657
  114OSM   H14C11852   2.645   4.581  11.337  1.5981 -1.1975  1.3747
  114OSM    C1311853   2.948   4.727  11.265 -0.1221  0.9462 -1.1248
  114OSM   H13A11854   3.043   4.681  11.242  0.7424  2.0672  0.1261
  114OSM   H13B11855   2.945   4.778  11.360  0.1009 -0.2160 -0.4863
  114OSM   H13C11856   2.927   4.809  11.198  1.4577  1.9132 -0.4479
  114OSM    C1211857   2.813   4.568  11.124 -0.5241 -0.3590  0.2733
  114OSM   H12A11858   2.797   4.650  11.056  1.3670  1.1952  1.6584
  114OSM   H12B11859   2.729   4.500  11.126 -0.5983 -0.2856 -0.3623
  114OSM    C1111860   2.933   4.493  11.062 -0.6071  0.2106  0.5746
  114OSM   H11A11861   3.025   4.549  11.089  0.2006  0.5690 -2.7090
  114OSM   H11B11862   2.937   4.507  10.952 -0.1283 -2.1838  0.2588
  114OSM      P11863   3.048   4.254  11.049 -0.0595 -0.1655  0.2056
  114OSM    O1311864   3.188   4.295  11.088  0.4035 -0.3913  0.0089
  114OSM    O1411865   3.002   4.115  11.071  0.0108 -0.0087 -0.6780
  114OSM    O1111866   3.043   4.276  10.893 -0.6653 -0.0448  0.7544
  114OSM    O1211867   2.941   4.357  11.097 -0.4186 -0.1119  0.5132
  114OSM    C1S11868   2.923   4.246  10.818 -0.7202  0.1964  0.1722
  114OSM    H1S11869   2.839   4.313  10.847 -2.8013 -2.5432  0.7392
  114OSM    H1T11870   2.885   4.142  10.831 -3.1846  0.7343 -2.2204
  114OSM     NF11871   2.827   4.258  10.586  0.1795 -0.2561  0.3824
  114OSM    HNF11872   2.797   4.171  10.547 -1.8715  1.7053 -2.7157
  114OSM    C2S11873   2.947   4.255  10.662  0.2031 -0.2669 -0.0909
  114OSM    H2S11874   3.000   4.351  10.645  2.1839 -1.1632  0.8330
  114OSM    C3S11875   3.034   4.141  10.615 -0.2497 -0.2108  0.3394
  114OSM    H3S11876   2.966   4.053  10.615 -1.3769  0.5825 -3.3101
  114OSM     O311877   3.143   4.108  10.702 -0.0218 -0.3906  0.1669
  114OSM    HO311878   3.126   4.168  10.775  1.5067 -0.1714  0.3706
  114OSM    C4S11879   3.075   4.168  10.470  0.2183  0.1290 -1.0394
  114OSM    H4S11880   2.998   4.141  10.396 -0.7845 -2.1288  0.7632
  114OSM    C5S11881   3.188   4.231  10.427 -0.2113 -0.7702  0.0634
  114OSM    H5S11882   3.267   4.263  10.496  1.2825 -0.9975 -1.4981
  114OSM    C6S11883   3.228   4.273  10.280  0.3266  0.6004  1.0397
  114OSM    H6S11884   3.338   4.260  10.271  0.1663  0.6416 -1.1091
  114OSM    H6T11885   3.218   4.383  10.268  0.7654  0.4120 -1.1238
  114OSM    C7S11886   3.152   4.210  10.169  0.4288  0.4170 -0.4232
  114OSM    H7S11887   3.041   4.211  10.179  0.5699  1.1460  1.1440
  114OSM    H7T11888   3.166   4.101  10.155 -0.0814  0.2481  0.3511
  114OSM    C8S11889   3.197   4.271  10.032 -0.4689 -0.0376  0.7410
  114OSM    H8S11890   3.307   4.255  10.031 -0.3533  0.7158  1.2115
  114OSM    H8T11891   3.184   4.381  10.037  1.4487  0.1862  1.1683
  114OSM    C9S11892   3.124   4.216   9.909  0.3271  0.1608  0.2149
  114OSM    H9S11893   3.014   4.217   9.922  0.0436 -0.7716 -1.8963
  114OSM    H9T11894   3.147   4.107   9.904  1.8025  0.4699  0.1909
  114OSM   C10S11895   3.165   4.295   9.780 -0.6090 -0.3983  0.0397
  114OSM   H10S11896   3.275   4.281   9.776 -0.4970  0.6689 -0.7446
  114OSM   H10T11897   3.135   4.402   9.780  0.3566 -0.1098  1.5647
  114OSM   C11S11898   3.101   4.234   9.658  0.1871 -0.9105 -0.5905
  114OSM   H11S11899   2.991   4.236   9.669  0.1626  0.4317 -1.0392
  114OSM   H11T11900   3.135   4.129   9.642  0.6185 -1.2172  2.1187
  114OSM   C12S11901   3.144   4.311   9.529  0.1763 -0.0380 -0.2646
  114OSM   H12S11902   3.254   4.303   9.522  0.2325  0.3721  0.1809
  114OSM   H12T11903   3.132   4.421   9.537 -0.6992 -0.1431 -0.1163
  114OSM   C13S11904   3.084   4.253   9.404  0.0022 -0.4990  0.2938
  114OSM   H13S11905   2.975   4.273   9.398  0.3520  1.5089  0.4745
  114OSM   H13T11906   3.087   4.142   9.411  2.5393 -0.5413 -1.1882
  114OSM   C14S11907   3.142   4.293   9.271  0.5416  0.8664 -0.2127
  114OSM   H14S11908   3.075   4.240   9.200 -1.4464 -2.4459  3.8609
  114OSM   H14T11909   3.242   4.246   9.255 -0.3950 -0.7771 -1.4360
  114OSM   C15S11910   3.144   4.441   9.242 -0.2601 -0.3571  0.6427
  114OSM   H15S11911   3.202   4.495   9.320  1.1371  3.7820 -3.0609
  114OSM   H15T11912   3.040   4.482   9.240 -1.1159 -2.4375  1.4091
  114OSM   C16S11913   3.222   4.466   9.109 -0.3881 -0.4125  0.1433
  114OSM   H16S11914   3.320   4.415   9.107  0.0482  0.4057  0.6318
  114OSM   H16T11915   3.233   4.577   9.112 -0.5155 -0.4094  0.5738
  114OSM   C17S11916   3.142   4.427   8.985  0.0049 -0.3193 -0.5582
  114OSM   H17S11917   3.055   4.497   8.986  0.2479 -0.0170  1.2922
  114OSM   H17T11918   3.113   4.321   9.003  1.9593 -0.8413 -0.3316
  114OSM   C18S11919   3.230   4.438   8.863  0.0016  0.2926  0.6049
  114OSM   H18S11920   3.332   4.396   8.875  0.4509  1.6588  1.7615
  114OSM   H18T11921   3.261   4.543   8.840 -1.3354  0.4877 -0.3481
  114OSM   H18U11922   3.189   4.384   8.776  0.0293 -1.2926  1.5553
  114OSM    C1F11923   2.735   4.357  10.589  0.3252  0.0187 -0.2438
  114OSM     OF11924   2.753   4.465  10.653 -0.1312 -0.3234  0.3916
  114OSM    C2F11925   2.602   4.336  10.516  0.4608  0.6691  0.2676
  114OSM    H2F11926   2.520   4.375  10.581  0.7343 -0.6597  1.4165
  114OSM    H2G11927   2.582   4.227  10.518 -1.5215  0.9596 -1.8871
  114OSM    C3F11928   2.609   4.397  10.373 -0.7250  0.0965 -0.4654
  114OSM    H3F11929   2.640   4.504  10.370  0.3410 -0.2315 -1.5554
  114OSM    H3G11930   2.501   4.399  10.348 -1.3994 -0.0284  2.2888
  114OSM    C4F11931   2.701   4.318  10.276  0.8654  0.6814 -0.2189
  114OSM    H4F11932   2.690   4.215  10.316  0.3888  1.0436  0.5752
  114OSM    H4G11933   2.809   4.345  10.269  0.7574  0.6750 -2.2977
  114OSM    C5F11934   2.642   4.322  10.131 -0.3200 -0.1473  0.0306
  114OSM    H5F11935   2.614   4.425  10.100 -2.1344 -0.2808  1.1681
  114OSM    H5G11936   2.550   4.260  10.135 -0.7995  0.5393 -0.3038
  114OSM    C6F11937   2.746   4.253  10.038  1.0378 -0.9434  0.2595
  114OSM    H6F11938   2.795   4.186  10.112  1.3049  0.1687  1.1154
  114OSM    H6G11939   2.819   4.331  10.007  0.4679 -0.2135  0.7034
  114OSM    C7F11940   2.670   4.189   9.918  0.7702  0.4498 -0.2779
  114OSM    H7F11941   2.583   4.141   9.968  1.0336 -2.0125 -2.0838
  114OSM    H7G11942   2.730   4.122   9.853 -1.2859 -1.1547 -0.5946
  114OSM    C8F11943   2.621   4.295   9.815 -0.5402  0.3703  0.8644
  114OSM    H8F11944   2.584   4.389   9.862 -0.2672  1.1330 -0.4348
  114OSM    H8G11945   2.529   4.259   9.765  0.7340 -0.0845 -1.1984
  114OSM    C9F11946   2.718   4.331   9.695  0.5243  0.5268 -0.8342
  114OSM    H9F11947   2.809   4.383   9.729  0.2845  0.1148  0.4739
  114OSM   C10F11948   2.695   4.315   9.565  0.2782  0.5197 -0.2185
  114OSM   H10F11949   2.767   4.364   9.497 -1.2925  1.6971 -1.0738
  114OSM   C11F11950   2.577   4.254   9.495  0.4348  0.3089  0.9467
  114OSM   H11F11951   2.525   4.331   9.435 -0.9075  0.6895  2.5605
  114OSM   H11G11952   2.502   4.217   9.569  0.1449  1.8785  1.4404
  114OSM   C12F11953   2.597   4.130   9.402  0.9124  0.3883 -0.6068
  114OSM   H12F11954   2.525   4.142   9.319 -0.3626  1.1910  0.5999
  114OSM   H12G11955   2.551   4.037   9.442  1.4847  0.2152 -0.3388
  114OSM   C13F11956   2.739   4.107   9.349  0.1508 -0.3037 -0.6221
  114OSM   H13F11957   2.813   4.107   9.431 -0.4855 -0.0957 -0.0407
  114OSM   H13G11958   2.775   4.193   9.289 -0.5730 -0.3929 -1.1984
  114OSM   C14F11959   2.764   3.981   9.265  0.1715 -0.0369  0.7722
  114OSM   H14F11960   2.753   3.889   9.326  0.0855 -0.0963  0.6677
  114OSM   H14G11961   2.872   3.995   9.245  0.0686  0.2033  0.3717
  114OSM   C15F11962   2.674   3.970   9.141 -0.2081 -0.4144  0.2944
  114OSM   H15F11963   2.687   4.064   9.083  1.4534 -2.9743 -3.6065
  114OSM   H15G11964   2.568   3.963   9.174 -0.2768 -0.4439  0.0666
  114OSM   C16F11965   2.717   3.843   9.062 -0.0152 -0.3368 -0.3265
  114OSM   H16F11966   2.655   3.837   8.971  0.3033  1.0643 -0.6492
  114OSM   H16G11967   2.690   3.758   9.130 -0.8422  0.0870 -0.1194
  114OSM   C17F11968   2.858   3.837   9.021 -0.3935 -0.4653  0.5125
  114OSM   H17F11969   2.926   3.808   9.103 -0.8398  0.0755  1.0732
  114OSM   H17G11970   2.887   3.935   8.978 -1.2006 -1.5100 -2.5393
  114OSM   C18F11971   2.868   3.738   8.900 -0.6249 -0.1736 -0.1006
  114OSM   H18F11972   2.836   3.643   8.948 -0.9135  0.5862  1.2438
  114OSM   H18G11973   2.975   3.734   8.871 -0.2004 -1.8246  1.6177
  114OSM   H18H11974   2.814   3.773   8.810 -1.0241  0.8791  0.5379
  115OSM      N11975   6.390   3.056  11.277 -0.6187 -0.2392 -0.1424
  115OSM    C1511976   6.290   3.162  11.304 -0.0126 -0.7565  0.1538
  115OSM   H15A11977   6.200   3.146  11.245  0.3212  1.1976 -0.9307
  115OSM   H15B11978   6.330   3.254  11.263 -0.4698 -0.4045  0.4935
  115OSM   H15C11979   6.266   3.176  11.408  0.1857  2.0728 -0.1235
  115OSM    C1411980   6.497   3.098  11.375  0.5740  0.3421 -0.8033
  115OSM   H14A11981   6.571   3.019  11.378 -0.4612 -0.6355 -0.7140
  115OSM   H14B11982   6.454   3.117  11.473  2.0427  0.0731 -0.0838
  115OSM   H14C11983   6.541   3.194  11.353 -0.8130  1.0222 -0.6465
  115OSM    C1311984   6.335   2.925  11.307  1.1083  0.6958  0.4961
  115OSM   H13A11985   6.406   2.843  11.305  0.5332  0.1728  1.1630
  115OSM   H13B11986   6.264   2.901  11.230  0.8493  0.3655  0.8347
  115OSM   H13C11987   6.280   2.926  11.400  0.1115 -1.8828 -0.0090
  115OSM    C1211988   6.454   3.065  11.135  0.3941 -0.5043 -0.4348
  115OSM   H12A11989   6.384   3.047  11.055 -1.3073 -4.1857  1.7569
  115OSM   H12B11990   6.516   2.977  11.130 -2.0828 -2.6167  3.4133
  115OSM    C1111991   6.536   3.194  11.109 -0.4082  0.0652 -0.2036
  115OSM   H11A11992   6.594   3.192  11.014  1.2236  1.2331  0.7436
  115OSM   H11B11993   6.616   3.206  11.185  0.9397  3.9471 -2.0887
  115OSM      P11994   6.385   3.391  11.014  0.0225  0.0583 -0.2892
  115OSM    O1311995   6.327   3.511  11.083  0.5207  0.6817  0.5434
  115OSM    O1411996   6.466   3.412  10.891  0.3774 -0.1600  0.7801
  115OSM    O1111997   6.266   3.297  10.977  0.0586  0.1298 -0.1183
  115OSM    O1211998   6.466   3.313  11.123  0.1573  0.2860  0.0237
  115OSM    C1S11999   6.181   3.327  10.864  0.5297  0.5866 -0.5452
  115OSM    H1S12000   6.184   3.433  10.831 -0.0539 -0.1314 -3.0021
  115OSM    H1T12001   6.079   3.292  10.892  0.8853 -3.8769 -4.2685
  115OSM     NF12002   6.133   3.288  10.615 -0.2993 -0.2931 -0.4670
  115OSM    HNF12003   6.073   3.230  10.561 -0.0167 -1.0747  0.0525
  115OSM    C2S12004   6.204   3.235  10.733  0.6270 -0.1124 -0.1369
  115OSM    H2S12005   6.313   3.238  10.713  0.8164 -0.2717  0.8394
  115OSM    C3S12006   6.165   3.088  10.784 -0.4182  0.1111 -0.4778
  115OSM    H3S12007   6.054   3.087  10.789 -0.3635 -0.2217  1.0478
  115OSM     O312008   6.207   3.042  10.911  0.1721 -0.6320  0.3953
  115OSM    HO312009   6.218   3.127  10.955 -1.6309 -1.0438  1.6833
  115OSM    C4S12010   6.205   2.990  10.674 -0.4280 -0.0066  0.7086
  115OSM    H4S12011   6.137   2.983  10.588  0.1852 -1.9156  0.3562
  115OSM    C5S12012   6.315   2.914  10.665  0.0239 -0.8117  0.4521
  115OSM    H5S12013   6.391   2.907  10.744  1.3054  1.3565 -0.5514
  115OSM    C6S12014   6.354   2.823  10.550 -0.4041 -0.1956 -0.4363
  115OSM    H6S12015   6.460   2.791  10.557  0.0632  1.2769 -0.6818
  115OSM    H6T12016   6.336   2.882  10.457 -1.7070 -1.4994 -1.0238
  115OSM    C7S12017   6.268   2.703  10.549  0.5025  0.2211  0.0302
  115OSM    H7S12018   6.163   2.738  10.533  1.1941  2.2321 -0.2930
  115OSM    H7T12019   6.271   2.647  10.645  0.8201  0.9835  0.4706
  115OSM    C8S12020   6.305   2.592  10.449 -0.3437 -1.0616 -0.1385
  115OSM    H8S12021   6.245   2.501  10.473 -1.8688  0.2228  0.9999
  115OSM    H8T12022   6.414   2.575  10.465 -0.2002  0.3168  0.4050
  115OSM    C9S12023   6.284   2.630  10.301  0.1365 -0.2458 -0.3841
  115OSM    H9S12024   6.319   2.735  10.289  2.0300 -0.9086 -0.8442
  115OSM    H9T12025   6.174   2.627  10.291  0.2113  0.8684 -1.5941
  115OSM   C10S12026   6.368   2.540  10.213 -0.1933  0.3381 -0.3944
  115OSM   H10S12027   6.350   2.436  10.247  1.2578 -0.1108 -0.9707
  115OSM   H10T12028   6.478   2.552  10.206 -0.2700  1.9653  0.9068
  115OSM   C11S12029   6.304   2.559  10.072  0.2352  0.8068  0.5927
  115OSM   H11S12030   6.309   2.668  10.055  1.5778  0.6691  0.0617
  115OSM   H11T12031   6.198   2.528  10.082 -0.2410  2.7958  2.0262
  115OSM   C12S12032   6.381   2.467   9.972  0.4631 -0.0980 -0.1895
  115OSM   H12S12033   6.360   2.359   9.982  2.2019 -0.6077 -1.7103
  115OSM   H12T12034   6.492   2.480   9.973  0.7244 -1.7533 -3.0087
  115OSM   C13S12035   6.356   2.504   9.828  0.6629 -0.8234  0.4313
  115OSM   H13S12036   6.392   2.607   9.807 -1.4874 -0.1720 -0.1838
  115OSM   H13T12037   6.247   2.499   9.812  0.5777  0.5687  0.5462
  115OSM   C14S12038   6.412   2.404   9.731 -0.7620 -0.2978  0.3011
  115OSM   H14S12039   6.363   2.306   9.750 -0.0492 -0.3855  1.8019
  115OSM   H14T12040   6.516   2.365   9.739 -0.3895  0.1907 -1.7291
  115OSM   C15S12041   6.384   2.432   9.581  0.2306 -0.1651 -0.5877
  115OSM   H15S12042   6.412   2.540   9.578  1.6661 -0.4822  0.6322
  115OSM   H15T12043   6.279   2.412   9.551 -0.1486  1.5391 -0.4132
  115OSM   C16S12044   6.487   2.374   9.476  0.0406  0.6060 -0.0633
  115OSM   H16S12045   6.590   2.393   9.511  1.0491 -3.0314 -0.7989
  115OSM   H16T12046   6.458   2.421   9.380  0.7427  0.8284 -0.1613
  115OSM   C17S12047   6.454   2.218   9.456  0.0816  0.6748 -0.6029
  115OSM   H17S12048   6.352   2.207   9.411 -0.1244  1.2521 -0.2761
  115OSM   H17T12049   6.446   2.174   9.558 -0.2069  0.4844 -0.7057
  115OSM   C18S12050   6.563   2.136   9.389 -0.3886  0.0726 -0.3941
  115OSM   H18S12051   6.599   2.199   9.305 -1.8318 -0.2329 -1.2659
  115OSM   H18T12052   6.528   2.036   9.357 -0.8124  0.2291 -0.4260
  115OSM   H18U12053   6.656   2.130   9.449 -0.5073 -0.4461 -0.2592
  115OSM    C1F12054   6.169   3.403  10.570  0.1397  0.2218 -0.5468
  115OSM     OF12055   6.260   3.469  10.611 -0.5492  0.2398 -0.0374
  115OSM    C2F12056   6.079   3.466  10.464  0.0540 -0.3245 -0.8146
  115OSM    H2F12057   6.053   3.567  10.504  0.3603  0.2471 -2.0436
  115OSM    H2G12058   5.992   3.398  10.456  0.6530 -1.0856 -0.8248
  115OSM    C3F12059   6.136   3.476  10.327  1.2089  0.2911 -0.1733
  115OSM    H3F12060   6.175   3.379  10.288 -0.3876  0.2554 -1.7653
  115OSM    H3G12061   6.229   3.536  10.328  0.8689  0.8078  0.3244
  115OSM    C4F12062   6.034   3.536  10.230 -0.0362  0.6840 -0.3050
  115OSM    H4F12063   6.017   3.644  10.249 -0.3879  0.3986  1.0134
  115OSM    H4G12064   5.938   3.488  10.256  0.7195 -1.0491 -0.6287
  115OSM    C5F12065   6.063   3.515  10.087 -0.5636  0.4996 -0.7298
  115OSM    H5F12066   6.061   3.404  10.079 -0.0122  0.2645  1.9287
  115OSM    H5G12067   6.161   3.550  10.047 -0.9881  1.2917 -1.0979
  115OSM    C6F12068   5.953   3.551   9.981 -0.1839  0.7425 -0.3904
  115OSM    H6F12069   5.933   3.658  10.001 -0.3219  0.7716 -0.6819
  115OSM    H6G12070   5.870   3.482  10.011 -0.7415  1.1096 -1.0603
  115OSM    C7F12071   5.992   3.531   9.837 -0.1678  0.1385  0.3215
  115OSM    H7F12072   6.047   3.434   9.835  0.2438  0.3714  0.1966
  115OSM    H7G12073   6.058   3.604   9.784  1.8090 -1.6888  0.1787
  115OSM    C8F12074   5.865   3.525   9.753 -0.1410 -0.7933 -0.1269
  115OSM    H8F12075   5.799   3.452   9.805 -0.5011  0.6088  1.4124
  115OSM    H8G12076   5.907   3.470   9.666  2.1503 -2.8552  2.1559
  115OSM    C9F12077   5.794   3.654   9.748 -0.5529  0.9037 -0.2705
  115OSM    H9F12078   5.759   3.680   9.849 -1.4909  1.3427 -0.7095
  115OSM   C10F12079   5.774   3.738   9.645  0.0237 -0.2436 -0.9911
  115OSM   H10F12080   5.712   3.828   9.656  1.3447  0.3881  1.6958
  115OSM   C11F12081   5.829   3.701   9.505  0.4987  0.0109  0.5175
  115OSM   H11F12082   5.833   3.591   9.486 -0.2022 -0.0327  0.6037
  115OSM   H11G12083   5.929   3.750   9.497 -0.0251  0.7465 -1.8186
  115OSM   C12F12084   5.749   3.763   9.378  0.2437 -0.2261 -0.2239
  115OSM   H12F12085   5.642   3.758   9.405  0.4990 -0.4117  0.7856
  115OSM   H12G12086   5.775   3.702   9.289  2.6179 -1.9813  1.5874
  115OSM   C13F12087   5.782   3.911   9.356 -0.0345  0.1871  0.2865
  115OSM   H13F12088   5.885   3.932   9.390  0.2222 -1.0338  0.2827
  115OSM   H13G12089   5.724   3.981   9.420 -2.1866 -2.9184  1.8488
  115OSM   C14F12090   5.770   3.951   9.214 -0.1481  0.7004  0.2609
  115OSM   H14F12091   5.769   4.061   9.230  3.5827  0.7781  0.5883
  115OSM   H14G12092   5.673   3.916   9.172  0.3092  1.3397 -1.3959
  115OSM   C15F12093   5.889   3.906   9.123  0.1306  0.2593  0.2342
  115OSM   H15F12094   5.911   3.797   9.133 -0.6577  0.3066  2.6999
  115OSM   H15G12095   5.981   3.958   9.156 -0.5039  1.9915 -0.6849
  115OSM   C16F12096   5.847   3.941   8.982 -0.8171 -0.3888  0.3626
  115OSM   H16F12097   5.810   4.045   8.975 -0.5085 -0.3191 -0.2461
  115OSM   H16G12098   5.760   3.882   8.945 -0.0716 -1.2133 -0.1046
  115OSM   C17F12099   5.967   3.935   8.882  0.8931  0.3928 -0.0405
  115OSM   H17F12100   6.016   3.835   8.874 -1.4383 -1.0385  2.6339
  115OSM   H17G12101   6.050   4.007   8.898  1.0626  0.5080 -1.3792
  115OSM   C18F12102   5.915   3.978   8.745  0.2508 -0.2881  0.7360
  115OSM   H18F12103   6.002   3.987   8.676  0.8395  2.3614  1.7359
  115OSM   H18G12104   5.864   4.077   8.744  0.6050 -0.1014  0.5774
  115OSM   H18H12105   5.848   3.899   8.708 -0.9062 -0.3918  2.9803
  116OSM      N12106   2.747   6.293  11.485 -0.4575 -0.0487 -0.2797
  116OSM    C1512107   2.664   6.400  11.551 -0.2057 -0.1112  0.7764
  116OSM   H15A12108   2.560   6.370  11.553 -0.1166 -0.3657  1.6199
  116OSM   H15B12109   2.684   6.494  11.502  0.4032 -0.2486  0.7506
  116OSM   H15C12110   2.697   6.422  11.651  0.0871  0.4373  0.5617
  116OSM    C1412111   2.894   6.319  11.501  0.3956  0.1578 -0.3807
  116OSM   H14A12112   2.966   6.248  11.461 -0.5888 -1.4790  0.6551
  116OSM   H14B12113   2.922   6.327  11.605 -0.7501 -0.2186 -0.0355
  116OSM   H14C12114   2.930   6.414  11.467  1.5036 -0.5219 -1.1563
  116OSM    C1312115   2.717   6.173  11.561  0.3962 -0.2983 -0.4207
  116OSM   H13A12116   2.612   6.155  11.543 -0.1719  1.0228  1.3636
  116OSM   H13B12117   2.726   6.188  11.668 -0.7908  1.4424 -0.5337
  116OSM   H13C12118   2.782   6.090  11.538 -0.9251 -1.7328  0.8765
  116OSM    C1212119   2.726   6.277  11.332  0.6422  0.4950 -0.3384
  116OSM   H12A12120   2.636   6.218  11.321 -0.0658  1.1454  1.7626
  116OSM   H12B12121   2.810   6.218  11.297 -0.0118 -1.2319  0.9072
  116OSM    C1112122   2.724   6.397  11.233  0.1858 -0.3066 -0.4003
  116OSM   H11A12123   2.643   6.457  11.280  0.9855 -0.5869  1.3982
  116OSM   H11B12124   2.706   6.350  11.135  0.4751 -1.6183  0.1659
  116OSM      P12125   2.810   6.634  11.172 -0.4660 -0.1671 -0.4752
  116OSM    O1312126   2.701   6.701  11.239  0.2761 -0.1987 -0.1089
  116OSM    O1412127   2.938   6.704  11.168 -0.4784  0.0806 -0.6271
  116OSM    O1112128   2.765   6.592  11.021 -0.1810 -0.3587 -0.1400
  116OSM    O1212129   2.835   6.485  11.235  0.3625  0.2736  0.0883
  116OSM    C1S12130   2.868   6.542  10.927  0.8324  0.2929 -0.2385
  116OSM    H1S12131   2.895   6.435  10.940 -3.4155 -0.5696  2.4990
  116OSM    H1T12132   2.968   6.589  10.937  0.7176  0.2583  1.1253
  116OSM     NF12133   2.900   6.500  10.685 -0.4046  0.1369 -0.1807
  116OSM    HNF12134   2.987   6.542  10.660  0.2709 -2.6084 -2.7080
  116OSM    C2S12135   2.825   6.575  10.781 -0.3811 -0.3291 -0.1512
  116OSM    H2S12136   2.719   6.555  10.758 -0.4108 -0.2070 -0.1214
  116OSM    C3S12137   2.827   6.730  10.764  1.0178 -0.0389 -0.1285
  116OSM    H3S12138   2.915   6.765  10.822  0.1555 -0.7374  1.6215
  116OSM     O312139   2.722   6.793  10.838 -0.0099 -0.1058 -0.0457
  116OSM    HO312140   2.713   6.728  10.908  1.5879 -0.1676  0.1177
  116OSM    C4S12141   2.822   6.775  10.626  0.3426 -0.4361 -0.5309
  116OSM    H4S12142   2.721   6.750  10.590 -0.2929 -0.3327  1.1453
  116OSM    C5S12143   2.919   6.817  10.542 -0.2984 -0.2903 -0.0611
  116OSM    H5S12144   3.023   6.808  10.577 -0.6641 -2.9097  0.3966
  116OSM    C6S12145   2.895   6.856  10.394  0.3181 -0.2361 -0.2912
  116OSM    H6S12146   2.921   6.768  10.331  0.9887  0.0864 -0.4695
  116OSM    H6T12147   2.972   6.931  10.368 -0.9646  0.3519 -2.4883
  116OSM    C7S12148   2.754   6.915  10.364 -0.4745  0.1796  0.1129
  116OSM    H7S12149   2.726   6.986  10.445  1.0752  1.0657 -0.1094
  116OSM    H7T12150   2.673   6.839  10.358  0.2350 -0.7290  1.8809
  116OSM    C8S12151   2.752   6.987  10.229 -0.1897  0.4782 -0.9390
  116OSM    H8S12152   2.801   6.919  10.157  1.2109 -0.5973  0.9820
  116OSM    H8T12153   2.824   7.071  10.240  0.7652 -0.5880  1.3760
  116OSM    C9S12154   2.614   7.031  10.190 -0.0176  0.0276  0.1417
  116OSM    H9S12155   2.566   7.091  10.270  1.5640  4.2185 -1.8980
  116OSM    H9T12156   2.554   6.937  10.197  0.4314 -0.1998  1.0797
  116OSM   C10S12157   2.602   7.071  10.043 -1.0912  0.3014 -0.4404
  116OSM   H10S12158   2.649   7.002   9.969  2.1155  1.9083  0.0252
  116OSM   H10T12159   2.677   7.152  10.034  0.4672 -1.0444  0.2327
  116OSM   C11S12160   2.463   7.118  10.011  0.8396  0.3404  0.7263
  116OSM   H11S12161   2.441   7.212  10.066  1.1146  0.2386  1.0162
  116OSM   H11T12162   2.396   7.031  10.027  1.7567 -0.7283 -1.0730
  116OSM   C12S12163   2.458   7.161   9.864  0.0810 -0.2150 -0.0689
  116OSM   H12S12164   2.512   7.082   9.807  1.1990  0.9268 -0.5940
  116OSM   H12T12165   2.511   7.257   9.849  0.1743 -0.2429  0.0868
  116OSM   C13S12166   2.316   7.163   9.808 -0.2227 -0.9077  0.3165
  116OSM   H13S12167   2.290   7.271   9.812  3.5232  0.0643 -0.3142
  116OSM   H13T12168   2.255   7.098   9.876  0.3654 -0.7894  0.9614
  116OSM   C14S12169   2.308   7.107   9.664 -0.1146  0.7296  0.3965
  116OSM   H14S12170   2.359   7.176   9.594 -0.3352 -1.8859 -2.4477
  116OSM   H14T12171   2.198   7.103   9.645  0.0840 -0.9693 -0.4827
  116OSM   C15S12172   2.353   6.960   9.642  0.1197  0.7723  0.2492
  116OSM   H15S12173   2.316   6.905   9.731  0.3805 -1.2068 -0.8372
  116OSM   H15T12174   2.464   6.959   9.645  0.0945  0.5377  1.5244
  116OSM   C16S12175   2.293   6.905   9.511  0.0058 -0.3393 -0.6496
  116OSM   H16S12176   2.246   6.988   9.453 -0.7522 -0.8720 -0.7982
  116OSM   H16T12177   2.206   6.843   9.541  0.4684 -0.7132 -0.0722
  116OSM   C17S12178   2.388   6.818   9.434 -0.5601  0.4702 -0.5576
  116OSM   H17S12179   2.391   6.722   9.490 -1.3764 -0.7989 -2.6152
  116OSM   H17T12180   2.485   6.872   9.425 -0.3805  0.6651  2.1267
  116OSM   C18S12181   2.344   6.787   9.284  0.6691  0.1714  0.0890
  116OSM   H18S12182   2.424   6.729   9.234 -0.5413 -1.0567 -0.4604
  116OSM   H18T12183   2.335   6.885   9.232  2.3886  1.2852  1.8525
  116OSM   H18U12184   2.250   6.728   9.287  1.1505 -0.5186  1.9196
  116OSM    C1F12185   2.889   6.370  10.654 -0.1977  0.0249 -0.5630
  116OSM     OF12186   2.805   6.307  10.714  0.4750  0.4523 -0.1040
  116OSM    C2F12187   2.979   6.321  10.550  0.7373 -0.1954 -0.4982
  116OSM    H2F12188   2.970   6.210  10.543  0.9380 -0.1944 -0.7746
  116OSM    H2G12189   3.085   6.349  10.571  0.6148 -0.9765  1.3111
  116OSM    C3F12190   2.932   6.375  10.409 -0.2874 -0.4596 -0.0043
  116OSM    H3F12191   2.934   6.486  10.420  1.0801 -0.6109  1.3703
  116OSM    H3G12192   2.825   6.356  10.383  0.0221 -0.4851 -1.3033
  116OSM    C4F12193   3.025   6.337  10.293 -0.6446 -0.3571 -0.6171
  116OSM    H4F12194   3.037   6.227  10.297  0.2973 -0.3177 -2.0187
  116OSM    H4G12195   3.123   6.391  10.293 -0.7918 -0.0862 -0.9417
  116OSM    C5F12196   2.965   6.386  10.157  0.3966  0.3372 -0.1202
  116OSM    H5F12197   2.944   6.495  10.159 -0.8884  0.1024  0.1669
  116OSM    H5G12198   2.872   6.327  10.139  1.0513 -1.1664  1.3310
  116OSM    C6F12199   3.044   6.345  10.032  0.3246  0.8931 -1.8515
  116OSM    H6F12200   3.063   6.235  10.037  1.7280  1.2412  0.9254
  116OSM    H6G12201   3.147   6.387  10.032  1.0990 -0.7242  2.7834
  116OSM    C7F12202   2.968   6.364   9.902  1.0197 -0.3766  0.1951
  116OSM    H7F12203   2.939   6.469   9.879 -0.8104 -0.9921 -0.4245
  116OSM    H7G12204   2.878   6.299   9.908  1.1111 -0.4407  0.8743
  116OSM    C8F12205   3.051   6.309   9.782 -0.8630  0.5466 -0.1603
  116OSM    H8F12206   2.994   6.299   9.688 -1.9124  3.4107  0.1004
  116OSM    H8G12207   3.086   6.207   9.807 -1.6257 -0.4653 -3.1274
  116OSM    C9F12208   3.170   6.397   9.757 -0.8040  0.3181 -0.9436
  116OSM    H9F12209   3.184   6.474   9.834  0.4141  0.7059 -1.5442
  116OSM   C10F12210   3.256   6.383   9.660 -0.1809 -0.6340  0.7353
  116OSM   H10F12211   3.333   6.460   9.647 -0.6657 -0.0868  1.0773
  116OSM   C11F12212   3.249   6.279   9.555  0.2275 -0.6690 -0.3017
  116OSM   H11F12213   3.157   6.217   9.550  1.3319 -2.2183 -2.4727
  116OSM   H11G12214   3.335   6.210   9.571 -0.0971 -0.6105  1.7903
  116OSM   C12F12215   3.257   6.345   9.418 -0.6896  0.3639  0.2577
  116OSM   H12F12216   3.354   6.399   9.421 -1.0018  1.1561 -2.3305
  116OSM   H12G12217   3.179   6.423   9.407 -1.3015 -0.6599 -3.3767
  116OSM   C13F12218   3.246   6.241   9.302 -0.3637 -0.0338 -0.0652
  116OSM   H13F12219   3.138   6.214   9.305 -0.9149  2.1502  1.1650
  116OSM   H13G12220   3.308   6.150   9.314  1.7490  1.2803 -0.7329
  116OSM   C14F12221   3.264   6.305   9.163  0.9706 -0.5567  0.5141
  116OSM   H14F12222   3.366   6.346   9.154  1.2368 -0.6982  2.6656
  116OSM   H14G12223   3.199   6.395   9.158  2.0345  0.2115  0.4770
  116OSM   C15F12224   3.233   6.203   9.046  0.2214 -0.4972 -0.2826
  116OSM   H15F12225   3.134   6.157   9.069  0.0991  0.9786  2.2677
  116OSM   H15G12226   3.307   6.122   9.058  3.0864  1.7356 -2.2814
  116OSM   C16F12227   3.231   6.263   8.908 -1.0099 -0.5027 -0.1390
  116OSM   H16F12228   3.336   6.268   8.874 -0.1749 -0.9063  2.2760
  116OSM   H16G12229   3.183   6.363   8.906  1.7369  0.8456 -1.4584
  116OSM   C17F12230   3.147   6.194   8.803 -0.1970  0.2794 -0.2371
  116OSM   H17F12231   3.128   6.260   8.715  2.1739  0.7230 -0.4566
  116OSM   H17G12232   3.051   6.181   8.858  0.1257  1.0998  0.5280
  116OSM   C18F12233   3.190   6.055   8.764 -0.4597 -0.8501 -0.0723
  116OSM   H18F12234   3.226   5.988   8.845  2.6179  0.3274 -0.3777
  116OSM   H18G12235   3.268   6.075   8.688 -2.2500  0.3745 -1.6254
  116OSM   H18H12236   3.112   5.999   8.709 -1.0482 -1.8752  1.7767
  117OSM      N12237   0.695   0.722  11.150 -0.3771 -0.3803  0.2577
  117OSM    C1512238   0.771   0.767  11.267 -0.2570  0.0318 -0.7013
  117OSM   H15A12239   0.792   0.872  11.276  1.3285 -0.3377  0.0630
  117OSM   H15B12240   0.867   0.717  11.274  0.9043  2.0967 -1.6238
  117OSM   H15C12241   0.713   0.735  11.353  0.4053 -2.4723 -1.1297
  117OSM    C1412242   0.683   0.575  11.146 -0.3839 -0.1497  0.0969
  117OSM   H14A12243   0.665   0.542  11.044  1.5520 -2.8083  0.5711
  117OSM   H14B12244   0.597   0.548  11.205  0.2750  0.8729  1.5455
  117OSM   H14C12245   0.764   0.518  11.190  1.3002  0.8829 -1.5624
  117OSM    C1312246   0.554   0.778  11.160  1.0817 -0.4791 -0.6332
  117OSM   H13A12247   0.482   0.709  11.117  0.7929 -0.1677 -0.6501
  117OSM   H13B12248   0.535   0.875  11.118 -0.1602  0.3825  1.8646
  117OSM   H13C12249   0.526   0.796  11.263 -0.4080  1.4952 -1.3525
  117OSM    C1212250   0.751   0.788  11.028 -0.5988 -0.2121  0.3086
  117OSM   H12A12251   0.718   0.891  11.027 -0.2105 -0.0866 -1.5240
  117OSM   H12B12252   0.703   0.747  10.940 -1.4888 -2.1930  1.6816
  117OSM    C1112253   0.904   0.789  11.007  0.1101  0.1243 -0.1637
  117OSM   H11A12254   0.933   0.795  10.900  2.2771  4.2403  0.5660
  117OSM   H11B12255   0.932   0.687  11.042 -0.8166  0.5528  1.9629
  117OSM      P12256   0.963   1.021  11.086  0.2007 -0.1173 -0.1078
  117OSM    O1312257   0.837   1.056  11.159  0.1214 -0.1243  0.3045
  117OSM    O1412258   1.090   1.078  11.131  0.1684  0.1883 -0.3771
  117OSM    O1112259   0.945   1.052  10.932 -0.5350 -0.4333 -0.0763
  117OSM    O1212260   0.980   0.866  11.097 -0.0428 -0.5759  1.0174
  117OSM    C1S12261   1.065   1.051  10.855  0.2970 -0.5374  0.0266
  117OSM    H1S12262   1.107   0.948  10.859 -0.3025 -0.7805  0.1580
  117OSM    H1T12263   1.146   1.121  10.881  1.8409 -1.6917 -1.5296
  117OSM     NF12264   1.158   1.032  10.616 -0.4415 -0.3720  0.3303
  117OSM    HNF12265   1.211   1.113  10.591 -2.2280  1.7936  3.1596
  117OSM    C2S12266   1.039   1.062  10.695 -0.2188  0.3866 -0.0019
  117OSM    H2S12267   0.964   0.984  10.671 -1.2781  1.9283 -1.8472
  117OSM    C3S12268   0.976   1.201  10.665  0.0788  0.8434  0.7737
  117OSM    H3S12269   1.061   1.273  10.667  1.3286 -0.6282  0.8639
  117OSM     O312270   0.876   1.239  10.760 -0.5459  0.5572  0.3518
  117OSM    HO312271   0.879   1.178  10.834  2.4473  0.6086  0.3495
  117OSM    C4S12272   0.926   1.197  10.523  0.1767 -0.5816  0.2717
  117OSM    H4S12273   0.828   1.148  10.521  0.5940 -1.4501 -3.8225
  117OSM    C5S12274   0.990   1.232  10.408  0.4922 -0.4578  0.0906
  117OSM    H5S12275   1.100   1.240  10.413  0.4122  0.1656  1.0332
  117OSM    C6S12276   0.930   1.213  10.267  0.2691 -0.3644 -0.1813
  117OSM    H6S12277   0.908   1.311  10.219 -2.7969 -0.3571  1.1358
  117OSM    H6T12278   0.836   1.154  10.261  0.1964 -0.1539 -1.3028
  117OSM    C7S12279   1.038   1.140  10.183  0.1234  0.1773  0.0349
  117OSM    H7S12280   1.066   1.041  10.225  0.5952 -0.7712 -2.4633
  117OSM    H7T12281   1.123   1.211  10.192 -0.2594  0.6572 -0.0911
  117OSM    C8S12282   1.006   1.113  10.042  0.2611  0.6519 -0.1940
  117OSM    H8S12283   0.903   1.073  10.030  1.6608 -3.6888  1.3496
  117OSM    H8T12284   1.082   1.043  10.000  1.0711  2.0775 -1.1734
  117OSM    C9S12285   1.010   1.240   9.956  0.2696 -1.0414  0.1224
  117OSM    H9S12286   1.115   1.275   9.952 -0.0412 -0.0227  0.8308
  117OSM    H9T12287   0.959   1.322  10.011  2.4187 -0.3134  1.0853
  117OSM   C10S12288   0.976   1.224   9.805  0.8140 -0.8505 -0.2218
  117OSM   H10S12289   0.867   1.214   9.785  0.4511 -0.0372  1.3093
  117OSM   H10T12290   1.026   1.129   9.776 -0.1236 -1.0130 -1.3677
  117OSM   C11S12291   1.029   1.336   9.707  0.2094  0.3699 -0.5175
  117OSM   H11S12292   1.138   1.359   9.704  0.2886  0.3980  1.6075
  117OSM   H11T12293   0.974   1.428   9.737 -2.0996 -0.7983 -1.1022
  117OSM   C12S12294   0.984   1.288   9.563 -0.2133 -0.0729  0.7937
  117OSM   H12S12295   0.885   1.238   9.568 -1.6655  2.1042 -3.4312
  117OSM   H12T12296   1.052   1.214   9.517  0.5784  1.0420  0.1534
  117OSM   C13S12297   0.976   1.409   9.465 -0.8383  0.3250  0.3304
  117OSM   H13S12298   1.078   1.452   9.462 -0.8462  0.3368  0.2063
  117OSM   H13T12299   0.896   1.482   9.492 -0.8661  0.8913 -1.2300
  117OSM   C14S12300   0.922   1.358   9.326 -0.0958 -0.5627  1.0074
  117OSM   H14S12301   0.823   1.312   9.345  0.5620 -2.5557 -0.2282
  117OSM   H14T12302   0.998   1.285   9.291  1.6021  1.8691 -0.5389
  117OSM   C15S12303   0.928   1.477   9.221  0.4843  0.1662  0.8908
  117OSM   H15S12304   1.036   1.500   9.206  0.2028  0.0406 -1.5660
  117OSM   H15T12305   0.868   1.563   9.260  0.3325 -0.0477  1.1288
  117OSM   C16S12306   0.877   1.437   9.088 -0.1473 -0.1236  0.2255
  117OSM   H16S12307   0.768   1.417   9.094 -0.3375  0.5570 -0.7292
  117OSM   H16T12308   0.931   1.348   9.049 -0.1843 -0.4459  0.9073
  117OSM   C17S12309   0.889   1.551   8.979 -0.5449 -0.1994 -1.1563
  117OSM   H17S12310   0.863   1.651   9.019 -1.1632 -0.3865 -1.0844
  117OSM   H17T12311   0.835   1.512   8.891  0.5279 -3.4144 -0.4485
  117OSM   C18S12312   1.032   1.557   8.928  0.2259  0.5867 -0.9009
  117OSM   H18S12313   1.042   1.614   8.833 -1.0497 -0.6329 -1.7867
  117OSM   H18T12314   1.069   1.456   8.900  0.5258  0.4215  0.0650
  117OSM   H18U12315   1.094   1.598   9.010  0.9389  0.1149 -1.1961
  117OSM    C1F12316   1.208   0.911  10.588 -0.3794 -0.1154  0.5211
  117OSM     OF12317   1.143   0.811  10.631  0.0110  0.0643  0.3221
  117OSM    C2F12318   1.340   0.903  10.515 -0.0505 -0.8352 -0.2033
  117OSM    H2F12319   1.411   0.876  10.596 -0.1485  1.0004  0.5278
  117OSM    H2G12320   1.363   1.006  10.480  0.0936 -1.2836 -1.4268
  117OSM    C3F12321   1.352   0.798  10.397  0.3132 -0.5692 -0.3494
  117OSM    H3F12322   1.321   0.699  10.436  3.6515 -0.7350  2.0182
  117OSM    H3G12323   1.453   0.794  10.351  0.2354 -0.5780 -0.5233
  117OSM    C4F12324   1.263   0.825  10.270 -0.0510 -0.2752  0.4963
  117OSM    H4F12325   1.274   0.932  10.241 -1.7637 -0.3346 -0.4114
  117OSM    H4G12326   1.159   0.814  10.307  0.1854 -3.5025  0.2943
  117OSM    C5F12327   1.290   0.733  10.154  0.1572 -0.0646 -0.1055
  117OSM    H5F12328   1.260   0.629  10.180  0.0544 -1.0331 -3.8514
  117OSM    H5G12329   1.397   0.745  10.126  0.2862 -1.0056 -0.0159
  117OSM    C6F12330   1.210   0.760  10.032  0.0707  0.0651  0.7601
  117OSM    H6F12331   1.238   0.863  10.003  0.3577 -0.1417  0.2968
  117OSM    H6G12332   1.101   0.757  10.055  0.0943 -0.0686  0.8621
  117OSM    C7F12333   1.234   0.655   9.920  0.0063 -0.3881  0.1477
  117OSM    H7F12334   1.187   0.563   9.961 -1.4055  0.8778  1.4229
  117OSM    H7G12335   1.343   0.637   9.907 -0.5771 -1.2378 -4.4915
  117OSM    C8F12336   1.171   0.694   9.783 -0.5305 -0.5342  1.0390
  117OSM    H8F12337   1.221   0.781   9.735  0.6529 -3.2425 -3.0048
  117OSM    H8G12338   1.069   0.736   9.794  0.5078  2.4830 -0.3749
  117OSM    C9F12339   1.180   0.572   9.682 -0.0001 -0.4471  0.3090
  117OSM    H9F12340   1.157   0.477   9.733 -0.2507 -1.4471 -1.6365
  117OSM   C10F12341   1.205   0.578   9.550 -0.3626  0.0335  0.7312
  117OSM   H10F12342   1.207   0.483   9.496 -1.6526  1.5158 -2.0070
  117OSM   C11F12343   1.240   0.699   9.461 -0.8377 -0.1985  0.4072
  117OSM   H11F12344   1.289   0.660   9.369 -1.6532 -3.6467  1.3664
  117OSM   H11G12345   1.305   0.764   9.523 -1.1576  0.6313 -0.1262
  117OSM   C12F12346   1.119   0.786   9.432  0.1640 -0.6966 -0.6186
  117OSM   H12F12347   1.088   0.834   9.528  0.0063 -0.4943 -0.7705
  117OSM   H12G12348   1.033   0.726   9.395 -1.3205  1.4532 -0.7301
  117OSM   C13F12349   1.146   0.887   9.318  0.3960 -0.4743  0.3430
  117OSM   H13F12350   1.178   0.832   9.227 -0.9746 -0.8605  0.0810
  117OSM   H13G12351   1.221   0.965   9.342 -0.5344  0.9296 -1.2154
  117OSM   C14F12352   1.022   0.961   9.268  0.4753  0.1129 -0.2161
  117OSM   H14F12353   0.978   1.034   9.340 -0.2859 -1.0213  0.4851
  117OSM   H14G12354   0.950   0.876   9.261  0.7045  0.0616 -1.9365
  117OSM   C15F12355   1.036   1.035   9.133 -0.4927  0.7609  0.1666
  117OSM   H15F12356   1.098   1.126   9.144  1.5983 -0.8134  1.7730
  117OSM   H15G12357   0.934   1.068   9.105  0.2521  2.8842 -0.0912
  117OSM   C16F12358   1.076   0.946   9.016 -0.2339 -0.3318 -0.1537
  117OSM   H16F12359   1.005   0.861   9.007 -0.0716 -0.2301 -2.6804
  117OSM   H16G12360   1.169   0.890   9.040 -0.5869 -1.1663 -0.7017
  117OSM   C17F12361   1.095   1.014   8.885  0.7693  0.0994 -0.4071
  117OSM   H17F12362   1.176   1.090   8.885  1.7090 -0.8689 -2.1181
  117OSM   H17G12363   1.002   1.071   8.867  1.1561  0.3772 -1.5315
  117OSM   C18F12364   1.102   0.920   8.766 -0.5504 -0.2316 -0.9287
  117OSM   H18F12365   1.072   0.975   8.674 -0.6522  0.2987 -0.5829
  117OSM   H18G12366   1.029   0.837   8.773 -0.5103 -0.1143  0.9929
  117OSM   H18H12367   1.203   0.879   8.744 -0.3737 -0.7300  0.7440
  118OSM      N12368   1.681   1.712  11.236  0.2151 -0.6134  0.9586
  118OSM    C1512369   1.554   1.638  11.272  0.2359  0.0354  0.0852
  118OSM   H15A12370   1.468   1.703  11.269  0.7131  0.7127  1.0480
  118OSM   H15B12371   1.566   1.607  11.375  2.1641  0.0787 -0.1019
  118OSM   H15C12372   1.547   1.551  11.208  0.0010  0.1074  0.0133
  118OSM    C1412373   1.691   1.841  11.316  0.6251 -0.0770 -0.1439
  118OSM   H14A12374   1.775   1.895  11.276 -1.7093  2.0387 -2.3830
  118OSM   H14B12375   1.709   1.819  11.420  1.3560 -0.9409 -0.4416
  118OSM   H14C12376   1.603   1.902  11.302  0.8418  0.3601  0.3869
  118OSM    C1312377   1.801   1.629  11.259  0.2458  0.1451 -0.2600
  118OSM   H13A12378   1.804   1.610  11.365  0.6955  0.5022 -0.2083
  118OSM   H13B12379   1.895   1.674  11.232  0.8706 -1.7160 -1.2717
  118OSM   H13C12380   1.806   1.535  11.205  1.4395 -1.9093  3.2335
  118OSM    C1212381   1.671   1.749  11.092 -0.3357  0.0591 -0.0222
  118OSM   H12A12382   1.693   1.661  11.035 -0.0504  1.3876 -1.9952
  118OSM   H12B12383   1.758   1.808  11.067 -0.2192  1.1892  2.7555
  118OSM    C1112384   1.542   1.825  11.045 -0.0091  0.4155  0.5213
  118OSM   H11A12385   1.460   1.751  11.035  1.1857 -1.1010  1.7371
  118OSM   H11B12386   1.571   1.855  10.942 -0.6816 -2.3441 -0.5120
  118OSM      P12387   1.371   1.968  11.172 -0.4327 -0.7821 -0.1385
  118OSM    O1312388   1.330   1.869  11.275  0.2243  0.3011 -0.1563
  118OSM    O1412389   1.374   2.114  11.204 -0.0173 -0.3446  0.4804
  118OSM    O1112390   1.287   1.943  11.043  0.1919 -0.0829 -0.7631
  118OSM    O1212391   1.518   1.940  11.125 -0.0188  0.7890  0.1803
  118OSM    C1S12392   1.301   2.032  10.933  0.3413  0.9908 -0.1612
  118OSM    H1S12393   1.397   2.011  10.880 -0.5434  0.3093 -1.5233
  118OSM    H1T12394   1.295   2.139  10.962  2.0153  0.8056  0.9667
  118OSM     NF12395   1.236   2.079  10.697 -0.0635  0.2553  0.5299
  118OSM    HNF12396   1.232   2.178  10.685 -0.5232  0.4660  2.2555
  118OSM    C2S12397   1.181   2.026  10.826  0.1553 -0.2924 -0.5607
  118OSM    H2S12398   1.156   1.918  10.821  0.1750 -0.2265 -2.2353
  118OSM    C3S12399   1.060   2.099  10.887 -0.2103 -0.5173  0.5881
  118OSM    H3S12400   1.070   2.208  10.906 -3.0911 -0.3927  1.6142
  118OSM     O312401   1.030   2.054  11.019  0.7303  0.9418  0.2560
  118OSM    HO312402   1.105   1.997  11.040  0.9578 -0.2125 -3.2678
  118OSM    C4S12403   0.945   2.062  10.799  0.2833  0.1115  0.2644
  118OSM    H4S12404   0.908   1.959  10.810 -0.4824  0.2188 -1.1821
  118OSM    C5S12405   0.868   2.144  10.726  0.3694  0.2707  0.3217
  118OSM    H5S12406   0.872   2.253  10.733 -2.7462  0.3973  0.7639
  118OSM    C6S12407   0.753   2.094  10.643 -0.1118 -0.6437 -0.4101
  118OSM    H6S12408   0.656   2.121  10.690 -0.2987  0.5727 -1.4645
  118OSM    H6T12409   0.764   1.985  10.627  2.1469 -0.7703  1.6898
  118OSM    C7S12410   0.743   2.151  10.504  0.1706 -0.1791  0.0188
  118OSM    H7S12411   0.754   2.261  10.495  0.0115 -0.0741  1.1032
  118OSM    H7T12412   0.645   2.118  10.463  1.8789 -2.2964 -2.5419
  118OSM    C8S12413   0.861   2.090  10.408  0.2563  0.3260 -0.9208
  118OSM    H8S12414   0.903   2.000  10.458  0.2600  2.2483  2.6778
  118OSM    H8T12415   0.942   2.164  10.392 -0.7418  1.4675 -0.7444
  118OSM    C9S12416   0.806   2.049  10.274  0.2345 -0.1248  0.3640
  118OSM    H9S12417   0.745   2.126  10.223 -0.8249 -1.5737 -0.6089
  118OSM    H9T12418   0.723   1.977  10.294 -1.2334  1.4150  0.0102
  118OSM   C10S12419   0.911   1.985  10.187 -0.4740  0.2919 -0.4857
  118OSM   H10S12420   0.864   1.922  10.109  1.4847 -0.8739 -0.7297
  118OSM   H10T12421   0.977   1.929  10.256 -0.8630  1.4230  0.8440
  118OSM   C11S12422   1.005   2.091  10.113  0.6911  0.5703 -0.2841
  118OSM   H11S12423   1.096   2.130  10.164  0.1699  1.3307  0.0629
  118OSM   H11T12424   0.938   2.178  10.094  0.4704  0.4130 -0.2235
  118OSM   C12S12425   1.052   2.035   9.979 -0.2216 -0.0627 -0.5664
  118OSM   H12S12426   0.966   2.003   9.917 -0.8716  1.2033 -0.3348
  118OSM   H12T12427   1.119   1.952  10.010  1.5107  1.5168  0.0429
  118OSM   C13S12428   1.135   2.144   9.912 -0.1691  0.1856  0.6180
  118OSM   H13S12429   1.226   2.160   9.973 -0.8179  0.4025  1.5250
  118OSM   H13T12430   1.086   2.243   9.920 -1.9868 -0.5854 -0.3842
  118OSM   C14S12431   1.171   2.111   9.772 -0.0155 -0.3929  0.1347
  118OSM   H14S12432   1.076   2.091   9.718 -1.0824  1.7347  1.1994
  118OSM   H14T12433   1.233   2.018   9.772 -2.8085 -2.3217  0.6821
  118OSM   C15S12434   1.241   2.227   9.699 -0.3826  0.0967  1.4390
  118OSM   H15S12435   1.339   2.236   9.752 -0.5312 -0.3483  1.7972
  118OSM   H15T12436   1.175   2.314   9.716 -1.2479 -0.1925 -0.3307
  118OSM   C16S12437   1.270   2.207   9.549 -0.1445 -0.4420  0.6473
  118OSM   H16S12438   1.324   2.113   9.526  1.3172  0.7106 -0.7909
  118OSM   H16T12439   1.339   2.290   9.520 -1.7812  0.2546 -1.4080
  118OSM   C17S12440   1.151   2.218   9.463 -0.0773 -0.3149 -0.7368
  118OSM   H17S12441   1.086   2.302   9.496  3.1317  1.7987  0.3749
  118OSM   H17T12442   1.084   2.130   9.474 -0.1941 -0.3932 -1.9977
  118OSM   C18S12443   1.199   2.223   9.328  0.3227  0.1220 -0.2403
  118OSM   H18S12444   1.117   2.213   9.255  1.6940 -0.8906 -1.6809
  118OSM   H18T12445   1.257   2.129   9.316  0.2240 -0.1793  1.5370
  118OSM   H18U12446   1.263   2.308   9.296 -0.1934  1.1595  1.4132
  118OSM    C1F12447   1.312   2.000  10.619  0.1936 -0.1045  0.1060
  118OSM     OF12448   1.375   1.913  10.670 -0.0283  0.5593  0.1298
  118OSM    C2F12449   1.333   2.041  10.474 -0.4560  0.3305 -0.2483
  118OSM    H2F12450   1.355   2.149  10.462  0.3262  0.4633  2.0885
  118OSM    H2G12451   1.236   2.030  10.422  1.9665 -1.5387 -4.6682
  118OSM    C3F12452   1.430   1.952  10.406 -0.2916  0.0056 -0.2633
  118OSM    H3F12453   1.389   1.850  10.418  1.3362 -0.8709 -2.0545
  118OSM    H3G12454   1.533   1.956  10.448  0.1392  0.8849 -1.3650
  118OSM    C4F12455   1.417   1.994  10.261 -0.2995  0.2793 -0.3915
  118OSM    H4F12456   1.452   2.097  10.240 -0.8466  0.0305 -2.7236
  118OSM    H4G12457   1.308   1.988  10.239 -0.4788 -1.3390  0.8481
  118OSM    C5F12458   1.480   1.892  10.159  0.1639 -0.3495  0.1505
  118OSM    H5F12459   1.438   1.793  10.186  1.5607 -0.4607  2.0531
  118OSM    H5G12460   1.590   1.896  10.175  0.0086 -0.2618  1.2650
  118OSM    C6F12461   1.465   1.936  10.014  0.0166  0.7813  0.2569
  118OSM    H6F12462   1.355   1.938   9.994 -0.3112  2.4377  2.0824
  118OSM    H6G12463   1.510   1.860   9.946 -0.8323  0.5059 -0.0101
  118OSM    C7F12464   1.519   2.069   9.976 -0.3025  0.5761  0.1999
  118OSM    H7F12465   1.508   2.150  10.052 -0.8005 -1.1555  2.0255
  118OSM    H7G12466   1.454   2.097   9.890 -0.5582  0.0138  0.2090
  118OSM    C8F12467   1.667   2.057   9.934  0.1419  0.1544 -0.2186
  118OSM    H8F12468   1.684   1.970   9.867 -2.9567  0.9331 -2.1361
  118OSM    H8G12469   1.717   2.045  10.032  0.9316  3.1449 -0.1953
  118OSM    C9F12470   1.717   2.187   9.882  0.6026  0.1809  0.2074
  118OSM    H9F12471   1.724   2.272   9.951 -1.2212  0.3655  0.2100
  118OSM   C10F12472   1.766   2.209   9.761  0.3405 -0.6502  0.1903
  118OSM   H10F12473   1.786   2.311   9.725 -0.0815 -1.3162 -2.0457
  118OSM   C11F12474   1.775   2.100   9.659 -0.5803 -0.2971  0.1302
  118OSM   H11F12475   1.792   2.000   9.703 -3.2709 -1.8073 -2.0938
  118OSM   H11G12476   1.873   2.111   9.607  0.9430 -0.2322  2.9043
  118OSM   C12F12477   1.662   2.109   9.555 -0.2097 -0.0049  0.0156
  118OSM   H12F12478   1.566   2.075   9.599 -0.7913 -0.8230 -1.8367
  118OSM   H12G12479   1.671   2.037   9.471  0.2111  0.3268 -0.2300
  118OSM   C13F12480   1.650   2.250   9.491  0.0864 -0.1055  0.3113
  118OSM   H13F12481   1.742   2.308   9.513 -0.6081  0.4587  1.8104
  118OSM   H13G12482   1.566   2.303   9.541 -1.1146 -1.1713 -0.5496
  118OSM   C14F12483   1.616   2.247   9.340  0.5733 -0.2108 -0.6348
  118OSM   H14F12484   1.509   2.220   9.324 -0.3726  2.9709 -0.0072
  118OSM   H14G12485   1.679   2.170   9.291 -0.9317 -1.6348 -0.3903
  118OSM   C15F12486   1.628   2.388   9.277 -0.2252 -0.9762 -0.6986
  118OSM   H15F12487   1.732   2.427   9.279 -0.8730  0.7341  2.7175
  118OSM   H15G12488   1.561   2.459   9.331  0.9002 -0.0927 -0.4526
  118OSM   C16F12489   1.583   2.380   9.132  0.2439  0.0118  0.5327
  118OSM   H16F12490   1.598   2.481   9.090 -0.4041 -1.1064 -2.5633
  118OSM   H16G12491   1.474   2.363   9.122  0.6473 -1.4358 -1.7938
  118OSM   C17F12492   1.654   2.276   9.044  0.4593 -0.4391 -0.4695
  118OSM   H17F12493   1.587   2.188   9.037 -1.8478  1.1729  0.6394
  118OSM   H17G12494   1.754   2.254   9.087 -0.0964 -3.9744 -0.8584
  118OSM   C18F12495   1.672   2.327   8.897  0.3027  0.4927  0.0004
  118OSM   H18F12496   1.729   2.248   8.844  2.1349  1.2978  0.7188
  118OSM   H18G12497   1.735   2.419   8.892  0.3695  0.4160 -0.5192
  118OSM   H18H12498   1.581   2.348   8.838 -0.9006  0.0568  1.6810
  119OSM      N12499   2.809   1.611  10.931  0.2794 -0.4582 -0.1206
  119OSM    C1512500   2.737   1.548  11.040 -0.7923 -0.1367  0.1419
  119OSM   H15A12501   2.726   1.441  11.032 -0.6270 -0.2985  1.9611
  119OSM   H15B12502   2.638   1.589  11.052 -0.5998  0.7776 -1.2549
  119OSM   H15C12503   2.785   1.561  11.136  1.6486 -1.7384 -0.8290
  119OSM    C1412504   2.805   1.758  10.959  0.2810  0.1828 -0.0602
  119OSM   H14A12505   2.879   1.817  10.907 -1.0701  0.3657 -1.8202
  119OSM   H14B12506   2.811   1.796  11.060  0.3922 -0.1676  0.0666
  119OSM   H14C12507   2.712   1.793  10.917 -0.6405 -0.5051  1.3758
  119OSM    C1312508   2.950   1.568  10.934 -0.1529 -1.1849 -0.0507
  119OSM   H13A12509   2.957   1.461  10.931  0.5359 -1.1706  0.7642
  119OSM   H13B12510   2.994   1.604  11.026 -0.2220  0.4950 -0.6595
  119OSM   H13C12511   2.997   1.608  10.846 -0.6559  1.1906  0.7109
  119OSM    C1212512   2.741   1.578  10.796 -0.5283  0.9196  0.3399
  119OSM   H12A12513   2.775   1.482  10.761 -2.1997  0.9932 -1.5587
  119OSM   H12B12514   2.766   1.654  10.723  1.2872  1.2284  1.2395
  119OSM    C1112515   2.589   1.581  10.790 -0.5033 -0.3727 -0.2194
  119OSM   H11A12516   2.535   1.512  10.858  0.6169  0.8603  1.9583
  119OSM   H11B12517   2.540   1.556  10.693  0.1959  3.4518 -1.6313
  119OSM      P12518   2.396   1.756  10.824  0.0679 -0.2146 -0.0620
  119OSM    O1312519   2.343   1.695  10.947 -0.1731 -0.1205 -0.0247
  119OSM    O1412520   2.374   1.895  10.804  0.4884  0.0722  0.0208
  119OSM    O1112521   2.337   1.679  10.707  0.1923  0.4148  0.3640
  119OSM    O1212522   2.552   1.717  10.813 -0.5525 -0.0318 -0.6526
  119OSM    C1S12523   2.275   1.552  10.719  0.5980 -0.6456  0.2128
  119OSM    H1S12524   2.180   1.549  10.775 -0.6619  1.4724 -1.7126
  119OSM    H1T12525   2.344   1.470  10.749  1.2374 -0.8570 -1.7748
  119OSM     NF12526   2.133   1.401  10.579  0.2718  0.8822 -0.2574
  119OSM    HNF12527   2.168   1.308  10.567 -0.8201  0.3438  0.5964
  119OSM    C2S12528   2.230   1.510  10.571  0.1544  0.6763 -0.2777
  119OSM    H2S12529   2.185   1.607  10.540 -2.7137 -0.5475 -0.0411
  119OSM    C3S12530   2.355   1.476  10.482  0.0385  0.2535  0.9239
  119OSM    H3S12531   2.409   1.388  10.523 -1.5118 -1.0520  0.1875
  119OSM     O312532   2.450   1.572  10.457 -0.5389 -0.4955  0.2480
  119OSM    HO312533   2.429   1.643  10.518 -1.6961 -1.6499  1.2208
  119OSM    C4S12534   2.297   1.427  10.345  0.7200 -0.0811 -0.3742
  119OSM    H4S12535   2.280   1.318  10.343  1.1718 -0.1420 -1.1410
  119OSM    C5S12536   2.275   1.493  10.224  0.1179  0.3005 -0.7761
  119OSM    H5S12537   2.300   1.600  10.225  1.4688 -0.0069 -1.3245
  119OSM    C6S12538   2.218   1.435  10.096  0.1069 -0.0872  0.1723
  119OSM    H6S12539   2.297   1.432  10.018  1.0443 -0.9055  1.1333
  119OSM    H6T12540   2.131   1.493  10.059 -0.2351 -0.0956  0.9512
  119OSM    C7S12541   2.164   1.289  10.108  0.2121  0.5199  0.7998
  119OSM    H7S12542   2.102   1.291  10.200 -1.1487  0.2663 -0.1072
  119OSM    H7T12543   2.249   1.223  10.138  0.4827  0.3555 -0.3154
  119OSM    C8S12544   2.103   1.231   9.983  0.1090  0.7896 -0.4742
  119OSM    H8S12545   2.053   1.135  10.007  0.2880  1.0975  1.1414
  119OSM    H8T12546   2.187   1.215   9.912 -0.5383  0.3429 -1.1478
  119OSM    C9S12547   2.003   1.316   9.909  0.8595 -0.0372  0.6039
  119OSM    H9S12548   2.042   1.411   9.867 -0.4861  0.6003  0.7527
  119OSM    H9T12549   1.937   1.359   9.987  2.3736  3.1262  0.2167
  119OSM   C10S12550   1.939   1.237   9.792  0.1256  0.0078 -0.2424
  119OSM   H10S12551   1.846   1.290   9.760  0.3496  1.0246  0.7583
  119OSM   H10T12552   1.906   1.136   9.826 -0.0683 -0.0560 -0.6191
  119OSM   C11S12553   2.029   1.222   9.670 -0.0494  0.0622  0.3112
  119OSM   H11S12554   2.127   1.184   9.705 -1.0581 -0.7912  2.2584
  119OSM   H11T12555   2.039   1.323   9.625 -2.4178 -0.6139 -1.9055
  119OSM   C12S12556   1.971   1.132   9.556  0.3312  0.2319 -0.3637
  119OSM   H12S12557   1.863   1.150   9.535 -0.1844  0.8644  2.5452
  119OSM   H12T12558   1.983   1.036   9.611  0.2402 -0.4697 -1.5598
  119OSM   C13S12559   2.053   1.126   9.432  0.2816 -0.5560 -0.5140
  119OSM   H13S12560   2.151   1.077   9.449  0.7671  0.8737  0.8617
  119OSM   H13T12561   2.072   1.230   9.397 -1.3079  0.3004  1.0619
  119OSM   C14S12562   1.977   1.057   9.316  0.5456 -0.3857  0.0023
  119OSM   H14S12563   1.882   1.105   9.285  0.3716  0.1288  1.3047
  119OSM   H14T12564   1.970   0.950   9.345 -0.1044 -0.3656 -0.0776
  119OSM   C15S12565   2.068   1.052   9.197 -0.5521  0.5876  0.5576
  119OSM   H15S12566   2.165   1.027   9.245 -0.4636 -0.7013 -0.2452
  119OSM   H15T12567   2.082   1.151   9.148  0.7423  0.8753  1.4883
  119OSM   C16S12568   2.028   0.933   9.107  0.9212  0.2493 -0.3162
  119OSM   H16S12569   1.919   0.942   9.091  1.3767 -0.9009 -4.4175
  119OSM   H16T12570   2.043   0.836   9.159 -0.4241  0.9705  1.4572
  119OSM   C17S12571   2.105   0.930   8.974  0.2986 -0.2470  0.0275
  119OSM   H17S12572   2.056   0.994   8.897  0.1947 -1.1451 -0.6755
  119OSM   H17T12573   2.098   0.827   8.932  0.6574 -1.1697  2.1600
  119OSM   C18S12574   2.254   0.963   8.995 -0.3070  0.5136  0.2640
  119OSM   H18S12575   2.295   0.903   9.079 -0.5970  0.4008  0.3275
  119OSM   H18T12576   2.257   1.069   9.028  0.4797  0.1809  1.2955
  119OSM   H18U12577   2.304   0.947   8.897 -0.4728  0.3864  0.1988
  119OSM    C1F12578   2.016   1.423  10.628  0.0174 -0.0713 -0.4680
  119OSM     OF12579   1.981   1.537  10.655  0.3348  0.7956  0.2769
  119OSM    C2F12580   1.931   1.310  10.653  0.8974  0.1332  0.5539
  119OSM    H2F12581   1.917   1.300  10.763 -1.4251 -1.5405  0.1431
  119OSM    H2G12582   1.985   1.219  10.619  1.8174  1.1846 -0.8364
  119OSM    C3F12583   1.794   1.314  10.581  0.2305 -0.9558 -0.4574
  119OSM    H3F12584   1.726   1.392  10.623  0.8870  0.7881 -2.4994
  119OSM    H3G12585   1.733   1.223  10.594 -0.4455 -0.5046 -0.4527
  119OSM    C4F12586   1.813   1.332  10.425 -0.1031  0.6435 -0.0432
  119OSM    H4F12587   1.876   1.418  10.393 -1.7878  1.3751 -1.5218
  119OSM    H4G12588   1.709   1.356  10.394  1.1742  4.1317 -1.9534
  119OSM    C5F12589   1.857   1.207  10.352 -0.0856 -0.6216  0.1198
  119OSM    H5F12590   1.966   1.217  10.333 -0.3587  2.1780 -0.1776
  119OSM    H5G12591   1.813   1.227  10.252 -1.2265  2.0198  1.1211
  119OSM    C6F12592   1.809   1.075  10.407 -0.0365 -0.6029  0.1029
  119OSM    H6F12593   1.700   1.082  10.429  0.0441  1.7764 -0.1411
  119OSM    H6G12594   1.871   1.061  10.498  0.4358  1.2322  0.0877
  119OSM    C7F12595   1.839   0.962  10.301 -0.0033 -0.0696 -0.3506
  119OSM    H7F12596   1.835   0.860  10.344 -0.9156  0.0046 -0.2493
  119OSM    H7G12597   1.938   0.973  10.252 -0.1107 -0.9328 -0.7645
  119OSM    C8F12598   1.733   0.955  10.193  0.3547 -1.0143 -0.5836
  119OSM    H8F12599   1.757   1.029  10.115  2.1691 -1.2800 -0.3093
  119OSM    H8G12600   1.639   0.988  10.242 -0.2571 -2.6299 -0.6078
  119OSM    C9F12601   1.716   0.812  10.148  0.3832  0.5006  0.5827
  119OSM    H9F12602   1.709   0.742  10.232  2.5769  0.3652  0.6886
  119OSM   C10F12603   1.718   0.768  10.027  0.1639  0.7921 -0.1988
  119OSM   H10F12604   1.705   0.660  10.006  0.6209  0.6913  0.0249
  119OSM   C11F12605   1.754   0.850   9.907  0.4705  0.9411  0.2940
  119OSM   H11F12606   1.844   0.909   9.936  2.2283 -1.1666 -0.6833
  119OSM   H11G12607   1.676   0.927   9.894  0.9451  1.2770 -0.6596
  119OSM   C12F12608   1.773   0.779   9.770  0.4197 -0.0887 -0.1182
  119OSM   H12F12609   1.864   0.715   9.773 -0.0026 -0.7307 -0.9562
  119OSM   H12G12610   1.807   0.856   9.698 -1.7131  0.0453 -1.0075
  119OSM   C13F12611   1.648   0.711   9.717  0.2560 -1.0553 -0.0591
  119OSM   H13F12612   1.568   0.788   9.727  0.5289 -1.0081  1.9344
  119OSM   H13G12613   1.626   0.631   9.791  1.2878 -0.7978  0.5387
  119OSM   C14F12614   1.668   0.661   9.568  0.3384  0.5680 -0.1960
  119OSM   H14F12615   1.585   0.593   9.539  2.6916 -2.3469 -0.3521
  119OSM   H14G12616   1.766   0.608   9.576  0.6181  1.0854 -0.1938
  119OSM   C15F12617   1.677   0.774   9.463 -0.5787 -1.5124 -0.1236
  119OSM   H15F12618   1.766   0.839   9.478 -2.4415  1.3341 -1.0273
  119OSM   H15G12619   1.581   0.828   9.478 -0.7330 -2.3171  2.0232
  119OSM   C16F12620   1.687   0.727   9.320  0.0321  0.5942 -0.3088
  119OSM   H16F12621   1.610   0.649   9.303 -0.0555  0.1242  2.0943
  119OSM   H16G12622   1.787   0.678   9.315  0.7799  1.9286  0.9803
  119OSM   C17F12623   1.697   0.846   9.216  0.7382 -0.2056 -0.7398
  119OSM   H17F12624   1.744   0.802   9.124 -1.1147  2.2025 -2.9050
  119OSM   H17G12625   1.769   0.920   9.258 -1.3150  1.2466  0.2863
  119OSM   C18F12626   1.570   0.911   9.180 -0.0188  0.5310  0.4620
  119OSM   H18F12627   1.509   0.833   9.129 -0.8461  0.3619  1.6849
  119OSM   H18G12628   1.579   0.988   9.101 -1.5226  2.0298  1.7040
  119OSM   H18H12629   1.516   0.963   9.262  1.2807  1.8117  0.5264
  120OSM      N12630   1.178   4.248  10.894 -0.4677  0.6675 -0.6567
  120OSM    C1512631   1.309   4.286  10.940  0.2371 -0.1674  0.1984
  120OSM   H15A12632   1.341   4.385  10.910 -0.9653 -0.2393 -1.3805
  120OSM   H15B12633   1.389   4.217  10.918 -0.8002 -2.1523  2.4526
  120OSM   H15C12634   1.303   4.300  11.047 -0.0180 -1.4932  0.3684
  120OSM    C1412635   1.143   4.114  10.940  1.1058  0.0815 -0.1137
  120OSM   H14A12636   1.066   4.065  10.882  0.6806 -0.1603  0.6591
  120OSM   H14B12637   1.125   4.107  11.046 -2.1551 -0.0750 -0.6151
  120OSM   H14C12638   1.230   4.050  10.929 -0.1077 -1.2711 -2.0679
  120OSM    C1312639   1.073   4.342  10.942 -0.4836 -0.4289 -0.8178
  120OSM   H13A12640   1.080   4.437  10.891 -1.4745 -0.5741 -1.2426
  120OSM   H13B12641   1.103   4.361  11.044  0.8536 -0.9121 -1.1119
  120OSM   H13C12642   0.974   4.298  10.947 -1.8904  2.8120  2.0986
  120OSM    C1212643   1.175   4.247  10.741 -0.6933  0.7314  0.1746
  120OSM   H12A12644   1.086   4.202  10.699  0.3328  1.6256 -3.0777
  120OSM   H12B12645   1.245   4.170  10.713 -0.3934  0.9133  0.4314
  120OSM    C1112646   1.189   4.377  10.664  1.1596 -0.7922  0.2897
  120OSM   H11A12647   1.106   4.443  10.697 -0.1180 -1.0318 -2.3525
  120OSM   H11B12648   1.174   4.358  10.556 -0.3992  0.3680  0.2822
  120OSM      P12649   1.440   4.417  10.596 -0.0436 -0.0985 -0.0668
  120OSM    O1312650   1.548   4.503  10.639  0.4063 -0.0959 -0.0780
  120OSM    O1412651   1.467   4.273  10.592  0.6184 -0.2798  0.0193
  120OSM    O1112652   1.397   4.469  10.453 -0.2620 -0.9096  0.2738
  120OSM    O1212653   1.310   4.453  10.690  0.3846  0.0056 -0.3789
  120OSM    C1S12654   1.326   4.590  10.419  0.8110 -0.1981  0.0521
  120OSM    H1S12655   1.388   4.681  10.433  0.3191 -0.1941  2.3515
  120OSM    H1T12656   1.231   4.595  10.477 -0.5771  0.3024 -2.1922
  120OSM     NF12657   1.183   4.704  10.237 -0.5194  0.4964 -0.6671
  120OSM    HNF12658   1.085   4.690  10.223  0.0660 -2.1141 -2.7441
  120OSM    C2S12659   1.264   4.588  10.272 -0.4070  0.5759  0.4661
  120OSM    H2S12660   1.356   4.596  10.211  0.2425  1.2584  1.4985
  120OSM    C3S12661   1.199   4.445  10.254 -0.0013 -0.3364  1.0164
  120OSM    H3S12662   1.120   4.434  10.331 -0.5256 -0.4874  0.4622
  120OSM     O312663   1.291   4.334  10.265 -0.2988 -0.1785  0.2605
  120OSM    HO312664   1.354   4.373  10.326 -1.2694  0.7414  0.6986
  120OSM    C4S12665   1.124   4.433  10.122 -0.5299  0.3176 -0.2934
  120OSM    H4S12666   1.015   4.431  10.138 -0.5601  0.2548 -0.4982
  120OSM    C5S12667   1.175   4.425   9.993  0.2479  0.3433 -0.0391
  120OSM    H5S12668   1.284   4.425   9.980  0.3055  0.2450  0.4455
  120OSM    C6S12669   1.096   4.407   9.868  0.8632  0.6272  0.6444
  120OSM    H6S12670   0.986   4.418   9.885  1.1402 -1.5376  4.1734
  120OSM    H6T12671   1.103   4.298   9.846  2.0766  1.1421 -1.6528
  120OSM    C7S12672   1.135   4.498   9.749  0.4043  0.8522 -0.3464
  120OSM    H7S12673   1.242   4.486   9.721  0.1864 -0.1774 -0.7871
  120OSM    H7T12674   1.117   4.605   9.770 -0.9168  0.3676  1.0639
  120OSM    C8S12675   1.059   4.458   9.623  0.6338 -0.4139  0.3851
  120OSM    H8S12676   0.952   4.489   9.619  1.1965  1.6773  0.8314
  120OSM    H8T12677   1.066   4.348   9.609  0.2634 -0.2148 -1.4903
  120OSM    C9S12678   1.124   4.511   9.492 -0.3563  0.1087 -0.9863
  120OSM    H9S12679   1.230   4.477   9.493 -0.9060 -1.6434 -0.5720
  120OSM    H9T12680   1.128   4.622   9.494  0.4720  0.0668  1.2569
  120OSM   C10S12681   1.053   4.461   9.372 -0.6634 -0.5695 -0.4247
  120OSM   H10S12682   0.951   4.504   9.385 -1.7138 -2.7562 -1.1752
  120OSM   H10T12683   1.047   4.350   9.375 -0.4863 -0.5419  1.4324
  120OSM   C11S12684   1.108   4.523   9.236  0.0937  0.0455  0.3684
  120OSM   H11S12685   1.217   4.504   9.234  0.2337  0.9459 -0.8446
  120OSM   H11T12686   1.078   4.630   9.231  4.3915  1.3689  1.0358
  120OSM   C12S12687   1.034   4.463   9.109 -0.9225  0.7404 -0.2561
  120OSM   H12S12688   0.927   4.457   9.139 -1.2389 -0.1256 -1.5179
  120OSM   H12T12689   1.075   4.360   9.109 -0.7213  0.8026  1.0585
  120OSM   C13S12690   1.066   4.551   8.990 -1.0344 -0.5999 -0.4093
  120OSM   H13S12691   1.175   4.553   8.968 -1.0312 -0.8014 -0.4100
  120OSM   H13T12692   1.038   4.651   9.030 -2.4404 -1.5099  0.9466
  120OSM   C14S12693   1.003   4.517   8.859  0.5115 -0.3473  0.7507
  120OSM   H14S12694   0.892   4.517   8.865  0.4098 -0.3102 -0.9670
  120OSM   H14T12695   1.037   4.415   8.831 -0.5703 -0.7981  1.0300
  120OSM   C15S12696   1.044   4.593   8.736  0.5953  0.0628 -0.6045
  120OSM   H15S12697   0.995   4.556   8.643  2.8045 -0.0017 -1.7654
  120OSM   H15T12698   1.152   4.569   8.727  0.9244  2.0695 -2.2061
  120OSM   C16S12699   1.029   4.744   8.750 -0.2134 -0.4165  0.6978
  120OSM   H16S12700   1.065   4.771   8.851 -0.4632  2.6756  0.0107
  120OSM   H16T12701   0.920   4.764   8.753 -0.3346 -1.0733  0.8015
  120OSM   C17S12702   1.109   4.829   8.646  0.5315 -0.3429 -0.0068
  120OSM   H17S12703   1.077   4.813   8.540  1.3513  2.4917 -0.7447
  120OSM   H17T12704   1.207   4.781   8.628 -0.1798 -1.4623 -1.0477
  120OSM   C18S12705   1.114   4.981   8.682 -0.0638 -0.4246 -0.6223
  120OSM   H18S12706   1.015   5.017   8.716  0.0265 -1.9036  1.2931
  120OSM   H18T12707   1.153   5.053   8.607 -0.1984  0.1256 -0.1592
  120OSM   H18U12708   1.179   4.988   8.771 -2.3722  2.2987  0.8941
  120OSM    C1F12709   1.240   4.824  10.241  0.1839  0.2219 -0.6986
  120OSM     OF12710   1.354   4.842  10.282  0.6341  0.1251 -0.5664
  120OSM    C2F12711   1.133   4.932  10.224  0.7923  0.6535  0.1363
  120OSM    H2F12712   1.121   4.984  10.322  2.5738  2.2683 -0.4927
  120OSM    H2G12713   1.042   4.872  10.202  1.4534  0.7311 -2.9349
  120OSM    C3F12714   1.158   5.034  10.110 -0.5481 -0.6292  0.2379
  120OSM    H3F12715   1.256   5.085  10.123  0.3897 -2.0177 -1.1256
  120OSM    H3G12716   1.082   5.114  10.103 -0.3793 -0.6757 -2.9953
  120OSM    C4F12717   1.157   4.959   9.967 -0.3140  0.1830 -0.0846
  120OSM    H4F12718   1.070   4.889   9.966 -1.2870  1.3445  1.1837
  120OSM    H4G12719   1.244   4.890   9.976 -2.3061 -2.1808  2.0411
  120OSM    C5F12720   1.184   5.040   9.849 -0.4422  0.8864 -0.0745
  120OSM    H5F12721   1.284   5.090   9.853 -0.2529  0.4165  3.1037
  120OSM    H5G12722   1.115   5.123   9.823  0.0423  0.5785 -2.4040
  120OSM    C6F12723   1.179   4.958   9.718 -0.1053  0.2950  0.2832
  120OSM    H6F12724   1.079   4.968   9.669 -0.9327 -0.7826  1.7206
  120OSM    H6G12725   1.181   4.852   9.751 -2.3050 -0.2054 -1.0102
  120OSM    C7F12726   1.281   4.993   9.617  0.1821 -0.5621 -0.0448
  120OSM    H7F12727   1.380   4.972   9.662 -0.4358 -0.0650  1.5517
  120OSM    H7G12728   1.260   5.101   9.603 -0.2096 -1.0714 -4.2174
  120OSM    C8F12729   1.254   4.946   9.473 -0.4470  0.5119 -0.1079
  120OSM    H8F12730   1.158   4.997   9.447 -0.0424  1.3546  0.0288
  120OSM    H8G12731   1.247   4.837   9.492  0.3774  0.9603  3.1459
  120OSM    C9F12732   1.369   4.993   9.382  0.0071 -0.4511 -0.1096
  120OSM    H9F12733   1.451   5.039   9.440 -2.8882  0.8714  3.0481
  120OSM   C10F12734   1.386   4.953   9.253 -0.1117 -0.1424 -0.8099
  120OSM   H10F12735   1.477   4.995   9.206  0.1951  0.0995 -0.0165
  120OSM   C11F12736   1.308   4.876   9.157 -0.0553  0.3708  0.4070
  120OSM   H11F12737   1.238   4.945   9.105 -1.1911 -1.5508 -0.6775
  120OSM   H11G12738   1.246   4.806   9.217  0.3998 -0.2656  0.1345
  120OSM   C12F12739   1.385   4.793   9.049  0.1713 -0.4205  1.1160
  120OSM   H12F12740   1.316   4.735   8.985  0.7351 -2.4753  2.3242
  120OSM   H12G12741   1.443   4.718   9.107 -0.8065 -1.6180  0.5762
  120OSM   C13F12742   1.468   4.882   8.959 -0.1678  1.0107 -0.2561
  120OSM   H13F12743   1.531   4.948   9.022  0.9835  1.1616 -1.5465
  120OSM   H13G12744   1.413   4.960   8.901 -0.0893 -0.2224 -2.0439
  120OSM   C14F12745   1.556   4.825   8.844  0.3686  0.3954 -0.3859
  120OSM   H14F12746   1.496   4.751   8.786 -1.4583 -0.6025  2.7089
  120OSM   H14G12747   1.649   4.790   8.894 -0.3184 -0.0624  0.5736
  120OSM   C15F12748   1.612   4.924   8.747  0.4265  0.0723  0.0580
  120OSM   H15F12749   1.662   5.001   8.809 -0.8828  0.8084  0.2214
  120OSM   H15G12750   1.534   4.975   8.686  1.4397  1.8875  0.2400
  120OSM   C16F12751   1.701   4.864   8.640 -0.1104  0.0447  0.0413
  120OSM   H16F12752   1.635   4.809   8.569 -1.9136  2.0389  0.1336
  120OSM   H16G12753   1.771   4.790   8.684 -1.4384 -2.3401 -1.7605
  120OSM   C17F12754   1.789   4.967   8.568  0.3000  0.3875 -0.3227
  120OSM   H17F12755   1.836   5.037   8.640 -2.5143 -1.2618  3.3559
  120OSM   H17G12756   1.723   5.028   8.503 -3.5074 -2.3395  0.7450
  120OSM   C18F12757   1.905   4.909   8.486  0.5228  0.8557 -0.1366
  120OSM   H18F12758   1.936   4.969   8.398  1.5551 -0.1962 -0.5074
  120OSM   H18G12759   1.874   4.806   8.457  0.7317  1.2971 -2.0015
  120OSM   H18H12760   1.997   4.901   8.548 -1.4815  0.9021  2.9074
  121OSM      N12761   0.039   1.348  11.234 -0.4717 -0.1607 -0.1072
  121OSM    C1512762   0.143   1.442  11.289 -0.6438  0.1670 -0.0285
  121OSM   H15A12763   0.238   1.415  11.246 -0.9794  3.1745 -2.8231
  121OSM   H15B12764   0.142   1.421  11.395 -2.2877  1.6339  0.2656
  121OSM   H15C12765   0.132   1.546  11.261  0.7028  0.7610  1.5409
  121OSM    C1412766   0.052   1.209  11.285  0.7209 -0.5022  0.2665
  121OSM   H14A12767   0.073   1.209  11.391 -3.0470  1.9607  1.1053
  121OSM   H14B12768   0.126   1.149  11.235  1.5403  1.0460 -0.3988
  121OSM   H14C12769  -0.037   1.150  11.268  0.5998  0.3406 -2.2571
  121OSM    C1312770  -0.090   1.393  11.284 -0.4692  0.0236  0.1014
  121OSM   H13A12771  -0.100   1.410  11.390  0.7574  0.0962  0.2047
  121OSM   H13B12772  -0.172   1.326  11.262 -0.2714  0.3120 -1.6260
  121OSM   H13C12773  -0.113   1.486  11.234 -2.7301 -0.7345 -0.3231
  121OSM    C1212774   0.027   1.358  11.084 -0.1654  0.7171 -0.0732
  121OSM   H12A12775   0.121   1.318  11.049  0.4752  2.1034  0.0364
  121OSM   H12B12776   0.020   1.463  11.062 -0.3231  0.3170 -2.0697
  121OSM    C1112777  -0.093   1.282  11.022 -0.6608 -0.6155  0.0539
  121OSM   H11A12778  -0.102   1.323  10.919 -1.4637  0.4779  0.5491
  121OSM   H11B12779  -0.183   1.302  11.084 -0.6362  0.9599 -0.3966
  121OSM      P12780  -0.183   1.041  10.953 -0.0775 -0.4456  0.0560
  121OSM    O1312781  -0.170   0.906  11.017  0.1970  0.4875  0.0761
  121OSM    O1412782  -0.315   1.103  10.956  0.2372 -0.5428 -0.0559
  121OSM    O1112783  -0.153   1.023  10.802 -0.0867  0.4491 -0.0881
  121OSM    O1212784  -0.072   1.141  11.015  0.2953 -0.3741  0.1778
  121OSM    C1S12785  -0.021   0.967  10.760  0.2161  0.6313 -0.4569
  121OSM    H1S12786  -0.022   0.859  10.783 -2.5277  0.8663  0.6204
  121OSM    H1T12787   0.063   1.006  10.822  1.8516 -1.0931 -1.5353
  121OSM     NF12788   0.134   0.917  10.577  0.1756  0.2004 -0.1360
  121OSM    HNF12789   0.218   0.970  10.571 -0.1206  0.7809  0.8501
  121OSM    C2S12790   0.014   0.991  10.609 -0.0095  0.3559  0.2680
  121OSM    H2S12791  -0.072   0.952  10.549  0.2738  1.0274 -0.5838
  121OSM    C3S12792   0.013   1.139  10.577 -0.8514  0.0670  1.4428
  121OSM    H3S12793   0.086   1.190  10.643  2.1440  2.9181 -3.7787
  121OSM     O312794  -0.114   1.204  10.579  0.0694  0.0586  0.0536
  121OSM    HO312795  -0.164   1.139  10.630  2.1442 -1.2811  0.4553
  121OSM    C4S12796   0.068   1.168  10.438  0.3156  0.1608  0.0633
  121OSM    H4S12797   0.016   1.128  10.350  1.4278  3.4558 -2.2314
  121OSM    C5S12798   0.166   1.254  10.410  0.3200 -0.5967  0.2019
  121OSM    H5S12799   0.215   1.310  10.490  1.7215  0.3475 -1.2850
  121OSM    C6S12800   0.228   1.285  10.274 -0.2753  0.1223 -0.0974
  121OSM    H6S12801   0.334   1.258  10.293 -0.9141 -3.1587 -1.0281
  121OSM    H6T12802   0.220   1.395  10.255  2.5369 -0.0784 -2.8189
  121OSM    C7S12803   0.170   1.214  10.148  0.4686  0.5048 -0.2738
  121OSM    H7S12804   0.060   1.226  10.153  0.4043  0.5999 -1.6922
  121OSM    H7T12805   0.178   1.103  10.141  1.4340  0.6424 -1.4789
  121OSM    C8S12806   0.216   1.281  10.018 -0.1283  0.5366  0.1995
  121OSM    H8S12807   0.320   1.251   9.993  0.9791  2.3789  2.4358
  121OSM    H8T12808   0.212   1.391  10.032 -0.8835  1.0741 -3.4806
  121OSM    C9S12809   0.131   1.255   9.888  0.6281 -0.7708  0.2274
  121OSM    H9S12810   0.030   1.283   9.926  0.0748  0.7152 -2.2531
  121OSM    H9T12811   0.124   1.147   9.863  0.1637 -0.6449 -0.1996
  121OSM   C10S12812   0.179   1.335   9.769 -0.1400  0.5354  0.3074
  121OSM   H10S12813   0.283   1.309   9.740 -0.9709  0.3064 -2.6164
  121OSM   H10T12814   0.165   1.442   9.796  0.7068  0.4661  1.0423
  121OSM   C11S12815   0.094   1.313   9.642 -0.6000 -0.7964 -0.0797
  121OSM   H11S12816  -0.007   1.356   9.658  1.1963  2.2009  4.3434
  121OSM   H11T12817   0.085   1.203   9.634 -1.1975 -0.6471 -1.7344
  121OSM   C12S12818   0.148   1.366   9.508 -0.2336 -0.3145 -0.0139
  121OSM   H12S12819   0.243   1.312   9.490 -0.7709 -2.4189  3.1154
  121OSM   H12T12820   0.153   1.477   9.520 -0.1908 -0.4155  0.9431
  121OSM   C13S12821   0.043   1.341   9.401  0.5924  0.6845 -0.5910
  121OSM   H13S12822   0.051   1.421   9.325 -2.4954  0.0359 -1.6331
  121OSM   H13T12823  -0.061   1.343   9.440  0.9464 -0.9468  0.5259
  121OSM   C14S12824   0.044   1.203   9.328  0.6616  0.0712 -0.1462
  121OSM   H14S12825  -0.003   1.125   9.392  2.3858  0.6672  1.8965
  121OSM   H14T12826   0.149   1.171   9.316  0.8889 -0.3193  2.5737
  121OSM   C15S12827  -0.030   1.213   9.196 -0.1730  0.1519 -0.6214
  121OSM   H15S12828  -0.052   1.320   9.178  0.7464  0.1449 -1.8191
  121OSM   H15T12829  -0.134   1.174   9.198 -0.1341  0.0608  1.0117
  121OSM   C16S12830   0.048   1.147   9.080 -0.2947 -0.0608 -0.9132
  121OSM   H16S12831   0.102   1.053   9.106  0.3165  0.4367 -0.3645
  121OSM   H16T12832   0.137   1.208   9.052 -0.0346 -0.6444 -1.3820
  121OSM   C17S12833  -0.030   1.121   8.957  0.2336 -0.0113 -0.0177
  121OSM   H17S12834  -0.076   1.211   8.911  2.3898 -0.1252 -2.5035
  121OSM   H17T12835  -0.113   1.051   8.981  1.4640 -1.8128 -0.8658
  121OSM   C18S12836   0.059   1.051   8.857 -0.1810  0.1364  0.6447
  121OSM   H18S12837   0.096   0.954   8.897  1.1494  1.3330  2.4177
  121OSM   H18T12838   0.156   1.099   8.835  0.5794 -2.1362 -1.1344
  121OSM   H18U12839   0.010   1.041   8.758  1.5725 -1.4711 -0.0943
  121OSM    C1F12840   0.142   0.789  10.570 -0.5736 -0.1267  0.5928
  121OSM     OF12841   0.039   0.723  10.594 -0.2882 -0.6827  0.0275
  121OSM    C2F12842   0.269   0.716  10.533  0.3676 -0.7841 -0.4078
  121OSM    H2F12843   0.299   0.635  10.603  2.1042 -0.2034 -0.4580
  121OSM    H2G12844   0.353   0.789  10.538 -1.2539  1.0126  2.6011
  121OSM    C3F12845   0.258   0.662  10.391 -0.4522 -0.0464  0.3782
  121OSM    H3F12846   0.191   0.574  10.391  0.4006 -0.7754 -2.3532
  121OSM    H3G12847   0.360   0.627  10.364 -0.2251  1.0181 -0.2088
  121OSM    C4F12848   0.209   0.758  10.274  0.5274  0.6734 -0.4376
  121OSM    H4F12849   0.271   0.726  10.188  0.2242  0.8138 -0.7080
  121OSM    H4G12850   0.222   0.860  10.316  0.5763  0.1218  0.9486
  121OSM    C5F12851   0.069   0.733  10.239  0.8125  0.7371  0.2803
  121OSM    H5F12852  -0.001   0.793  10.303  3.0337  1.7788  1.7938
  121OSM    H5G12853   0.038   0.628  10.255  3.6811 -0.1632  0.1125
  121OSM    C6F12854   0.033   0.778  10.095 -0.3359 -0.0480 -0.4295
  121OSM    H6F12855   0.026   0.889  10.088  0.2034 -0.0753 -1.6156
  121OSM    H6G12856  -0.074   0.749  10.085 -0.1519 -0.2452 -2.1220
  121OSM    C7F12857   0.137   0.734   9.989  0.5116  0.4813 -0.1013
  121OSM    H7F12858   0.134   0.623   9.976 -1.7344  0.8360 -3.4510
  121OSM    H7G12859   0.242   0.767   9.996  1.2313 -0.7393 -3.8931
  121OSM    C8F12860   0.116   0.809   9.856  0.1929 -0.1637 -0.6185
  121OSM    H8F12861   0.196   0.779   9.785 -2.0858 -1.9428 -2.4947
  121OSM    H8G12862   0.123   0.920   9.861 -0.2237 -0.1621  0.0250
  121OSM    C9F12863  -0.021   0.782   9.797  0.7847 -0.0099 -0.4189
  121OSM    H9F12864  -0.097   0.760   9.874  0.3790  2.8080  0.0641
  121OSM   C10F12865  -0.061   0.781   9.676 -0.5406 -0.4732  0.2119
  121OSM   H10F12866  -0.169   0.768   9.660 -0.6736  0.2287  0.5259
  121OSM   C11F12867   0.017   0.800   9.549  0.2080  0.8679  0.3157
  121OSM   H11F12868   0.122   0.830   9.571  0.1946 -0.9719  3.0737
  121OSM   H11G12869  -0.016   0.881   9.480 -0.2835  1.1615  0.8888
  121OSM   C12F12870   0.033   0.675   9.462 -0.7088  0.3038  0.6790
  121OSM   H12F12871  -0.058   0.661   9.400  0.6725 -0.5476 -1.2219
  121OSM   H12G12872   0.052   0.588   9.529  0.6558  0.9021  1.0796
  121OSM   C13F12873   0.158   0.690   9.364  0.0034 -0.2308  0.1158
  121OSM   H13F12874   0.176   0.590   9.318  0.4604  0.7523 -1.9245
  121OSM   H13G12875   0.249   0.708   9.425 -1.1975  0.2887  1.7832
  121OSM   C14F12876   0.143   0.808   9.261  0.9881  0.3689  0.4177
  121OSM   H14F12877   0.123   0.904   9.313  0.3453  1.2015 -1.3276
  121OSM   H14G12878   0.062   0.784   9.190  0.6536  0.9451  0.6039
  121OSM   C15F12879   0.268   0.819   9.180  0.0064 -0.4464 -0.1912
  121OSM   H15F12880   0.352   0.826   9.253  0.1999  0.2219 -0.4799
  121OSM   H15G12881   0.280   0.908   9.115 -1.2484 -1.5193 -1.9193
  121OSM   C16F12882   0.303   0.690   9.090 -0.1080  1.0577  0.1157
  121OSM   H16F12883   0.261   0.701   8.988  4.9202 -1.2402 -2.3994
  121OSM   H16G12884   0.260   0.596   9.129 -0.2584  1.1101  0.0758
  121OSM   C17F12885   0.456   0.665   9.067 -0.7398  0.5204  0.1769
  121OSM   H17F12886   0.502   0.621   9.158 -3.0831 -2.4655  0.0011
  121OSM   H17G12887   0.511   0.756   9.035 -0.8361 -0.0768 -1.7392
  121OSM   C18F12888   0.472   0.578   8.946 -0.2236 -0.1871 -0.1138
  121OSM   H18F12889   0.468   0.646   8.858 -0.4136  1.1023  0.8679
  121OSM   H18G12890   0.399   0.496   8.953  0.4061 -0.5670  2.8103
  121OSM   H18H12891   0.570   0.525   8.942  0.7436  1.3670  1.8678
  122OSM      N12892   0.298   5.329  10.628 -0.4367  0.7030 -0.0049
  122OSM    C1512893   0.384   5.276  10.510  0.2299  0.4295  0.2812
  122OSM   H15A12894   0.463   5.340  10.474 -0.6803  1.8706  0.8296
  122OSM   H15B12895   0.326   5.257  10.421  1.5637 -0.3239 -0.4416
  122OSM   H15C12896   0.426   5.178  10.528  0.2989  0.8581  2.7075
  122OSM    C1412897   0.182   5.235  10.648 -0.5740  0.3513 -0.0601
  122OSM   H14A12898   0.215   5.134  10.668 -1.4324  0.3800  1.6064
  122OSM   H14B12899   0.123   5.228  10.558  0.4027 -2.4393 -0.5387
  122OSM   H14C12900   0.121   5.262  10.733 -0.3061 -2.3134  1.0126
  122OSM    C1312901   0.393   5.321  10.751  0.1643 -0.0451  0.0858
  122OSM   H13A12902   0.415   5.217  10.772 -3.0205 -0.6450  0.6749
  122OSM   H13B12903   0.346   5.349  10.844  1.6450  1.0030  0.5273
  122OSM   H13C12904   0.480   5.383  10.732  0.2967  0.2996  1.7769
  122OSM    C1212905   0.256   5.472  10.597 -0.8465  0.0839  0.3201
  122OSM   H12A12906   0.231   5.528  10.686  0.7370  1.3725 -0.0114
  122OSM   H12B12907   0.166   5.476  10.537  0.9896  1.3025 -2.4724
  122OSM    C1112908   0.365   5.570  10.525 -0.2477  0.1931 -0.1123
  122OSM   H11A12909   0.307   5.665  10.519  0.0933  0.4397  0.4685
  122OSM   H11B12910   0.370   5.525  10.424  0.3261 -0.9542  0.4265
  122OSM      P12911   0.531   5.726  10.653  0.0853 -0.1424 -0.0104
  122OSM    O1312912   0.415   5.780  10.726  0.2206 -0.1400  0.0850
  122OSM    O1412913   0.655   5.709  10.736  0.2595 -0.5078 -0.1762
  122OSM    O1112914   0.556   5.816  10.529 -0.5147  0.6974 -0.5275
  122OSM    O1212915   0.489   5.585  10.588  0.2603  0.1470 -0.8062
  122OSM    C1S12916   0.658   5.786  10.433  0.4560 -0.0086 -0.4584
  122OSM    H1S12917   0.679   5.677  10.428 -3.0548 -0.7397 -0.4012
  122OSM    H1T12918   0.744   5.855  10.448 -0.1702  0.2326  2.1115
  122OSM     NF12919   0.704   5.767  10.191  0.4237  0.4302 -0.5692
  122OSM    HNF12920   0.776   5.825  10.154  3.1767 -2.1438  0.5167
  122OSM    C2S12921   0.610   5.822  10.282  0.1155 -0.2876  0.1475
  122OSM    H2S12922   0.508   5.781  10.272 -0.7420  2.0363 -0.9582
  122OSM    C3S12923   0.589   5.971  10.269  0.0385 -0.5427  0.0600
  122OSM    H3S12924   0.688   6.018  10.285 -0.3577  0.4657 -0.4239
  122OSM     O312925   0.501   6.018  10.377  0.3531  0.0597 -0.0399
  122OSM    HO312926   0.511   5.947  10.441 -0.5961  0.8183  0.9822
  122OSM    C4S12927   0.536   6.005  10.131  0.2322 -0.9732 -0.2971
  122OSM    H4S12928   0.596   5.957  10.053  3.1855  0.9769  0.6772
  122OSM    C5S12929   0.431   6.085  10.102 -0.1791 -0.5717  0.2465
  122OSM    H5S12930   0.391   6.152  10.179  1.2239  0.8760 -0.2504
  122OSM    C6S12931   0.378   6.114   9.963  1.0236 -0.2191  0.0079
  122OSM    H6S12932   0.317   6.206   9.954 -2.1291 -2.0760  1.3845
  122OSM    H6T12933   0.309   6.033   9.934  2.6449 -0.9660 -1.8921
  122OSM    C7S12934   0.483   6.105   9.855 -0.0744  0.4333 -0.2176
  122OSM    H7S12935   0.539   6.010   9.867 -1.7102 -0.4684  0.3596
  122OSM    H7T12936   0.549   6.195   9.865  0.6441  0.0917 -1.8155
  122OSM    C8S12937   0.434   6.111   9.707 -0.0853 -0.2263 -0.4338
  122OSM    H8S12938   0.354   6.037   9.688  0.5136 -0.8188 -0.6665
  122OSM    H8T12939   0.517   6.105   9.633  1.1223  2.4174  0.6542
  122OSM    C9S12940   0.371   6.245   9.678 -0.4614 -0.2664 -0.6134
  122OSM    H9S12941   0.443   6.329   9.690 -1.1524  0.4289 -1.3950
  122OSM    H9T12942   0.294   6.268   9.754  0.8817 -1.2439  1.0907
  122OSM   C10S12943   0.308   6.255   9.542 -0.6517 -0.5112 -0.6403
  122OSM   H10S12944   0.235   6.172   9.529  0.6605 -1.5954 -1.2726
  122OSM   H10T12945   0.385   6.238   9.464 -0.4761 -0.4551 -0.4811
  122OSM   C11S12946   0.246   6.392   9.532  0.2213 -0.3176  0.3644
  122OSM   H11S12947   0.322   6.472   9.536 -1.6706  1.5533 -0.1985
  122OSM   H11T12948   0.189   6.414   9.624 -0.2607  0.7948 -0.1946
  122OSM   C12S12949   0.165   6.415   9.402  0.2245  1.1635  0.4205
  122OSM   H12S12950   0.088   6.335   9.401  1.3232  0.0612  1.4895
  122OSM   H12T12951   0.227   6.388   9.314  1.8608  1.5605  1.4395
  122OSM   C13S12952   0.099   6.551   9.394  0.1847  0.8276  0.5675
  122OSM   H13S12953   0.172   6.634   9.407  0.2687  0.6177  1.4983
  122OSM   H13T12954   0.032   6.560   9.482 -0.2050 -0.1519  0.3737
  122OSM   C14S12955   0.021   6.570   9.265  0.6461  0.1556  0.1596
  122OSM   H14S12956  -0.045   6.659   9.278 -1.9986 -1.2696 -2.6039
  122OSM   H14T12957  -0.062   6.496   9.259  1.9628 -1.3295 -0.0488
  122OSM   C15S12958   0.107   6.580   9.135 -0.4063 -0.5266  0.5802
  122OSM   H15S12959   0.170   6.490   9.122 -1.1506 -0.7878 -1.3731
  122OSM   H15T12960   0.163   6.676   9.145 -1.3033 -0.0536  1.1427
  122OSM   C16S12961   0.027   6.582   9.001  0.2253 -0.0516 -0.0969
  122OSM   H16S12962  -0.058   6.652   9.015  0.8859  1.2463 -2.3377
  122OSM   H16T12963  -0.025   6.486   8.981 -0.8186  0.2011  1.3435
  122OSM   C17S12964   0.084   6.635   8.874 -0.0730  0.0849 -0.0744
  122OSM   H17S12965   0.121   6.739   8.888  2.2379 -0.6988 -0.1654
  122OSM   H17T12966  -0.002   6.648   8.804 -0.0151  0.9462  0.0115
  122OSM   C18S12967   0.191   6.557   8.803 -0.4369  0.4663 -0.0718
  122OSM   H18S12968   0.156   6.453   8.785  2.7947 -1.1546  2.5523
  122OSM   H18T12969   0.283   6.556   8.865 -0.9888  0.1843  0.7556
  122OSM   H18U12970   0.209   6.601   8.702  0.9600  0.4981  0.1853
  122OSM    C1F12971   0.695   5.634  10.165 -0.1663 -0.1301  0.2128
  122OSM     OF12972   0.614   5.552  10.221  0.1987 -0.2591 -0.4538
  122OSM    C2F12973   0.773   5.583  10.053  0.2753 -0.7925  0.3780
  122OSM    H2F12974   0.881   5.608  10.067  0.1256  0.5395 -0.7705
  122OSM    H2G12975   0.743   5.647   9.967  2.8086 -1.3280 -0.9480
  122OSM    C3F12976   0.752   5.431  10.025 -0.6308 -0.9297 -0.2794
  122OSM    H3F12977   0.647   5.405  10.002 -1.1094  0.1341  0.6368
  122OSM    H3G12978   0.781   5.375  10.116 -1.3000  1.6468  1.5712
  122OSM    C4F12979   0.821   5.398   9.897 -0.1575  0.5751  0.3063
  122OSM    H4F12980   0.926   5.431   9.878  0.0839 -1.0162 -1.3004
  122OSM    H4G12981   0.761   5.435   9.811 -0.0542 -2.0275 -0.9255
  122OSM    C5F12982   0.835   5.247   9.866  0.0937 -0.3654 -0.7890
  122OSM    H5F12983   0.888   5.199   9.951  2.8516 -1.0544 -2.8072
  122OSM    H5G12984   0.895   5.231   9.774  1.6957  0.5610  0.0633
  122OSM    C6F12985   0.702   5.180   9.844  0.4198  0.5288  0.0266
  122OSM    H6F12986   0.636   5.233   9.772  0.3768  0.3917 -0.0367
  122OSM    H6G12987   0.642   5.171   9.937 -3.5031  0.0449 -2.4202
  122OSM    C7F12988   0.712   5.039   9.783 -0.1959 -0.5146 -0.0736
  122OSM    H7F12989   0.786   4.970   9.827 -0.8293 -2.2021 -1.5940
  122OSM    H7G12990   0.750   5.063   9.681 -1.2181  3.4817  0.4022
  122OSM    C8F12991   0.574   4.971   9.764 -0.0189  0.9598  0.3560
  122OSM    H8F12992   0.522   5.042   9.697 -1.6295  0.0003  0.5672
  122OSM    H8G12993   0.510   4.977   9.855  0.1387  1.8225  0.4139
  122OSM    C9F12994   0.578   4.833   9.699 -0.1618 -0.4188 -0.3182
  122OSM    H9F12995   0.557   4.749   9.767  0.4792  0.5966  1.1494
  122OSM   C10F12996   0.603   4.803   9.569 -1.0225  0.5297  0.6323
  122OSM   H10F12997   0.595   4.697   9.542 -2.0820  1.0036 -0.9906
  122OSM   C11F12998   0.643   4.905   9.460  0.1789  0.5296  0.3536
  122OSM   H11F12999   0.613   5.010   9.480 -0.1519  0.1946  1.6628
  122OSM   H11G13000   0.583   4.870   9.373 -0.5283  1.4167  0.4780
  122OSM   C12F13001   0.793   4.897   9.423 -0.0999  0.2866 -0.0254
  122OSM   H12F13002   0.851   4.936   9.510  1.1480 -1.3632 -0.1019
  122OSM   H12G13003   0.815   4.971   9.343  0.2245 -1.3100 -1.4366
  122OSM   C13F13004   0.842   4.761   9.365  0.9546 -0.1873  0.4759
  122OSM   H13F13005   0.811   4.684   9.440 -3.7165 -0.4287 -1.5421
  122OSM   H13G13006   0.953   4.763   9.369  0.9452 -0.6325  1.1628
  122OSM   C14F13007   0.786   4.738   9.216 -0.1082  0.6583 -0.3266
  122OSM   H14F13008   0.677   4.736   9.236  0.1741  1.3221  1.3578
  122OSM   H14G13009   0.816   4.639   9.176  1.0216  1.1730 -0.7664
  122OSM   C15F13010   0.825   4.844   9.116 -0.3783 -0.3531  0.3044
  122OSM   H15F13011   0.934   4.856   9.095 -0.2595 -0.6241  0.7674
  122OSM   H15G13012   0.785   4.944   9.142 -0.2749  0.4843 -2.6567
  122OSM   C16F13013   0.767   4.808   8.978  0.1248  0.0915 -0.3850
  122OSM   H16F13014   0.814   4.719   8.930  1.5558  0.6749 -0.1050
  122OSM   H16G13015   0.794   4.887   8.905 -2.5334 -0.8907 -2.5070
  122OSM   C17F13016   0.612   4.813   8.983  0.4161 -0.6384  0.1293
  122OSM   H17F13017   0.581   4.907   9.034 -0.3261 -0.8029 -0.0161
  122OSM   H17G13018   0.556   4.735   9.038 -2.0288  3.1559  3.3416
  122OSM   C18F13019   0.543   4.821   8.843  0.3740  0.0928  0.1665
  122OSM   H18F13020   0.434   4.804   8.846  0.4272 -0.4878 -1.2181
  122OSM   H18G13021   0.593   4.739   8.786 -1.2405  0.6554 -2.1063
  122OSM   H18H13022   0.566   4.921   8.801 -0.1885  0.4342  0.6754
  123OSM      N13023   5.896   4.376   5.755  0.9998  0.3163 -0.6774
  123OSM    C1513024   6.027   4.304   5.724 -0.1898 -0.1961 -0.2028
  123OSM   H15A13025   6.025   4.198   5.743  1.0510 -0.4633 -1.4811
  123OSM   H15B13026   6.119   4.349   5.761 -0.2763 -0.1532 -0.0349
  123OSM   H15C13027   6.038   4.303   5.617  1.8438  0.4157 -0.0183
  123OSM    C1413028   5.912   4.524   5.730  0.8521 -0.2757  0.2580
  123OSM   H14A13029   5.989   4.573   5.789  1.9223 -0.4298 -1.0099
  123OSM   H14B13030   5.816   4.574   5.736  0.7388 -0.5377  0.6616
  123OSM   H14C13031   5.931   4.543   5.626  0.1322  0.1483  0.2006
  123OSM    C1313032   5.796   4.314   5.656  0.0757  0.4490 -0.0527
  123OSM   H13A13033   5.815   4.350   5.556  2.2004  0.6667  0.3870
  123OSM   H13B13034   5.697   4.348   5.680 -1.3057 -2.3116 -1.6730
  123OSM   H13C13035   5.801   4.206   5.655 -0.7056  0.4151 -0.2589
  123OSM    C1213036   5.849   4.356   5.898  0.6778  0.2037 -0.6000
  123OSM   H12A13037   5.921   4.385   5.973  0.3012  0.3092 -0.2783
  123OSM   H12B13038   5.840   4.250   5.919 -0.7167 -0.0290 -2.2299
  123OSM    C1113039   5.712   4.410   5.951  0.2753  0.7062 -0.5393
  123OSM   H11A13040   5.721   4.513   5.992  0.8584  0.1615  0.7181
  123OSM   H11B13041   5.689   4.354   6.044  0.1229  0.7054 -0.5755
  123OSM      P13042   5.491   4.293   5.853 -0.1551 -0.4268 -0.0540
  123OSM    O1313043   5.384   4.349   5.768 -0.4728  0.3380 -0.5922
  123OSM    O1413044   5.542   4.165   5.813  0.2614  0.1534  0.4056
  123OSM    O1113045   5.439   4.285   5.996 -0.2983  0.1946 -0.3068
  123OSM    O1213046   5.609   4.405   5.855 -0.5760 -0.4742 -0.3155
  123OSM    C1S13047   5.380   4.391   6.073  0.1008 -0.5026 -0.1059
  123OSM    H1S13048   5.296   4.430   6.012  0.7731  0.3146 -0.5180
  123OSM    H1T13049   5.448   4.477   6.089 -0.1834 -0.8161  3.0435
  123OSM     NF13050   5.262   4.456   6.284 -0.0444  0.0915  0.4002
  123OSM    HNF13051   5.315   4.492   6.360  1.0201 -0.0603 -0.2591
  123OSM    C2S13052   5.327   4.345   6.213 -0.1937 -0.2198  0.6825
  123OSM    H2S13053   5.252   4.265   6.197 -2.1025  1.6161  0.2478
  123OSM    C3S13054   5.446   4.284   6.297 -0.4383  0.3022  0.5272
  123OSM    H3S13055   5.513   4.368   6.325 -0.5597  1.2882 -2.0294
  123OSM     O313056   5.521   4.186   6.223 -0.0684  0.0832 -0.1299
  123OSM    HO313057   5.503   4.218   6.135 -1.3825 -0.8845 -0.2229
  123OSM    C4S13058   5.380   4.222   6.414 -0.3359 -0.4308  0.9144
  123OSM    H4S13059   5.349   4.121   6.385 -0.2825 -0.4330  0.8651
  123OSM    C5S13060   5.373   4.275   6.539 -0.0728  0.1507 -0.0423
  123OSM    H5S13061   5.411   4.376   6.559 -1.5449  1.0062 -1.4171
  123OSM    C6S13062   5.310   4.213   6.658 -0.4562 -0.1651 -0.5327
  123OSM    H6S13063   5.254   4.120   6.635  0.3359 -0.5707 -0.8142
  123OSM    H6T13064   5.240   4.287   6.703  0.6013  0.5350 -0.0479
  123OSM    C7S13065   5.429   4.178   6.755  0.2452 -0.0576 -0.9162
  123OSM    H7S13066   5.490   4.271   6.755  0.1322  0.0167 -0.8021
  123OSM    H7T13067   5.477   4.093   6.702 -1.9136 -1.1057 -1.2568
  123OSM    C8S13068   5.384   4.115   6.895  0.0424  0.6358  0.3729
  123OSM    H8S13069   5.313   4.031   6.878  0.0324  0.5374  0.8666
  123OSM    H8T13070   5.338   4.198   6.953  0.1955 -0.2332  1.7566
  123OSM    C9S13071   5.504   4.066   6.975 -0.3283 -0.1750  0.2452
  123OSM    H9S13072   5.591   4.134   6.968 -0.6401  0.2489  0.4451
  123OSM    H9T13073   5.527   3.967   6.931 -0.6151 -0.6330  1.1115
  123OSM   C10S13074   5.463   4.057   7.119 -0.5589  0.5649 -0.8695
  123OSM   H10S13075   5.387   3.977   7.129  0.6349 -0.4194  0.4104
  123OSM   H10T13076   5.424   4.153   7.160  3.2953  1.3309  1.2404
  123OSM   C11S13077   5.587   4.025   7.209  0.4488  0.4807 -0.4318
  123OSM   H11S13078   5.661   4.109   7.207  2.7610 -1.5095 -2.0474
  123OSM   H11T13079   5.632   3.924   7.197 -0.8763 -0.0717 -0.8439
  123OSM   C12S13080   5.541   4.011   7.360 -0.2976  0.6632  0.0551
  123OSM   H12S13081   5.479   3.919   7.372 -3.8686  2.9111 -0.3954
  123OSM   H12T13082   5.467   4.090   7.386 -0.9314  0.1935 -0.2963
  123OSM   C13S13083   5.662   3.992   7.459  0.0896  0.6312  0.2524
  123OSM   H13S13084   5.728   4.080   7.473 -0.6533  1.2447 -0.0497
  123OSM   H13T13085   5.730   3.917   7.411  1.1185  1.5059  0.3282
  123OSM   C14S13086   5.628   3.933   7.600  0.6748  0.3957  0.1679
  123OSM   H14S13087   5.719   3.932   7.663  1.8247  2.6596 -1.3611
  123OSM   H14T13088   5.593   3.828   7.593  0.3770  0.6032 -1.8532
  123OSM   C15S13089   5.541   4.032   7.676 -0.6411 -0.4406  0.5204
  123OSM   H15S13090   5.447   4.051   7.621  0.6485  0.1812 -1.5478
  123OSM   H15T13091   5.595   4.129   7.674 -3.3638  1.0852 -1.0249
  123OSM   C16S13092   5.498   4.001   7.822 -0.7745 -0.0546 -0.5818
  123OSM   H16S13093   5.476   3.894   7.843  2.1421 -0.3659  1.2583
  123OSM   H16T13094   5.406   4.062   7.830  0.4071  1.3856  3.0573
  123OSM   C17S13095   5.597   4.047   7.927 -0.3201  0.2740 -0.4031
  123OSM   H17S13096   5.643   4.145   7.904  1.3397 -0.4160 -0.0857
  123OSM   H17T13097   5.682   3.975   7.919 -0.9704 -0.4363 -0.9776
  123OSM   C18S13098   5.548   4.072   8.068 -0.7511  0.3855 -0.5562
  123OSM   H18S13099   5.635   4.073   8.137 -1.2883 -1.0909  0.1619
  123OSM   H18T13100   5.474   3.993   8.094  0.7318 -0.4859  1.1215
  123OSM   H18U13101   5.489   4.165   8.078 -1.0836  0.2043 -0.8410
  123OSM    C1F13102   5.151   4.511   6.233 -0.2124  0.4440 -0.1535
  123OSM     OF13103   5.094   4.463   6.135 -0.4628  0.0074 -0.0819
  123OSM    C2F13104   5.100   4.634   6.294  0.3995 -0.1009 -0.4896
  123OSM    H2F13105   5.071   4.688   6.201 -1.4472 -1.0975 -0.5177
  123OSM    H2G13106   5.176   4.673   6.365  0.1053 -0.0717 -0.1933
  123OSM    C3F13107   4.965   4.595   6.359 -0.7480 -0.4354  0.4153
  123OSM    H3F13108   4.893   4.556   6.284  0.5000 -0.1651 -0.9546
  123OSM    H3G13109   4.927   4.694   6.393 -0.2377  0.8879 -2.6971
  123OSM    C4F13110   4.971   4.505   6.476 -0.1799 -0.2982 -0.1938
  123OSM    H4F13111   5.040   4.535   6.558  0.2401 -1.2606 -0.1920
  123OSM    H4G13112   5.008   4.404   6.449  0.1168 -0.5265  1.0276
  123OSM    C5F13113   4.835   4.479   6.554  0.2819  0.2078  0.2880
  123OSM    H5F13114   4.769   4.423   6.484 -1.6111  0.5013  1.8161
  123OSM    H5G13115   4.798   4.581   6.577 -2.1615 -0.2280 -1.5605
  123OSM    C6F13116   4.857   4.405   6.680  0.2917  0.0595 -0.6610
  123OSM    H6F13117   4.752   4.382   6.710  0.4265 -2.4546 -1.9669
  123OSM    H6G13118   4.918   4.465   6.751  0.2348  0.6422 -1.1110
  123OSM    C7F13119   4.910   4.260   6.672 -0.2545 -0.1984  0.8568
  123OSM    H7F13120   5.020   4.266   6.659 -0.6605  0.9843 -2.1875
  123OSM    H7G13121   4.871   4.197   6.590 -1.2391 -0.7196  1.7056
  123OSM    C8F13122   4.889   4.180   6.799 -0.1711 -0.3496  0.3914
  123OSM    H8F13123   4.952   4.088   6.800  1.1531  0.5234  3.7596
  123OSM    H8G13124   4.788   4.134   6.790  0.1550 -0.7195 -1.6870
  123OSM    C9F13125   4.912   4.255   6.928 -0.8262 -0.0266  0.0216
  123OSM    H9F13126   4.871   4.356   6.940 -2.3366 -0.4136 -1.7429
  123OSM   C10F13127   4.985   4.208   7.031 -0.2062  0.5212  0.4132
  123OSM   H10F13128   4.997   4.276   7.117 -1.2697 -0.3303  1.2393
  123OSM   C11F13129   5.054   4.072   7.055 -0.4273  0.4420 -0.6555
  123OSM   H11F13130   5.163   4.087   7.037 -0.3820  0.3274 -0.4642
  123OSM   H11G13131   5.007   4.000   6.984  0.1399 -0.4921 -0.0846
  123OSM   C12F13132   5.022   4.021   7.198  0.0117  0.4119 -0.8603
  123OSM   H12F13133   5.061   3.920   7.222 -2.5716 -0.6005 -0.7932
  123OSM   H12G13134   4.912   4.008   7.205 -0.0162  1.5043  1.0241
  123OSM   C13F13135   5.077   4.113   7.311 -0.6051 -0.0294  0.0232
  123OSM   H13F13136   5.015   4.205   7.312 -0.6531 -0.0697  0.7539
  123OSM   H13G13137   5.183   4.143   7.292 -0.2690 -2.4293 -2.1390
  123OSM   C14F13138   5.067   4.048   7.452 -1.4061 -0.7736  0.3998
  123OSM   H14F13139   5.129   3.958   7.474  1.0586  1.0177  0.9983
  123OSM   H14G13140   4.963   4.010   7.466 -1.3819 -0.8617  0.3380
  123OSM   C15F13141   5.118   4.146   7.556  0.4066 -0.3285 -0.1076
  123OSM   H15F13142   5.215   4.190   7.522  0.2791  0.9801  1.1808
  123OSM   H15G13143   5.151   4.095   7.649  0.4621 -1.7568 -0.9000
  123OSM   C16F13144   5.013   4.249   7.599 -0.0791  1.3372  0.4004
  123OSM   H16F13145   4.934   4.196   7.656  1.1725  0.4525  1.3221
  123OSM   H16G13146   4.956   4.294   7.515 -2.1286 -0.2440  0.9133
  123OSM   C17F13147   5.062   4.361   7.686 -0.0045  0.3401 -0.1096
  123OSM   H17F13148   5.005   4.452   7.659 -0.2239  0.8943  2.1064
  123OSM   H17G13149   5.167   4.383   7.656  0.5393 -3.5921 -1.3483
  123OSM   C18F13150   5.047   4.331   7.842 -0.4109 -0.3148 -0.1606
  123OSM   H18F13151   5.130   4.264   7.873 -0.6053 -1.0642 -1.2545
  123OSM   H18G13152   4.948   4.295   7.878  0.7170 -2.6162  0.7795
  123OSM   H18H13153   5.054   4.431   7.890 -0.5332 -0.4953  0.2395
  124OSM      N13154   2.054   2.111   6.069 -0.2450 -0.2303  0.1690
  124OSM    C1513155   2.026   2.243   6.014  0.4173  0.8587  0.4103
  124OSM   H15A13156   2.102   2.271   5.944  2.3415 -0.4110  1.9497
  124OSM   H15B13157   2.029   2.314   6.096 -0.5741  0.3749  0.8837
  124OSM   H15C13158   1.925   2.252   5.977  0.3605 -0.5054  0.2012
  124OSM    C1413159   2.027   1.995   5.971 -0.1915  0.2774 -0.4219
  124OSM   H14A13160   2.059   1.904   6.018  1.3042  0.0181 -1.8853
  124OSM   H14B13161   2.074   2.000   5.874 -0.2798  0.6425 -0.4473
  124OSM   H14C13162   1.921   1.994   5.948  0.1894  1.3287 -2.3642
  124OSM    C1313163   2.196   2.109   6.110 -0.0144  0.2780 -1.1092
  124OSM   H13A13164   2.272   2.130   6.037  0.3778  0.7068 -0.5809
  124OSM   H13B13165   2.223   2.013   6.152  3.5468  1.6897 -0.0172
  124OSM   H13C13166   2.227   2.185   6.180 -1.0852  0.2447 -0.5761
  124OSM    C1213167   1.963   2.069   6.188 -0.1685 -0.3681  0.2194
  124OSM   H12A13168   2.002   1.975   6.224  0.0827 -1.5324 -2.9563
  124OSM   H12B13169   1.862   2.056   6.151 -0.7020 -0.0096  1.5177
  124OSM    C1113170   1.958   2.164   6.315 -0.2762  0.0824 -0.1046
  124OSM   H11A13171   2.060   2.158   6.359 -0.2372 -1.0903 -0.3440
  124OSM   H11B13172   1.891   2.116   6.389  0.4225  1.3264  1.3682
  124OSM      P13173   1.760   2.338   6.268 -0.1911  0.3833 -0.4587
  124OSM    O1313174   1.762   2.478   6.203  0.0065  0.6993 -0.3458
  124OSM    O1413175   1.699   2.226   6.194 -0.0505  0.0059  0.0729
  124OSM    O1113176   1.693   2.355   6.411 -0.5385  0.0990  0.1661
  124OSM    O1213177   1.916   2.303   6.297  0.5416  0.3245  0.2486
  124OSM    C1S13178   1.771   2.351   6.528  0.6096 -0.1196 -0.8295
  124OSM    H1S13179   1.870   2.400   6.520  0.4232  0.3187 -0.4603
  124OSM    H1T13180   1.785   2.245   6.561 -0.8039  0.0688  0.4402
  124OSM     NF13181   1.776   2.455   6.765 -0.2669 -1.0144 -0.0588
  124OSM    HNF13182   1.729   2.443   6.852 -1.5094  1.4405 -0.3503
  124OSM    C2S13183   1.696   2.430   6.642 -0.7799 -0.7776  0.1940
  124OSM    H2S13184   1.672   2.533   6.608  0.5525 -0.4810  0.1397
  124OSM    C3S13185   1.566   2.366   6.665 -0.5802  0.2763  0.5187
  124OSM    H3S13186   1.596   2.271   6.715  0.5446  0.5886  0.4487
  124OSM     O313187   1.493   2.337   6.547  0.3281  0.4938  0.0726
  124OSM    HO313188   1.563   2.324   6.483 -0.8210 -0.1647 -1.0497
  124OSM    C4S13189   1.483   2.440   6.758 -1.3427 -1.2362  0.4307
  124OSM    H4S13190   1.512   2.418   6.862 -0.8313 -3.6766 -0.1996
  124OSM    C5S13191   1.378   2.521   6.733  0.1574  0.2885 -0.0774
  124OSM    H5S13192   1.341   2.533   6.629 -0.4421 -0.1835  0.0771
  124OSM    C6S13193   1.296   2.588   6.843 -0.0319 -0.0572 -0.7483
  124OSM    H6S13194   1.192   2.550   6.839  0.0818 -0.3694 -0.7378
  124OSM    H6T13195   1.284   2.696   6.819 -2.1148 -0.3407 -1.0671
  124OSM    C7S13196   1.350   2.579   6.988 -0.6009  0.2716 -0.2046
  124OSM    H7S13197   1.452   2.622   6.987 -0.4453 -0.1021 -1.8966
  124OSM    H7T13198   1.359   2.474   7.024  0.8049  0.9711  1.5287
  124OSM    C8S13199   1.266   2.657   7.089 -0.2613  0.1067  0.0238
  124OSM    H8S13200   1.158   2.642   7.068 -0.0822 -2.2645  0.6484
  124OSM    H8T13201   1.294   2.763   7.076 -3.0071  0.6588 -1.8727
  124OSM    C9S13202   1.287   2.617   7.230  0.1691  0.5895  0.0218
  124OSM    H9S13203   1.396   2.621   7.254  0.7254 -1.3179 -1.9819
  124OSM    H9T13204   1.254   2.512   7.244 -0.1934  0.6666 -0.2633
  124OSM   C10S13205   1.201   2.703   7.330 -0.1994 -0.2349 -0.7382
  124OSM   H10S13206   1.092   2.681   7.330  0.0796 -1.6977  0.8433
  124OSM   H10T13207   1.207   2.807   7.290  0.6219  0.3981  0.9777
  124OSM   C11S13208   1.257   2.700   7.469 -0.4733  0.7121 -0.0672
  124OSM   H11S13209   1.187   2.747   7.542  1.3290  2.9216  0.2913
  124OSM   H11T13210   1.350   2.760   7.475 -0.1899  0.1065  2.0386
  124OSM   C12S13211   1.263   2.552   7.522  0.3609 -0.1633 -0.0583
  124OSM   H12S13212   1.350   2.497   7.479 -0.7451 -0.7323 -1.6039
  124OSM   H12T13213   1.174   2.491   7.496  1.1972 -0.8720 -1.2947
  124OSM   C13S13214   1.276   2.531   7.671 -0.3727 -0.2434 -0.7677
  124OSM   H13S13215   1.201   2.599   7.718  0.6279  0.9587 -0.8764
  124OSM   H13T13216   1.375   2.572   7.702 -0.5908 -1.4382  1.6285
  124OSM   C14S13217   1.268   2.384   7.712  0.6590 -0.2277 -0.1164
  124OSM   H14S13218   1.365   2.331   7.699  2.5855  3.0104  0.3634
  124OSM   H14T13219   1.195   2.329   7.649 -1.1087  0.0709  1.6429
  124OSM   C15S13220   1.218   2.357   7.859 -0.3353  0.2538  0.4816
  124OSM   H15S13221   1.139   2.429   7.889 -0.3873  0.5506 -0.3696
  124OSM   H15T13222   1.311   2.368   7.918 -1.4206  0.5157  2.1939
  124OSM   C16S13223   1.172   2.212   7.875 -0.0809 -0.8652 -0.6211
  124OSM   H16S13224   1.244   2.151   7.817  1.6805  1.4761 -0.9846
  124OSM   H16T13225   1.071   2.203   7.829  1.2111 -2.3037 -3.2641
  124OSM   C17S13226   1.166   2.181   8.025 -0.4393  0.3331 -1.0026
  124OSM   H17S13227   1.081   2.239   8.067  1.9659  2.6819  0.7178
  124OSM   H17T13228   1.260   2.231   8.056 -0.6060  0.5013 -0.7726
  124OSM   C18S13229   1.165   2.028   8.049  0.5147  0.0521  0.0581
  124OSM   H18S13230   1.073   1.981   8.010 -1.9082  2.9174  2.1329
  124OSM   H18T13231   1.159   2.019   8.160 -1.8451 -1.4173 -0.1536
  124OSM   H18U13232   1.258   1.978   8.015  0.3891 -0.2086  0.0937
  124OSM    C1F13233   1.892   2.529   6.753  0.3996  0.3399  0.4513
  124OSM     OF13234   1.917   2.583   6.646 -0.5115 -0.5180  0.4276
  124OSM    C2F13235   1.966   2.556   6.880 -0.3432 -0.5319  0.1897
  124OSM    H2F13236   1.956   2.456   6.925 -0.2738  0.3624  2.2613
  124OSM    H2G13237   1.910   2.636   6.933 -1.0270 -0.7389 -0.2185
  124OSM    C3F13238   2.118   2.583   6.860  0.2835 -0.2089 -0.4104
  124OSM    H3F13239   2.141   2.677   6.806  0.3234  1.3764  2.2808
  124OSM    H3G13240   2.163   2.494   6.810 -2.6333 -1.0240 -1.6564
  124OSM    C4F13241   2.171   2.610   7.002  0.6674 -1.1940  0.3528
  124OSM    H4F13242   2.107   2.681   7.059 -0.3174  0.3449 -2.5542
  124OSM    H4G13243   2.271   2.657   6.989 -1.0372  2.4726 -0.1456
  124OSM    C5F13244   2.193   2.481   7.087 -0.1680 -0.7290 -0.2163
  124OSM    H5F13245   2.275   2.420   7.043  1.0493 -0.0924  1.1313
  124OSM    H5G13246   2.100   2.420   7.079  0.1900 -1.3798  0.5056
  124OSM    C6F13247   2.239   2.497   7.229 -0.0048  0.8034 -0.5812
  124OSM    H6F13248   2.181   2.572   7.287  0.4722 -0.2646  1.3348
  124OSM    H6G13249   2.345   2.532   7.233  0.5276 -0.8862  0.4480
  124OSM    C7F13250   2.223   2.359   7.311  0.3937 -0.4183 -0.7165
  124OSM    H7F13251   2.296   2.288   7.267  0.7610  0.5024 -1.6380
  124OSM    H7G13252   2.117   2.327   7.301  0.5254 -1.0616 -0.0230
  124OSM    C8F13253   2.254   2.376   7.462  0.2067 -0.6248  0.1509
  124OSM    H8F13254   2.248   2.272   7.500  0.0265  0.3177  2.7908
  124OSM    H8G13255   2.167   2.433   7.500 -0.0829 -2.2875  2.1115
  124OSM    C9F13256   2.381   2.443   7.512 -0.2926 -0.1224 -0.5360
  124OSM    H9F13257   2.463   2.417   7.443  0.7947 -1.1167  1.0940
  124OSM   C10F13258   2.411   2.526   7.611 -0.4787 -0.2788 -0.3040
  124OSM   H10F13259   2.518   2.549   7.624 -0.9640  1.2371  1.3394
  124OSM   C11F13260   2.307   2.587   7.701 -0.0734  0.4812  0.7325
  124OSM   H11F13261   2.206   2.546   7.682  0.8862 -2.3938  1.5463
  124OSM   H11G13262   2.309   2.696   7.679  2.2200  0.3623  0.1946
  124OSM   C12F13263   2.328   2.551   7.850 -0.2469  0.4308  1.1836
  124OSM   H12F13264   2.233   2.581   7.900 -1.1851 -0.6355  0.0991
  124OSM   H12G13265   2.414   2.600   7.899  0.0025  1.6424 -0.4340
  124OSM   C13F13266   2.334   2.404   7.888  0.6101 -0.0973  0.6368
  124OSM   H13F13267   2.418   2.360   7.830 -0.0367  1.3897 -1.4657
  124OSM   H13G13268   2.238   2.354   7.862 -0.1530 -0.5605  4.0970
  124OSM   C14F13269   2.346   2.391   8.041 -0.0226  0.2539 -0.0450
  124OSM   H14F13270   2.250   2.425   8.086 -1.7351 -1.6831 -2.0450
  124OSM   H14G13271   2.436   2.437   8.086  1.1490 -2.4369  0.4120
  124OSM   C15F13272   2.363   2.246   8.081  0.6246 -0.6036  0.5514
  124OSM   H15F13273   2.465   2.207   8.057  0.2640 -0.9936 -0.3954
  124OSM   H15G13274   2.285   2.183   8.033  1.2899 -0.4139 -0.8271
  124OSM   C16F13275   2.376   2.239   8.239 -0.3477  0.0556 -0.2330
  124OSM   H16F13276   2.280   2.274   8.283 -0.6475 -1.0985  0.0523
  124OSM   H16G13277   2.452   2.308   8.280 -1.9540  1.9112 -0.2949
  124OSM   C17F13278   2.408   2.104   8.307  0.7936  1.3416 -0.8093
  124OSM   H17F13279   2.494   2.051   8.260 -0.2685 -1.0434 -0.1501
  124OSM   H17G13280   2.324   2.036   8.280  2.7263 -0.3785 -2.6820
  124OSM   C18F13281   2.439   2.132   8.454 -0.2620  0.4362  0.0291
  124OSM   H18F13282   2.347   2.184   8.489 -0.0170 -0.3282  1.8242
  124OSM   H18G13283   2.519   2.209   8.461 -1.5778  1.7839  0.4751
  124OSM   H18H13284   2.458   2.044   8.519 -0.1907  0.3073 -0.1658
  125OSM      N13285   0.738   3.017   5.900  0.5869  0.0679  0.1411
  125OSM    C1513286   0.700   2.870   5.888 -0.3137 -0.4035  0.2129
  125OSM   H15A13287   0.759   2.796   5.940 -1.4215  0.1765  2.3730
  125OSM   H15B13288   0.674   2.847   5.786  1.4954 -0.7784 -0.1685
  125OSM   H15C13289   0.611   2.858   5.948 -0.6595 -1.4438 -0.5010
  125OSM    C1413290   0.883   3.029   5.833 -0.1802  0.4076  0.0019
  125OSM   H14A13291   0.956   2.963   5.876 -0.3935 -0.4134 -0.8670
  125OSM   H14B13292   0.923   3.129   5.832  2.0701 -0.4699 -1.6004
  125OSM   H14C13293   0.885   3.001   5.728  0.6019 -0.3816  0.2182
  125OSM    C1313294   0.651   3.099   5.813 -0.0380  0.6287 -0.3440
  125OSM   H13A13295   0.553   3.122   5.851 -0.0289 -0.0208  0.0793
  125OSM   H13B13296   0.636   3.050   5.718 -0.7453  1.4181 -0.6466
  125OSM   H13C13297   0.699   3.190   5.780  0.4669  0.2784 -0.5791
  125OSM    C1213298   0.732   3.065   6.041 -0.1909 -0.2195  0.2818
  125OSM   H12A13299   0.763   3.168   6.049  0.9651 -0.4073 -1.6756
  125OSM   H12B13300   0.809   3.012   6.095  0.9120  0.9746 -0.0900
  125OSM    C1113301   0.589   3.057   6.110 -0.2360  0.7884  0.1854
  125OSM   H11A13302   0.599   3.083   6.218  0.9694  0.1033  0.2536
  125OSM   H11B13303   0.558   2.953   6.091 -0.2528  1.3871 -3.3134
  125OSM      P13304   0.445   3.283   6.102  0.0723  0.0390  0.1731
  125OSM    O1313305   0.522   3.389   6.033 -0.4525 -0.0087 -0.4399
  125OSM    O1413306   0.296   3.287   6.082 -0.2070 -0.2231  0.0198
  125OSM    O1113307   0.478   3.280   6.254 -0.0184 -0.2601 -0.1781
  125OSM    O1213308   0.494   3.142   6.047  0.2451  0.1602  0.3319
  125OSM    C1S13309   0.491   3.401   6.331 -0.1543  0.1541 -0.4697
  125OSM    H1S13310   0.398   3.461   6.325 -1.5722 -1.6956  2.2797
  125OSM    H1T13311   0.565   3.471   6.288 -0.5350  1.1402  0.4568
  125OSM     NF13312   0.557   3.533   6.533  1.0206 -0.4792 -0.2579
  125OSM    HNF13313   0.643   3.547   6.581  1.6300 -2.3815 -0.7294
  125OSM    C2S13314   0.514   3.403   6.489 -0.6056  0.3025 -0.1729
  125OSM    H2S13315   0.417   3.380   6.540 -0.9611  0.8172 -0.6120
  125OSM    C3S13316   0.610   3.285   6.524 -0.0517 -0.6351 -0.0827
  125OSM    H3S13317   0.710   3.310   6.481 -1.2744  2.0580 -1.4977
  125OSM     O313318   0.571   3.164   6.472  0.3343 -0.0303 -0.0941
  125OSM    HO313319   0.515   3.193   6.400 -2.6986 -3.0446  0.8950
  125OSM    C4S13320   0.622   3.276   6.681  0.4333 -0.3256  0.1325
  125OSM    H4S13321   0.533   3.232   6.729  0.1660  1.2265  1.0897
  125OSM    C5S13322   0.740   3.292   6.754  0.4877  0.1721 -0.0489
  125OSM    H5S13323   0.837   3.310   6.704  0.8268  0.2921  0.6387
  125OSM    C6S13324   0.748   3.258   6.899 -0.7321  0.3927 -0.0541
  125OSM    H6S13325   0.816   3.173   6.925 -0.1071  0.7922 -0.3625
  125OSM    H6T13326   0.656   3.230   6.955  1.8797 -1.8836  3.3210
  125OSM    C7S13327   0.790   3.394   6.975 -0.3268  0.5096 -0.0019
  125OSM    H7S13328   0.725   3.475   6.936 -0.8313  0.4995  0.7977
  125OSM    H7T13329   0.894   3.416   6.944  0.1116  1.3901  1.9562
  125OSM    C8S13330   0.774   3.384   7.130  0.5756  0.4180 -0.0526
  125OSM    H8S13331   0.831   3.298   7.172 -0.9420  0.5691  2.4440
  125OSM    H8T13332   0.671   3.356   7.161  0.1095  1.1044 -0.9518
  125OSM    C9S13333   0.831   3.508   7.207  0.6672 -0.6649 -0.4175
  125OSM    H9S13334   0.761   3.590   7.183  0.9231  0.7988  3.4997
  125OSM    H9T13335   0.927   3.547   7.167 -0.2257  3.4062  1.1710
  125OSM   C10S13336   0.829   3.480   7.354 -0.2478 -0.3072 -0.3856
  125OSM   H10S13337   0.875   3.382   7.378  1.1063  0.1054 -1.2584
  125OSM   H10T13338   0.732   3.461   7.406  0.6632  0.9902  1.8293
  125OSM   C11S13339   0.885   3.598   7.437 -0.5233  1.0764  0.5621
  125OSM   H11S13340   0.838   3.691   7.397 -1.4787 -0.0631 -1.0576
  125OSM   H11T13341   0.994   3.611   7.420 -0.0770  0.6439  3.0138
  125OSM   C12S13342   0.865   3.593   7.585  0.4159  0.0955 -0.3066
  125OSM   H12S13343   0.760   3.612   7.615  0.4462  1.3326 -0.9669
  125OSM   H12T13344   0.911   3.678   7.640  0.0023  0.7665 -0.9973
  125OSM   C13S13345   0.917   3.469   7.657 -0.6435 -0.1136 -0.0819
  125OSM   H13S13346   1.027   3.465   7.641 -0.4789 -1.4550  1.2278
  125OSM   H13T13347   0.862   3.383   7.613 -1.1971  0.4014 -0.3968
  125OSM   C14S13348   0.886   3.475   7.810 -0.4460 -0.0684  0.5993
  125OSM   H14S13349   0.776   3.463   7.824 -0.2682 -2.3577  0.2148
  125OSM   H14T13350   0.909   3.573   7.857  2.0202  0.0195 -0.7519
  125OSM   C15S13351   0.944   3.354   7.879 -0.4733  0.0140 -0.0280
  125OSM   H15S13352   1.051   3.367   7.906 -0.2398 -2.8826  0.6042
  125OSM   H15T13353   0.934   3.266   7.812 -1.8511 -1.3935  1.9725
  125OSM   C16S13354   0.869   3.317   8.003 -0.5366  0.1326 -0.1321
  125OSM   H16S13355   0.764   3.287   7.982 -0.3039 -0.6913 -0.1588
  125OSM   H16T13356   0.866   3.408   8.067 -0.3919 -0.2925  0.4877
  125OSM   C17S13357   0.944   3.199   8.073  0.5311 -0.3477 -0.0417
  125OSM   H17S13358   1.053   3.218   8.076  0.6655 -1.3135  2.6105
  125OSM   H17T13359   0.921   3.119   7.999  0.4857 -0.4202  0.0489
  125OSM   C18S13360   0.888   3.142   8.198 -0.0412 -0.0257 -0.1703
  125OSM   H18S13361   0.786   3.101   8.186 -0.9443  2.1714 -0.2501
  125OSM   H18T13362   0.885   3.223   8.274 -1.5914 -0.1661 -0.0635
  125OSM   H18U13363   0.953   3.060   8.235 -1.1614 -2.0012 -2.4493
  125OSM    C1F13364   0.477   3.635   6.542 -0.0216 -0.5338 -0.8612
  125OSM     OF13365   0.358   3.619   6.523  0.3004  0.3408  0.3724
  125OSM    C2F13366   0.539   3.769   6.589  0.1083  0.0511  0.0330
  125OSM    H2F13367   0.603   3.792   6.501 -1.0989  2.6952 -0.1791
  125OSM    H2G13368   0.592   3.744   6.684 -0.0090 -3.1661 -0.6897
  125OSM    C3F13369   0.443   3.894   6.601 -0.5730  0.4860  0.5031
  125OSM    H3F13370   0.359   3.873   6.671 -0.5324 -1.1836  0.0652
  125OSM    H3G13371   0.390   3.903   6.503  2.2621 -1.9874 -1.3521
  125OSM    C4F13372   0.512   4.031   6.629  1.1612  0.3229  0.2040
  125OSM    H4F13373   0.429   4.100   6.606  2.4769  1.3166 -1.7420
  125OSM    H4G13374   0.592   4.036   6.552 -0.4295 -3.0126 -1.7726
  125OSM    C5F13375   0.571   4.043   6.769  0.1550  0.7892  0.6911
  125OSM    H5F13376   0.644   4.127   6.774  0.2861  0.7501 -0.3689
  125OSM    H5G13377   0.636   3.954   6.783 -0.9010 -0.3736 -1.4121
  125OSM    C6F13378   0.463   4.053   6.874  0.1577 -0.0943 -0.6233
  125OSM    H6F13379   0.368   3.999   6.851 -0.0261  1.0715 -2.7663
  125OSM    H6G13380   0.431   4.159   6.886 -1.2065 -0.6797  1.1071
  125OSM    C7F13381   0.513   4.022   7.020 -0.2323 -0.2702 -0.1700
  125OSM    H7F13382   0.593   4.091   7.055  0.5580 -0.9415 -0.6255
  125OSM    H7G13383   0.559   3.920   7.019 -0.1770 -0.3066  2.1342
  125OSM    C8F13384   0.406   4.007   7.132 -0.8446  0.5799 -0.4372
  125OSM    H8F13385   0.444   3.939   7.211 -2.8925 -0.6917 -0.5084
  125OSM    H8G13386   0.319   3.954   7.087  0.9839 -2.2026 -0.8750
  125OSM    C9F13387   0.362   4.137   7.195  0.1466  0.0274 -0.4528
  125OSM    H9F13388   0.313   4.208   7.126 -2.0920  0.4095  1.4744
  125OSM   C10F13389   0.404   4.182   7.317  0.3065 -0.0451  0.1261
  125OSM   H10F13390   0.356   4.275   7.351 -0.2215 -0.9534  1.9542
  125OSM   C11F13391   0.482   4.108   7.420 -0.1860 -0.0327 -0.4163
  125OSM   H11F13392   0.584   4.076   7.392 -0.0107  1.3762 -1.4088
  125OSM   H11G13393   0.436   4.009   7.443  0.3827  0.0261  1.0395
  125OSM   C12F13394   0.518   4.190   7.537  0.1436  0.4309  0.1895
  125OSM   H12F13395   0.424   4.239   7.572 -0.6166 -0.3971 -0.6712
  125OSM   H12G13396   0.579   4.274   7.498 -1.3691  0.7334 -1.5811
  125OSM   C13F13397   0.583   4.125   7.661  0.0224 -0.2695 -0.1688
  125OSM   H13F13398   0.692   4.142   7.661 -0.3369  2.2373  0.7366
  125OSM   H13G13399   0.569   4.015   7.664  0.6114 -0.3404  0.0957
  125OSM   C14F13400   0.546   4.195   7.791  1.0168 -0.2382  0.4358
  125OSM   H14F13401   0.435   4.205   7.793  0.9929 -0.5980  1.3014
  125OSM   H14G13402   0.596   4.294   7.789 -0.4468  0.6536  3.6871
  125OSM   C15F13403   0.606   4.143   7.918  0.1549  0.2321  0.8636
  125OSM   H15F13404   0.707   4.099   7.909 -0.3626 -0.6554 -0.8826
  125OSM   H15G13405   0.547   4.053   7.948 -0.1129 -0.8890 -2.7954
  125OSM   C16F13406   0.617   4.254   8.027  0.2971  0.8596  0.3199
  125OSM   H16F13407   0.514   4.297   8.028 -0.4676 -0.9465  1.0140
  125OSM   H16G13408   0.680   4.339   7.993  2.3330 -0.6529  0.2781
  125OSM   C17F13409   0.645   4.206   8.167  0.3785 -0.0286  0.0790
  125OSM   H17F13410   0.754   4.183   8.167  0.4422  0.2569 -0.3139
  125OSM   H17G13411   0.597   4.111   8.198  2.8515 -1.5922 -0.6827
  125OSM   C18F13412   0.644   4.306   8.287  0.2483 -0.4555  0.4248
  125OSM   H18F13413   0.542   4.350   8.294 -0.0819 -1.0817 -0.2945
  125OSM   H18G13414   0.718   4.386   8.268 -0.5750  0.3838  0.7263
  125OSM   H18H13415   0.666   4.247   8.378 -4.5938 -3.8774 -0.3587
  126OSM      N13416   5.663   3.007   6.485 -0.4024  0.0626 -1.6784
  126OSM    C1513417   5.697   2.989   6.634  0.4221 -0.2976 -0.4060
  126OSM   H15A13418   5.792   2.938   6.629 -0.0512 -1.3331  0.9605
  126OSM   H15B13419   5.622   2.934   6.689  1.3376  0.8164  2.0499
  126OSM   H15C13420   5.721   3.081   6.685 -0.7291 -0.6606  0.8071
  126OSM    C1413421   5.550   3.107   6.478  0.4029 -0.4248  0.3707
  126OSM   H14A13422   5.456   3.067   6.514 -0.0123 -3.0053 -3.3468
  126OSM   H14B13423   5.535   3.124   6.373 -0.0557 -2.2583  0.1225
  126OSM   H14C13424   5.565   3.199   6.535  3.1818 -0.7452  0.2363
  126OSM    C1313425   5.787   3.064   6.422  0.1886 -0.2678 -0.0643
  126OSM   H13A13426   5.807   3.162   6.464 -1.5083 -0.3383  0.9608
  126OSM   H13B13427   5.765   3.088   6.319 -0.1954  0.9322  0.2808
  126OSM   H13C13428   5.870   2.998   6.443 -0.3881 -0.0728  3.0441
  126OSM    C1213429   5.617   2.879   6.414 -0.2732  0.2875  0.4988
  126OSM   H12A13430   5.696   2.807   6.427 -0.0401  0.2303 -1.0635
  126OSM   H12B13431   5.616   2.898   6.307 -0.1864  0.3308  0.5051
  126OSM    C1113432   5.491   2.803   6.460  0.5616 -0.0698 -0.0531
  126OSM   H11A13433   5.511   2.774   6.565 -0.3727  2.1500  0.7708
  126OSM   H11B13434   5.477   2.713   6.397  0.3584 -1.1434  1.4981
  126OSM      P13435   5.238   2.843   6.530 -0.6833 -0.0166 -0.3895
  126OSM    O1313436   5.139   2.955   6.526  0.5864  0.2104 -0.3179
  126OSM    O1413437   5.189   2.711   6.495 -0.1658  0.7354  0.2309
  126OSM    O1113438   5.294   2.828   6.678  0.1684 -0.5857 -0.0283
  126OSM    O1213439   5.370   2.886   6.450  0.2582 -0.3151  0.7851
  126OSM    C1S13440   5.320   2.944   6.767 -0.0122  0.1301  0.4061
  126OSM    H1S13441   5.237   3.019   6.767 -1.1233 -1.0664  1.9034
  126OSM    H1T13442   5.408   2.998   6.728 -1.5754  0.9672 -2.0944
  126OSM     NF13443   5.332   3.013   7.002  0.3531  0.6199 -0.5929
  126OSM    HNF13444   5.414   3.047   7.048  1.1589 -0.2422 -1.3539
  126OSM    C2S13445   5.345   2.898   6.911 -0.1482  0.6144 -0.0825
  126OSM    H2S13446   5.266   2.826   6.939 -1.1152  2.9853  3.7104
  126OSM    C3S13447   5.476   2.818   6.917 -0.4985 -0.7283 -0.0847
  126OSM    H3S13448   5.559   2.887   6.891 -2.5104  1.7994  0.0087
  126OSM     O313449   5.474   2.710   6.823  0.8016 -0.3300 -0.3999
  126OSM    HO313450   5.393   2.726   6.774 -0.1402 -2.4429  0.4133
  126OSM    C4S13451   5.492   2.763   7.060  0.4661 -0.4475 -0.1907
  126OSM    H4S13452   5.530   2.844   7.124  3.1076  0.3298 -2.5979
  126OSM    C5S13453   5.469   2.637   7.111 -0.9449 -0.1396  0.0920
  126OSM    H5S13454   5.440   2.547   7.055 -0.0913  0.8212 -1.9429
  126OSM    C6S13455   5.493   2.609   7.258  0.1944 -0.0295  0.1133
  126OSM    H6S13456   5.397   2.581   7.305 -0.5868  0.9114 -0.8906
  126OSM    H6T13457   5.543   2.695   7.307 -0.4807  0.1672  0.4615
  126OSM    C7S13458   5.593   2.493   7.277 -0.4561 -0.1486 -0.1978
  126OSM    H7S13459   5.691   2.516   7.230 -1.6771  2.1819 -1.6997
  126OSM    H7T13460   5.545   2.395   7.257 -1.8470  0.4986 -0.1069
  126OSM    C8S13461   5.621   2.474   7.427 -0.9412  0.0862  0.3611
  126OSM    H8S13462   5.669   2.570   7.452  0.8552 -0.5325 -0.6604
  126OSM    H8T13463   5.696   2.392   7.433 -1.1798  0.0548  3.3865
  126OSM    C9S13464   5.496   2.453   7.512  0.4633  0.2697  0.2998
  126OSM    H9S13465   5.452   2.355   7.484  1.6066 -0.3012  0.4579
  126OSM    H9T13466   5.415   2.529   7.512 -0.7676 -1.0174 -0.2171
  126OSM   C10S13467   5.530   2.462   7.657 -0.0326  0.2987  0.5284
  126OSM   H10S13468   5.556   2.566   7.685 -1.0728  1.4154 -2.5110
  126OSM   H10T13469   5.614   2.389   7.667  0.7489  1.1776  0.4442
  126OSM   C11S13470   5.413   2.413   7.748  0.6742  0.7491 -0.0941
  126OSM   H11S13471   5.384   2.309   7.724  1.5731  0.3184  0.6417
  126OSM   H11T13472   5.319   2.468   7.728  0.4982  0.2065 -0.7564
  126OSM   C12S13473   5.443   2.436   7.899  0.0637 -0.4286  0.9395
  126OSM   H12S13474   5.365   2.381   7.955 -2.9307  1.1971 -1.4852
  126OSM   H12T13475   5.429   2.543   7.926 -0.9328 -0.4100  0.3866
  126OSM   C13S13476   5.578   2.407   7.952 -1.0650 -0.3444 -0.4914
  126OSM   H13S13477   5.657   2.461   7.896 -1.6751  0.7273 -0.3200
  126OSM   H13T13478   5.593   2.299   7.932  0.2120 -0.0838 -0.9930
  126OSM   C14S13479   5.587   2.419   8.107  0.3888 -0.3250 -0.8824
  126OSM   H14S13480   5.505   2.365   8.159  1.0488 -1.0978 -0.6255
  126OSM   H14T13481   5.578   2.526   8.135  0.4726 -0.9787  1.7534
  126OSM   C15S13482   5.729   2.374   8.155  0.8022  0.1274  0.4840
  126OSM   H15S13483   5.804   2.432   8.098  0.0658 -0.3904 -1.0361
  126OSM   H15T13484   5.737   2.266   8.131 -0.2867  0.4151 -1.2883
  126OSM   C16S13485   5.741   2.405   8.313 -0.6115 -0.1334 -0.5029
  126OSM   H16S13486   5.666   2.356   8.379 -0.0575 -0.1969  0.0880
  126OSM   H16T13487   5.717   2.513   8.316  0.6510  0.1205  2.4257
  126OSM   C17S13488   5.877   2.371   8.367  0.2923  0.3940  0.6437
  126OSM   H17S13489   5.960   2.401   8.299 -1.0511  1.5492 -0.5252
  126OSM   H17T13490   5.888   2.262   8.382  1.2957  0.2092 -1.2468
  126OSM   C18S13491   5.901   2.427   8.515  0.5889 -0.1285  0.4654
  126OSM   H18S13492   6.003   2.403   8.554  0.2251  1.2339  2.3304
  126OSM   H18T13493   5.827   2.371   8.574  1.4630 -0.6082  1.1125
  126OSM   H18U13494   5.871   2.534   8.527 -1.8532 -0.7553  0.1582
  126OSM    C1F13495   5.209   3.069   7.018 -1.0496  0.4355  0.0933
  126OSM     OF13496   5.106   3.021   6.966 -0.3896  0.2133  0.9943
  126OSM    C2F13497   5.201   3.196   7.100  0.6564  0.3741 -0.4916
  126OSM    H2F13498   5.202   3.277   7.024  3.5319  0.3155 -0.5548
  126OSM    H2G13499   5.294   3.212   7.158 -0.7537  1.8522  1.4494
  126OSM    C3F13500   5.080   3.199   7.204 -0.3541  0.2198  0.1546
  126OSM    H3F13501   5.054   3.100   7.247  0.2752  0.1852  0.4613
  126OSM    H3G13502   4.987   3.242   7.161 -0.7346  1.2002  1.9163
  126OSM    C4F13503   5.109   3.284   7.327 -0.7863  0.8064 -0.6319
  126OSM    H4F13504   5.119   3.391   7.297 -0.0903  0.7956 -0.4290
  126OSM    H4G13505   5.195   3.260   7.393 -0.7798 -2.4724 -1.7414
  126OSM    C5F13506   4.983   3.286   7.423 -0.3889 -0.6641 -0.4568
  126OSM    H5F13507   4.900   3.322   7.359  1.4262 -0.7641 -2.9109
  126OSM    H5G13508   4.994   3.366   7.500  0.2016 -0.5887 -0.6202
  126OSM    C6F13509   4.955   3.166   7.507  0.8177  0.1491  0.8966
  126OSM    H6F13510   4.947   3.081   7.435 -1.0246 -0.9828  2.3931
  126OSM    H6G13511   4.854   3.169   7.551  0.0887 -1.8856 -0.5546
  126OSM    C7F13512   5.061   3.136   7.602  0.3912  0.1938  0.6234
  126OSM    H7F13513   5.063   3.227   7.666 -0.7288  0.1419  0.7458
  126OSM    H7G13514   5.155   3.106   7.551 -1.3119  0.1882 -2.6274
  126OSM    C8F13515   5.019   3.021   7.702 -0.1552 -0.1742  0.1076
  126OSM    H8F13516   4.975   2.939   7.642 -1.9996  1.2952 -0.6354
  126OSM    H8G13517   4.938   3.060   7.768  0.0894 -0.6925  0.7158
  126OSM    C9F13518   5.138   2.965   7.776  0.4080 -0.3927 -0.6381
  126OSM    H9F13519   5.215   2.904   7.727  2.4280  1.0134  0.7085
  126OSM   C10F13520   5.171   2.993   7.905  0.6804  0.1398  0.0717
  126OSM   H10F13521   5.261   2.947   7.948  0.7734  2.1148  2.0944
  126OSM   C11F13522   5.095   3.078   8.006 -0.4049 -0.7058  0.5233
  126OSM   H11F13523   5.107   3.025   8.102  1.4831  2.3977  2.0599
  126OSM   H11G13524   4.996   3.119   7.975  0.1923  0.8831  0.6529
  126OSM   C12F13525   5.166   3.212   8.016 -0.1144  0.2220 -0.3796
  126OSM   H12F13526   5.197   3.256   7.919  1.2819 -1.5840 -0.7649
  126OSM   H12G13527   5.261   3.196   8.070 -0.3764 -1.1547 -0.3189
  126OSM   C13F13528   5.086   3.317   8.095  0.6634  0.2835 -0.4181
  126OSM   H13F13529   5.036   3.272   8.183  0.1914 -1.3478 -1.5029
  126OSM   H13G13530   5.006   3.347   8.024 -1.9504 -1.4563  1.6865
  126OSM   C14F13531   5.155   3.448   8.125  0.4532  0.2438  0.4609
  126OSM   H14F13532   5.079   3.518   8.165  2.2151  3.5539 -1.8152
  126OSM   H14G13533   5.188   3.505   8.037  1.5182 -0.4252  0.4217
  126OSM   C15F13534   5.275   3.428   8.223 -0.2959  0.1368 -0.6031
  126OSM   H15F13535   5.336   3.342   8.190  1.1684  1.4840 -1.4986
  126OSM   H15G13536   5.231   3.401   8.321  1.9552 -0.4528  0.2810
  126OSM   C16F13537   5.364   3.552   8.223 -0.6244 -0.4098 -0.6636
  126OSM   H16F13538   5.400   3.559   8.118  1.7022  0.3426  0.1592
  126OSM   H16G13539   5.450   3.539   8.292 -2.3119  0.7354  1.7626
  126OSM   C17F13540   5.302   3.682   8.272  0.1532  0.3195 -0.9517
  126OSM   H17F13541   5.202   3.707   8.230  0.3270  0.5093 -1.2477
  126OSM   H17G13542   5.368   3.762   8.233 -0.4358  0.7446 -1.0870
  126OSM   C18F13543   5.301   3.690   8.433 -0.0101 -0.8680  0.3627
  126OSM   H18F13544   5.234   3.621   8.489  0.8532  0.5534  3.2691
  126OSM   H18G13545   5.300   3.792   8.477 -1.1128 -0.8799  0.3697
  126OSM   H18H13546   5.401   3.648   8.455  0.2958 -2.5269 -3.7883
  127OSM      N13547   6.342   1.652   6.155  0.2418  0.2040 -0.7002
  127OSM    C1513548   6.475   1.729   6.131 -0.1271  0.2918 -0.2177
  127OSM   H15A13549   6.478   1.819   6.192 -0.9581  2.5156 -3.3113
  127OSM   H15B13550   6.473   1.759   6.027 -0.0961 -0.4967 -0.4435
  127OSM   H15C13551   6.562   1.668   6.150 -0.6058 -0.7622 -1.3287
  127OSM    C1413552   6.233   1.737   6.094  0.3515 -0.4399 -1.2884
  127OSM   H14A13553   6.247   1.760   5.990 -0.0186 -1.1802 -1.4995
  127OSM   H14B13554   6.223   1.831   6.147  2.0883 -1.4491  0.9063
  127OSM   H14C13555   6.137   1.691   6.109  0.0905  0.2565 -0.7988
  127OSM    C1313556   6.341   1.522   6.078 -0.7421  0.6419  0.2898
  127OSM   H13A13557   6.358   1.550   5.974  0.3290  1.4950  0.6821
  127OSM   H13B13558   6.251   1.463   6.085 -1.0693  1.2320  1.0176
  127OSM   H13C13559   6.416   1.454   6.116 -2.1092 -0.0278  1.7949
  127OSM    C1213560   6.320   1.613   6.301 -0.2033  0.3847 -0.4431
  127OSM   H12A13561   6.224   1.565   6.311  0.9137 -1.8142  0.2180
  127OSM   H12B13562   6.310   1.700   6.363 -1.8325 -0.0628 -0.0558
  127OSM    C1113563   6.423   1.511   6.364 -0.3576 -0.5706 -0.1347
  127OSM   H11A13564   6.423   1.419   6.302 -0.3111 -0.4796 -0.2700
  127OSM   H11B13565   6.385   1.478   6.463  3.1471  2.0023  2.1901
  127OSM      P13566   6.691   1.522   6.338  0.1288 -0.5309 -0.5295
  127OSM    O1313567   6.677   1.484   6.192 -0.3833 -0.1998 -0.2728
  127OSM    O1413568   6.792   1.621   6.373 -0.5976 -0.2220  0.4067
  127OSM    O1113569   6.699   1.390   6.429 -0.1364  0.4439  0.0935
  127OSM    O1213570   6.552   1.574   6.388 -0.3522  0.3487  0.4709
  127OSM    C1S13571   6.703   1.407   6.576  0.1521 -0.1440  0.7066
  127OSM    H1S13572   6.610   1.457   6.609  1.3558  3.5529 -1.2727
  127OSM    H1T13573   6.794   1.459   6.613 -0.2827  1.2831 -0.1927
  127OSM     NF13574   6.717   1.269   6.778 -0.5639 -0.0307  0.0845
  127OSM    HNF13575   6.812   1.271   6.811  0.0710  2.6359 -1.7593
  127OSM    C2S13576   6.708   1.259   6.638  0.2197  0.5459  0.5067
  127OSM    H2S13577   6.617   1.199   6.619  0.9613 -0.9139  1.3855
  127OSM    C3S13578   6.825   1.180   6.579  0.2314  0.0441  0.1978
  127OSM    H3S13579   6.921   1.235   6.588 -0.4828  2.0512 -3.1186
  127OSM     O313580   6.819   1.149   6.439  0.0643 -0.4480  0.3824
  127OSM    HO313581   6.770   1.225   6.406 -0.3621 -0.8715  0.0269
  127OSM    C4S13582   6.833   1.049   6.648  0.9538  0.4796  0.4926
  127OSM    H4S13583   6.901   1.051   6.734  0.8502 -1.9098  0.6549
  127OSM    C5S13584   6.774   0.925   6.631 -0.6289  0.1423 -0.6677
  127OSM    H5S13585   6.699   0.907   6.552 -0.4650  0.1998 -0.8350
  127OSM    C6S13586   6.794   0.803   6.717 -0.4609  0.4505 -0.2592
  127OSM    H6S13587   6.867   0.739   6.663 -1.6222  0.1865 -1.5557
  127OSM    H6T13588   6.699   0.746   6.729 -0.4527  0.6797  0.9567
  127OSM    C7S13589   6.856   0.822   6.858  0.6487  0.2221  1.0016
  127OSM    H7S13590   6.798   0.892   6.920  0.4942  1.5933 -0.6694
  127OSM    H7T13591   6.956   0.869   6.844  0.4099  0.2845 -0.5507
  127OSM    C8S13592   6.879   0.679   6.916 -0.5428 -0.3011  0.3511
  127OSM    H8S13593   6.955   0.627   6.855 -0.7908  1.5071 -1.5640
  127OSM    H8T13594   6.781   0.626   6.916 -1.2120  0.9132 -0.5626
  127OSM    C9S13595   6.931   0.689   7.057 -0.0576  0.6554 -0.4451
  127OSM    H9S13596   6.859   0.755   7.110  0.7460 -0.1133  1.6450
  127OSM    H9T13597   7.034   0.730   7.061 -0.4549  1.4351  3.3270
  127OSM   C10S13598   6.916   0.560   7.142 -0.1125 -0.4320 -0.4498
  127OSM   H10S13599   6.979   0.491   7.083  0.0034  0.8502 -1.8488
  127OSM   H10T13600   6.815   0.516   7.150  0.1849 -0.7233  2.2262
  127OSM   C11S13601   6.975   0.561   7.282 -0.2425  0.0928  0.2343
  127OSM   H11S13602   7.079   0.602   7.283 -1.0348  2.2526 -1.9610
  127OSM   H11T13603   6.992   0.453   7.302 -1.4336 -0.1242  0.0530
  127OSM   C12S13604   6.887   0.621   7.388 -0.2703 -0.2983 -0.1163
  127OSM   H12S13605   6.787   0.573   7.393 -0.5588  0.3255  0.1251
  127OSM   H12T13606   6.871   0.726   7.354  0.3395  1.2694  4.1346
  127OSM   C13S13607   6.964   0.626   7.518  0.3263 -0.5300 -0.2560
  127OSM   H13S13608   6.903   0.689   7.586  0.6407 -0.4005 -0.0936
  127OSM   H13T13609   7.054   0.691   7.514 -0.7678  1.0312 -0.1870
  127OSM   C14S13610   6.990   0.483   7.580 -0.0798  0.0957  0.4651
  127OSM   H14S13611   7.065   0.433   7.515 -1.9022  1.2694 -2.6521
  127OSM   H14T13612   6.893   0.430   7.565 -0.5412  1.4683 -1.5540
  127OSM   C15S13613   7.033   0.500   7.727 -0.1536  0.3637 -0.3310
  127OSM   H15S13614   6.987   0.592   7.768 -0.5358 -0.0713  0.2202
  127OSM   H15T13615   7.144   0.499   7.738 -0.2027  1.2232  0.2985
  127OSM   C16S13616   6.973   0.393   7.818  0.2173 -0.1788 -0.0429
  127OSM   H16S13617   7.022   0.297   7.793  1.7467  0.5282  0.1977
  127OSM   H16T13618   6.862   0.391   7.806  0.4363 -2.6620 -2.2190
  127OSM   C17S13619   7.002   0.410   7.971  0.4056  0.6917 -0.2676
  127OSM   H17S13620   6.950   0.499   8.013 -0.9169 -0.0821 -0.2212
  127OSM   H17T13621   7.110   0.432   7.983  1.1005 -2.5369 -0.2681
  127OSM   C18S13622   6.958   0.286   8.049  0.3822  0.9920  0.6699
  127OSM   H18S13623   7.001   0.194   8.004 -1.3358 -0.6851  2.3650
  127OSM   H18T13624   6.847   0.276   8.046  0.5908 -1.0147 -0.8475
  127OSM   H18U13625   7.006   0.282   8.149  0.3285 -3.5508  0.5952
  127OSM    C1F13626   6.615   1.308   6.856  0.1975  0.0134 -1.4119
  127OSM     OF13627   6.500   1.319   6.807  0.3734 -0.1487 -0.3525
  127OSM    C2F13628   6.643   1.328   7.007 -1.0856  0.2741 -0.0593
  127OSM    H2F13629   6.611   1.236   7.061 -1.0580  0.3074  0.0147
  127OSM    H2G13630   6.583   1.413   7.044  0.0160  0.2496  1.8323
  127OSM    C3F13631   6.791   1.365   7.040 -0.7983  0.1182 -0.4184
  127OSM    H3F13632   6.822   1.462   6.995  0.4056 -0.7950 -1.5793
  127OSM    H3G13633   6.872   1.297   7.006 -0.3629  0.1553  0.5256
  127OSM    C4F13634   6.818   1.379   7.195 -0.2468 -0.6609 -0.0065
  127OSM    H4F13635   6.927   1.401   7.196 -0.2890 -0.4920  0.9000
  127OSM    H4G13636   6.801   1.282   7.247  0.0349 -1.6621 -1.7413
  127OSM    C5F13637   6.740   1.493   7.264 -0.3604  0.9102 -0.4836
  127OSM    H5F13638   6.637   1.452   7.276  0.6249 -1.9994 -1.6543
  127OSM    H5G13639   6.744   1.586   7.204 -0.4260  2.2583  1.5277
  127OSM    C6F13640   6.797   1.520   7.405  0.0407  0.4524  0.1074
  127OSM    H6F13641   6.793   1.418   7.449 -1.2399  0.2622 -0.4285
  127OSM    H6G13642   6.733   1.577   7.475 -0.2452  0.4542 -0.1590
  127OSM    C7F13643   6.941   1.576   7.416 -0.2016 -0.1789  0.4823
  127OSM    H7F13644   6.949   1.679   7.375  0.3140 -0.3521  0.1556
  127OSM    H7G13645   7.022   1.521   7.364 -0.1241  0.1892  0.2141
  127OSM    C8F13646   6.981   1.584   7.565 -0.7699 -0.5798  0.5660
  127OSM    H8F13647   6.911   1.655   7.614 -0.2471 -0.5077  1.2037
  127OSM    H8G13648   7.081   1.631   7.553 -2.4489  2.6861 -1.8644
  127OSM    C9F13649   6.980   1.449   7.634 -0.1300  0.6123 -0.2502
  127OSM    H9F13650   7.026   1.364   7.582 -2.5172 -0.8290 -0.0692
  127OSM   C10F13651   6.942   1.439   7.766 -0.7921  0.1443  0.0906
  127OSM   H10F13652   6.948   1.343   7.819 -2.4828 -0.6935 -1.1852
  127OSM   C11F13653   6.892   1.552   7.854  0.0140 -0.1670  1.0707
  127OSM   H11F13654   6.836   1.504   7.937  2.3713 -1.8407  1.7487
  127OSM   H11G13655   6.813   1.612   7.805 -1.0999 -2.8144 -0.4514
  127OSM   C12F13656   7.010   1.642   7.900 -0.8722 -0.2676 -0.4896
  127OSM   H12F13657   7.079   1.656   7.815  0.4361  1.1952  0.7856
  127OSM   H12G13658   7.055   1.586   7.985  0.5347 -0.4439 -1.3326
  127OSM   C13F13659   6.965   1.781   7.953 -0.0368 -0.4051 -0.4309
  127OSM   H13F13660   6.881   1.768   8.024  0.4391 -0.9180  0.0389
  127OSM   H13G13661   6.933   1.843   7.866 -0.5829  1.3912  1.0228
  127OSM   C14F13662   7.078   1.842   8.038  0.8267  0.6138 -0.3576
  127OSM   H14F13663   7.112   1.938   7.991 -0.7600  1.2464 -0.2569
  127OSM   H14G13664   7.163   1.771   8.040  0.0807 -0.2595  0.2186
  127OSM   C15F13665   7.045   1.881   8.187 -0.4426  0.3249 -0.6720
  127OSM   H15F13666   6.958   1.950   8.187 -0.2515  0.5653  0.9584
  127OSM   H15G13667   7.138   1.923   8.229 -1.2190 -0.8401  2.3064
  127OSM   C16F13668   7.008   1.758   8.282  0.4269 -0.2139 -0.2280
  127OSM   H16F13669   7.086   1.684   8.254  0.5018  0.1126 -0.8785
  127OSM   H16G13670   6.913   1.720   8.239 -0.7535  2.3844 -0.0052
  127OSM   C17F13671   6.999   1.792   8.429  0.5970  0.8435  0.9908
  127OSM   H17F13672   6.967   1.695   8.473  1.3088  0.0450 -0.2313
  127OSM   H17G13673   6.912   1.859   8.442 -0.7777 -0.7330  0.1973
  127OSM   C18F13674   7.130   1.831   8.495  0.3717 -0.1397  0.0518
  127OSM   H18F13675   7.209   1.757   8.471  0.4441  0.6800 -2.4143
  127OSM   H18G13676   7.125   1.834   8.606  1.3615  2.5051  0.0625
  127OSM   H18H13677   7.161   1.921   8.437 -0.3028  0.3920  0.5029
  128OSM      N13678   2.640   4.603   6.344  0.7247 -0.0113 -0.6046
  128OSM    C1513679   2.532   4.640   6.439 -0.2866 -1.3200  0.4081
  128OSM   H15A13680   2.458   4.562   6.436  0.6491 -2.2673  1.2015
  128OSM   H15B13681   2.503   4.738   6.407  3.3812 -0.2220  0.1509
  128OSM   H15C13682   2.566   4.645   6.542  3.5315 -0.2033 -0.8255
  128OSM    C1413683   2.584   4.626   6.212  0.4013  0.2985  0.4386
  128OSM   H14A13684   2.652   4.608   6.130 -0.6411  1.5615 -0.7419
  128OSM   H14B13685   2.547   4.726   6.193 -0.2576 -0.2038 -1.0727
  128OSM   H14C13686   2.494   4.568   6.196  0.6412  0.1190 -0.3036
  128OSM    C1313687   2.755   4.694   6.370 -0.7702 -0.0999  0.5346
  128OSM   H13A13688   2.743   4.801   6.362  2.0235  0.2637  0.5560
  128OSM   H13B13689   2.833   4.687   6.295 -1.0092  2.9306 -0.0309
  128OSM   H13C13690   2.813   4.664   6.456  0.1112  0.6080  0.2021
  128OSM    C1213691   2.677   4.459   6.367  0.7358 -0.0334  0.4979
  128OSM   H12A13692   2.698   4.432   6.469  0.6254  0.2409  0.5945
  128OSM   H12B13693   2.768   4.438   6.312  0.0500  2.2087 -1.6092
  128OSM    C1113694   2.580   4.350   6.315 -0.1105  1.0609  0.2148
  128OSM   H11A13695   2.607   4.250   6.356 -0.7376  1.5599  1.8850
  128OSM   H11B13696   2.583   4.349   6.204 -0.0482 -2.3458  0.1994
  128OSM      P13697   2.326   4.370   6.267  0.2571 -0.2820  0.2010
  128OSM    O1313698   2.335   4.473   6.163  0.1217  0.0402 -0.5159
  128OSM    O1413699   2.305   4.231   6.231  0.3074 -0.0186  0.0458
  128OSM    O1113700   2.210   4.422   6.361  0.6765 -0.1226 -0.8896
  128OSM    O1213701   2.451   4.378   6.369 -0.4504 -0.2462  0.3317
  128OSM    C1S13702   2.183   4.359   6.491 -0.2681  0.2592  1.0987
  128OSM    H1S13703   2.251   4.273   6.508  0.8793  1.0596  0.6272
  128OSM    H1T13704   2.076   4.331   6.489  0.0667 -0.9931 -3.2048
  128OSM     NF13705   2.175   4.386   6.744 -0.5551 -0.2464 -0.8311
  128OSM    HNF13706   2.102   4.421   6.802  1.1171 -0.3610  1.4097
  128OSM    C2S13707   2.200   4.455   6.617 -0.2600 -0.8844  0.3726
  128OSM    H2S13708   2.306   4.488   6.618 -1.2223  2.4020 -0.1979
  128OSM    C3S13709   2.118   4.589   6.600 -0.4758 -0.1143  0.9784
  128OSM    H3S13710   2.010   4.571   6.582 -0.5370 -1.1998  2.3454
  128OSM     O313711   2.166   4.664   6.485 -0.1963  0.3283 -0.0933
  128OSM    HO313712   2.197   4.586   6.440  0.0723  1.5696 -2.1253
  128OSM    C4S13713   2.142   4.682   6.722  0.3545 -0.0763  0.0939
  128OSM    H4S13714   2.055   4.682   6.789  1.2163 -1.3284  1.2515
  128OSM    C5S13715   2.240   4.774   6.748 -0.1004 -0.3144  0.1533
  128OSM    H5S13716   2.324   4.784   6.679 -2.8061 -0.2704 -3.2784
  128OSM    C6S13717   2.231   4.876   6.861 -0.0371 -0.2348  0.1788
  128OSM    H6S13718   2.277   4.973   6.832  0.3755 -0.0468  1.4493
  128OSM    H6T13719   2.295   4.839   6.944 -0.6853  1.5303  1.4941
  128OSM    C7S13720   2.092   4.899   6.912 -0.8028 -0.5437 -0.1902
  128OSM    H7S13721   2.048   4.803   6.948  0.7722 -0.8172  1.0504
  128OSM    H7T13722   2.028   4.931   6.827 -1.6627 -0.6748  0.3989
  128OSM    C8S13723   2.082   5.024   7.004 -0.1893  0.7965 -0.3366
  128OSM    H8S13724   1.972   5.032   7.021 -0.3838 -1.6294 -0.2921
  128OSM    H8T13725   2.117   5.114   6.949  1.1801 -0.9100 -2.2892
  128OSM    C9S13726   2.146   4.983   7.140 -0.0302  0.0129 -0.8362
  128OSM    H9S13727   2.256   4.975   7.127  0.2361  1.1730  0.5862
  128OSM    H9T13728   2.123   4.878   7.167  1.2674 -0.1964 -0.4967
  128OSM   C10S13729   2.116   5.073   7.259 -0.3970  0.0254  0.6405
  128OSM   H10S13730   2.005   5.079   7.266 -0.3935 -0.0161  0.7416
  128OSM   H10T13731   2.153   5.175   7.238 -0.2572 -0.4173 -1.3119
  128OSM   C11S13732   2.166   5.023   7.395 -0.0314  0.5094  0.3105
  128OSM   H11S13733   2.276   5.013   7.404 -0.1715 -2.8974 -0.9997
  128OSM   H11T13734   2.125   4.920   7.402  0.4451  0.2317 -0.9187
  128OSM   C12S13735   2.114   5.099   7.516  0.1843 -0.2226  0.4941
  128OSM   H12S13736   2.004   5.093   7.502  0.4442  0.0484 -1.9357
  128OSM   H12T13737   2.139   5.207   7.512 -1.1270  0.0322 -1.5709
  128OSM   C13S13738   2.153   5.042   7.656  0.1498 -0.1471  0.2528
  128OSM   H13S13739   2.259   5.064   7.679  0.5815 -0.1953 -1.5999
  128OSM   H13T13740   2.149   4.931   7.645  2.4964 -0.1431 -0.8343
  128OSM   C14S13741   2.061   5.087   7.766 -0.0421  0.6871  0.1069
  128OSM   H14S13742   1.956   5.070   7.736  0.2025  1.3621 -1.1704
  128OSM   H14T13743   2.060   5.197   7.781 -1.4766  0.6724  0.1472
  128OSM   C15S13744   2.098   5.020   7.901 -0.2694  0.4822  0.5608
  128OSM   H15S13745   2.199   5.047   7.936  0.2538 -2.7973  1.8000
  128OSM   H15T13746   2.099   4.909   7.897 -0.7434  0.4058  2.0604
  128OSM   C16S13747   1.992   5.061   8.002  0.7947 -0.4100 -0.4278
  128OSM   H16S13748   1.890   5.058   7.959  0.8959 -2.6060 -0.5706
  128OSM   H16T13749   2.016   5.166   8.032  3.9358 -1.3680  0.5671
  128OSM   C17S13750   1.996   4.975   8.123  0.3054  0.1934 -0.2621
  128OSM   H17S13751   2.000   4.866   8.101 -0.1031 -0.5845  3.2069
  128OSM   H17T13752   1.904   4.990   8.184  1.7886  2.5393  1.5237
  128OSM   C18S13753   2.118   4.974   8.212 -0.6302 -0.3539  0.3899
  128OSM   H18S13754   2.159   5.075   8.231 -0.0723 -0.7700  1.4501
  128OSM   H18T13755   2.194   4.918   8.154  0.2664 -0.7699  1.9361
  128OSM   H18U13756   2.103   4.909   8.301  0.6598 -2.1216 -0.6440
  128OSM    C1F13757   2.249   4.283   6.779 -0.0413 -0.3851  0.5980
  128OSM     OF13758   2.367   4.272   6.733  0.2260 -0.6749 -0.0068
  128OSM    C2F13759   2.187   4.183   6.876 -0.0778  0.0362  0.0413
  128OSM    H2F13760   2.148   4.102   6.810 -0.3947 -0.7840  1.2246
  128OSM    H2G13761   2.105   4.240   6.926  1.0845 -0.3455  2.4321
  128OSM    C3F13762   2.284   4.117   6.974  0.3021 -0.0250  0.1768
  128OSM    H3F13763   2.326   4.191   7.045  1.1249 -2.6557  2.5376
  128OSM    H3G13764   2.378   4.070   6.937  0.4881  0.8389 -0.4609
  128OSM    C4F13765   2.223   4.009   7.069 -0.2542 -0.6874 -0.1159
  128OSM    H4F13766   2.211   3.913   7.015  1.9234  0.0290 -1.9389
  128OSM    H4G13767   2.126   4.054   7.100  0.0443  1.0321 -1.6001
  128OSM    C5F13768   2.315   3.989   7.194 -0.1039  0.9075  0.1097
  128OSM    H5F13769   2.406   4.052   7.179 -0.3595  1.0477 -0.8667
  128OSM    H5G13770   2.356   3.887   7.178  0.5147  1.3459 -1.1825
  128OSM    C6F13771   2.249   4.009   7.325 -0.0036 -0.2448 -0.4025
  128OSM    H6F13772   2.161   3.941   7.328 -1.1007  1.2402  2.3635
  128OSM    H6G13773   2.219   4.115   7.339 -1.9350 -0.9233  0.7666
  128OSM    C7F13774   2.334   3.977   7.447  0.8526 -0.1984 -0.0841
  128OSM    H7F13775   2.395   4.064   7.479 -2.4348  1.5728  1.6417
  128OSM    H7G13776   2.402   3.895   7.415  1.4649  0.0574  0.5575
  128OSM    C8F13777   2.252   3.940   7.568  0.0039  0.2093 -0.2382
  128OSM    H8F13778   2.188   3.857   7.532 -0.5946  1.2144 -1.5016
  128OSM    H8G13779   2.182   4.023   7.593 -1.9249 -0.8043 -2.1211
  128OSM    C9F13780   2.329   3.890   7.685 -0.9682  0.8450  0.4820
  128OSM    H9F13781   2.340   3.780   7.685  1.5116  1.0669  0.7393
  128OSM   C10F13782   2.377   3.957   7.790  0.2717 -0.2505  0.2298
  128OSM   H10F13783   2.432   3.909   7.873  0.9078  0.8834  0.4731
  128OSM   C11F13784   2.352   4.102   7.812  0.1906 -1.3678 -0.9755
  128OSM   H11F13785   2.242   4.115   7.805  0.0479 -1.3444  0.9868
  128OSM   H11G13786   2.397   4.167   7.734  2.3011 -2.3864 -0.6430
  128OSM   C12F13787   2.405   4.165   7.941 -0.2137  0.2704 -0.3421
  128OSM   H12F13788   2.373   4.271   7.933 -1.7725 -0.2960 -1.7757
  128OSM   H12G13789   2.515   4.155   7.933 -0.1511  1.5807 -1.2570
  128OSM   C13F13790   2.359   4.111   8.077 -0.1307  0.4700  0.0822
  128OSM   H13F13791   2.391   4.190   8.148 -0.6299  1.5287 -0.8675
  128OSM   H13G13792   2.413   4.016   8.099 -2.2408 -1.0476 -1.1194
  128OSM   C14F13793   2.215   4.076   8.086 -0.7717  0.5649 -0.6162
  128OSM   H14F13794   2.210   3.994   8.010 -1.4095  0.1224 -0.0965
  128OSM   H14G13795   2.147   4.153   8.045 -0.7269 -0.1385 -2.0634
  128OSM   C15F13796   2.164   4.037   8.231  0.3973 -0.1036  0.6631
  128OSM   H15F13797   2.211   3.946   8.275  1.4697  0.4252  0.6361
  128OSM   H15G13798   2.055   4.018   8.234  0.0378  1.4974 -1.6522
  128OSM   C16F13799   2.176   4.157   8.325  0.1394  0.0037 -0.6181
  128OSM   H16F13800   2.268   4.216   8.303  0.9399 -1.1466 -0.4369
  128OSM   H16G13801   2.173   4.107   8.424  0.4782  2.3643  0.6331
  128OSM   C17F13802   2.063   4.262   8.306  0.0833  0.0169 -0.8663
  128OSM   H17F13803   1.963   4.214   8.304 -0.6134  1.3503  0.8432
  128OSM   H17G13804   2.087   4.302   8.205 -1.9922  0.3916 -1.2321
  128OSM   C18F13805   2.062   4.362   8.422 -0.1591 -0.1103  0.3211
  128OSM   H18F13806   2.164   4.404   8.431  0.0131  0.5521 -3.5480
  128OSM   H18G13807   2.062   4.311   8.520 -0.2085 -0.7693 -0.0229
  128OSM   H18H13808   1.989   4.446   8.411  0.5142  0.2231 -1.9136
  129OSM      N13809   6.653   1.064   6.025  0.2408  0.2308 -0.2602
  129OSM    C1513810   6.526   1.029   5.954 -0.1809 -0.0825 -0.7871
  129OSM   H15A13811   6.458   0.977   6.020  0.6119  0.4051  0.4353
  129OSM   H15B13812   6.554   0.961   5.874 -2.9616 -1.2511 -0.8478
  129OSM   H15C13813   6.476   1.117   5.916 -0.5138  0.5375  1.0694
  129OSM    C1413814   6.709   0.945   6.086 -0.2426 -0.2711  0.6027
  129OSM   H14A13815   6.784   0.967   6.160  0.3484  0.2828 -0.1491
  129OSM   H14B13816   6.749   0.878   6.011  3.4521  1.0758  1.2760
  129OSM   H14C13817   6.633   0.896   6.144 -0.6376  1.4957  1.6190
  129OSM    C1313818   6.745   1.118   5.922 -0.3220  0.1466  0.5104
  129OSM   H13A13819   6.732   1.056   5.834  2.0912 -2.0325  1.6581
  129OSM   H13B13820   6.849   1.124   5.949 -0.5139 -0.8977  1.5046
  129OSM   H13C13821   6.719   1.219   5.893 -0.8319  0.1771  1.0733
  129OSM    C1213822   6.628   1.168   6.132  0.4359  0.6623 -0.4468
  129OSM   H12A13823   6.613   1.260   6.077 -0.1509  0.4601 -0.6266
  129OSM   H12B13824   6.721   1.187   6.184  0.6677  1.7346 -1.2283
  129OSM    C1113825   6.510   1.160   6.231  0.3279  0.2158  0.3668
  129OSM   H11A13826   6.529   1.229   6.316 -0.8991  0.3999  0.4906
  129OSM   H11B13827   6.505   1.054   6.267  1.0466 -0.1948 -0.7227
  129OSM      P13828   6.250   1.133   6.194  0.0012 -0.2721 -0.1864
  129OSM    O1313829   6.136   1.221   6.161  0.9598  0.4483 -0.2055
  129OSM    O1413830   6.259   1.007   6.119  0.1405 -0.3802  0.2114
  129OSM    O1113831   6.242   1.096   6.355  0.3778  0.0095  0.2931
  129OSM    O1213832   6.389   1.213   6.168  0.1840  0.7453 -0.7938
  129OSM    C1S13833   6.264   1.192   6.457 -0.3024 -0.3118 -0.4333
  129OSM    H1S13834   6.192   1.276   6.447  0.3129  0.5203  1.8876
  129OSM    H1T13835   6.367   1.231   6.444 -0.2360 -0.4570 -0.3366
  129OSM     NF13836   6.255   1.243   6.708 -0.3678  0.1426 -0.1623
  129OSM    HNF13837   6.343   1.255   6.753 -1.5664 -1.0437  2.5872
  129OSM    C2S13838   6.250   1.134   6.603  0.2710  0.1272  0.0143
  129OSM    H2S13839   6.151   1.085   6.612 -0.0540  1.0357  1.5473
  129OSM    C3S13840   6.356   1.023   6.620 -0.3300 -0.1021 -0.3511
  129OSM    H3S13841   6.448   1.085   6.619 -1.0987  1.0368 -1.2967
  129OSM     O313842   6.367   0.930   6.506 -0.2782  0.4417  0.2712
  129OSM    HO313843   6.301   0.965   6.445  0.5893 -0.7285 -1.3786
  129OSM    C4S13844   6.339   0.938   6.742  0.3075  0.0050  0.4673
  129OSM    H4S13845   6.240   0.893   6.748  0.4800 -0.3904  0.3187
  129OSM    C5S13846   6.436   0.915   6.828  0.6691 -0.0895  0.5415
  129OSM    H5S13847   6.532   0.967   6.815 -0.1796  1.3726  0.0210
  129OSM    C6S13848   6.430   0.823   6.949  0.3174 -0.2248  0.5801
  129OSM    H6S13849   6.511   0.747   6.947 -0.8094 -1.4294 -0.0231
  129OSM    H6T13850   6.331   0.774   6.964 -1.3079  3.0909  1.2514
  129OSM    C7S13851   6.464   0.904   7.079  0.2048  1.2736  0.4732
  129OSM    H7S13852   6.408   0.854   7.161  1.2768 -1.0125 -0.1439
  129OSM    H7T13853   6.414   1.004   7.075  0.8117  1.5244 -2.1306
  129OSM    C8S13854   6.612   0.923   7.099  0.2653  0.2871  0.1956
  129OSM    H8S13855   6.644   0.978   7.008 -0.4658 -0.1444 -0.3304
  129OSM    H8T13856   6.655   0.822   7.113  0.0924  0.3771  1.4747
  129OSM    C9S13857   6.637   1.002   7.223 -0.1159 -0.2932  0.8404
  129OSM    H9S13858   6.574   1.093   7.210 -0.5697 -0.8316 -0.9420
  129OSM    H9T13859   6.745   1.025   7.232 -0.0740 -0.5355  0.9502
  129OSM   C10S13860   6.593   0.934   7.354 -0.2176  0.3064 -0.0270
  129OSM   H10S13861   6.621   0.827   7.359  1.4690  0.8374  2.6074
  129OSM   H10T13862   6.482   0.933   7.354 -0.2175 -0.7401 -0.4427
  129OSM   C11S13863   6.643   1.009   7.485 -0.3996 -0.6156 -0.2447
  129OSM   H11S13864   6.610   1.115   7.483 -0.4291 -0.6118  0.2143
  129OSM   H11T13865   6.754   1.009   7.484 -0.3804 -2.7480  0.1121
  129OSM   C12S13866   6.594   0.948   7.609  0.5063 -0.1451  0.0637
  129OSM   H12S13867   6.488   0.974   7.627 -0.1818 -1.1130 -2.4488
  129OSM   H12T13868   6.641   1.000   7.696  2.8142 -0.0260 -1.1979
  129OSM   C13S13869   6.612   0.794   7.634 -0.1335 -0.3223 -0.1340
  129OSM   H13S13870   6.703   0.746   7.592 -0.3808 -1.2451  0.3734
  129OSM   H13T13871   6.533   0.751   7.569  0.3129 -0.4812 -0.5736
  129OSM   C14S13872   6.576   0.750   7.777 -0.4093  0.3417 -0.5813
  129OSM   H14S13873   6.469   0.776   7.788 -0.8231 -0.4524 -2.5765
  129OSM   H14T13874   6.644   0.806   7.844  0.8037 -1.1524 -0.5280
  129OSM   C15S13875   6.593   0.596   7.785  0.5505 -0.1654 -0.8592
  129OSM   H15S13876   6.698   0.565   7.768  0.8585 -0.1262  0.8780
  129OSM   H15T13877   6.544   0.558   7.693 -1.1797 -1.0601  0.3771
  129OSM   C16S13878   6.543   0.535   7.917  0.1171 -0.5797  0.4109
  129OSM   H16S13879   6.546   0.425   7.900  2.0477 -0.4760 -0.0036
  129OSM   H16T13880   6.442   0.572   7.944 -0.0803  0.4593 -1.7228
  129OSM   C17S13881   6.643   0.543   8.032  0.3637 -0.2967  1.2178
  129OSM   H17S13882   6.649   0.649   8.065 -1.5387 -0.2344  1.4177
  129OSM   H17T13883   6.747   0.525   7.995 -0.4802 -0.3062 -1.2219
  129OSM   C18S13884   6.630   0.450   8.151 -0.4154 -0.8141 -0.3680
  129OSM   H18S13885   6.534   0.457   8.207 -0.8041 -0.5104 -1.0734
  129OSM   H18T13886   6.718   0.451   8.220 -1.0971  1.9851  0.5037
  129OSM   H18U13887   6.626   0.349   8.105  2.7015 -0.9575 -0.4161
  129OSM    C1F13888   6.161   1.337   6.724 -0.3730  0.9743  0.0711
  129OSM     OF13889   6.049   1.313   6.683  0.0912 -0.0185 -0.6643
  129OSM    C2F13890   6.197   1.474   6.784  0.4976 -0.4032 -0.8868
  129OSM    H2F13891   6.144   1.552   6.725 -1.2770 -1.3682 -0.6035
  129OSM    H2G13892   6.304   1.500   6.769  0.9164 -0.4348  1.9219
  129OSM    C3F13893   6.159   1.504   6.937  0.4963 -0.3710  0.4093
  129OSM    H3F13894   6.052   1.476   6.940  0.0491  1.2078 -0.0711
  129OSM    H3G13895   6.160   1.615   6.942 -1.3451 -0.4297  3.0852
  129OSM    C4F13896   6.256   1.434   7.030 -0.0408 -0.0509  0.4015
  129OSM    H4F13897   6.357   1.473   7.002  1.2812 -1.8273  2.4920
  129OSM    H4G13898   6.258   1.325   7.011 -3.5753 -0.1104  0.0786
  129OSM    C5F13899   6.237   1.472   7.177 -0.0916 -0.1098  0.8286
  129OSM    H5F13900   6.128   1.484   7.198 -0.4437 -1.5685 -0.1249
  129OSM    H5G13901   6.291   1.567   7.198 -0.8036  0.1117  1.6921
  129OSM    C6F13902   6.306   1.373   7.272  0.0993  0.6993  0.0347
  129OSM    H6F13903   6.414   1.390   7.252  0.3886 -0.9295  0.1737
  129OSM    H6G13904   6.280   1.269   7.245 -0.4218  0.3940  1.6634
  129OSM    C7F13905   6.276   1.401   7.415 -0.3235 -0.7432 -0.5291
  129OSM    H7F13906   6.171   1.377   7.442 -0.2539 -1.0286 -0.5027
  129OSM    H7G13907   6.287   1.509   7.434 -0.2459 -0.7903 -0.3043
  129OSM    C8F13908   6.353   1.330   7.525  0.6604 -0.0421 -0.4552
  129OSM    H8F13909   6.345   1.227   7.485 -0.0568  0.1432 -0.8037
  129OSM    H8G13910   6.295   1.355   7.617  3.1525 -1.4193  1.5332
  129OSM    C9F13911   6.491   1.359   7.553  0.2231 -0.5612  0.2475
  129OSM    H9F13912   6.541   1.401   7.464 -0.8723 -0.6590 -0.4139
  129OSM   C10F13913   6.559   1.347   7.666  0.3537  0.9357  0.2681
  129OSM   H10F13914   6.668   1.363   7.665  0.3303  1.1502 -1.4804
  129OSM   C11F13915   6.501   1.291   7.793  0.1309  0.3604  0.0562
  129OSM   H11F13916   6.426   1.211   7.777 -0.5383  0.3050  3.0660
  129OSM   H11G13917   6.436   1.367   7.842 -0.6615 -0.7601  0.7497
  129OSM   C12F13918   6.607   1.242   7.895  0.0695  0.1220 -0.0096
  129OSM   H12F13919   6.691   1.309   7.922  1.2084 -1.4775  0.4544
  129OSM   H12G13920   6.660   1.150   7.862  1.2671  0.5144  0.8232
  129OSM   C13F13921   6.539   1.216   8.030  0.3080 -1.0504 -0.1632
  129OSM   H13F13922   6.433   1.186   8.015  0.6276 -2.9071  1.2088
  129OSM   H13G13923   6.549   1.297   8.106  2.0500  0.4182 -1.8938
  129OSM   C14F13924   6.603   1.094   8.100  0.2316 -0.5229  0.1155
  129OSM   H14F13925   6.699   1.140   8.130 -0.5803  1.3674 -0.1138
  129OSM   H14G13926   6.603   1.010   8.027  3.1515  0.6826 -1.3118
  129OSM   C15F13927   6.525   1.053   8.228 -0.0702  0.4951 -0.2153
  129OSM   H15F13928   6.421   1.020   8.210  0.0511  0.2125 -0.4163
  129OSM   H15G13929   6.527   1.138   8.300  0.8474  0.9148 -0.7228
  129OSM   C16F13930   6.604   0.941   8.292  0.4758  0.5095 -0.1701
  129OSM   H16F13931   6.714   0.960   8.298  0.5764  0.1215 -0.6834
  129OSM   H16G13932   6.590   0.851   8.229  0.8973 -0.6483  1.3549
  129OSM   C17F13933   6.552   0.909   8.436  0.4774 -0.4502  0.2164
  129OSM   H17F13934   6.444   0.883   8.427 -0.0798  2.0125 -0.5351
  129OSM   H17G13935   6.545   1.003   8.494  2.5823 -2.2470  3.5337
  129OSM   C18F13936   6.645   0.815   8.514  0.3847  0.5970  0.0942
  129OSM   H18F13937   6.745   0.857   8.538  0.1750 -0.3651  2.8999
  129OSM   H18G13938   6.655   0.718   8.460  1.9905 -0.6069  2.4401
  129OSM   H18H13939   6.592   0.806   8.612 -2.1291 -0.8433 -1.3492
  130OSM      N13940   2.803   3.637   5.608  0.3155  0.0198 -0.4251
  130OSM    C1513941   2.759   3.506   5.647 -0.8037  0.2248  1.1117
  130OSM   H15A13942   2.656   3.516   5.676 -0.8923 -0.2499  0.9748
  130OSM   H15B13943   2.812   3.480   5.737 -0.1801  0.9863  0.9749
  130OSM   H15C13944   2.780   3.429   5.574 -1.0922  0.6139  0.6166
  130OSM    C1413945   2.929   3.629   5.522 -0.4542 -0.8267 -0.5852
  130OSM   H14A13946   2.960   3.723   5.478 -1.6828 -0.8765 -1.5877
  130OSM   H14B13947   2.906   3.562   5.441  0.4093  0.6995 -2.1180
  130OSM   H14C13948   3.019   3.598   5.572 -0.9038  0.7202  1.2838
  130OSM    C1313949   2.688   3.702   5.532 -0.5426 -0.1008  0.0755
  130OSM   H13A13950   2.613   3.748   5.595  0.3744  3.2584 -1.2418
  130OSM   H13B13951   2.635   3.630   5.471  1.3663 -2.7081  1.3844
  130OSM   H13C13952   2.728   3.776   5.465  1.5606 -1.6183 -0.3912
  130OSM    C1213953   2.820   3.721   5.733  0.2117  0.3247 -0.1751
  130OSM   H12A13954   2.863   3.818   5.713  2.5131 -0.6628 -0.2815
  130OSM   H12B13955   2.898   3.675   5.791 -0.5813 -1.4245 -0.4683
  130OSM    C1113956   2.698   3.728   5.831 -0.7257  0.0053 -0.3845
  130OSM   H11A13957   2.608   3.766   5.777 -0.6473  3.7601  1.9178
  130OSM   H11B13958   2.718   3.815   5.897  0.9212 -1.4440  1.0686
  130OSM      P13959   2.767   3.572   6.021  0.1451  0.1184  0.2367
  130OSM    O1313960   2.703   3.482   6.113  0.7171  0.2241  0.2085
  130OSM    O1413961   2.884   3.511   5.953 -0.6243 -0.4986 -0.0416
  130OSM    O1113962   2.826   3.695   6.095  0.6279 -0.1559 -0.4725
  130OSM    O1213963   2.669   3.611   5.911 -0.2545  0.2435  0.2965
  130OSM    C1S13964   2.751   3.763   6.200  0.1918 -0.7136 -0.4239
  130OSM    H1S13965   2.652   3.714   6.211  0.7280 -1.4642  1.1539
  130OSM    H1T13966   2.719   3.865   6.171 -1.7946 -1.0897  0.3359
  130OSM     NF13967   2.731   3.800   6.446 -0.3716  0.1125 -0.7005
  130OSM    HNF13968   2.774   3.869   6.504 -1.7485  0.8796 -0.5579
  130OSM    C2S13969   2.819   3.742   6.343  0.5713 -0.0817 -0.4535
  130OSM    H2S13970   2.829   3.634   6.366 -0.0464 -0.2559 -0.9939
  130OSM    C3S13971   2.959   3.799   6.340 -0.2529 -0.4958 -0.1228
  130OSM    H3S13972   2.961   3.907   6.315  0.8651 -0.8177 -1.4787
  130OSM     O313973   3.039   3.736   6.239  0.2331 -0.0302 -0.6433
  130OSM    HO313974   2.980   3.698   6.173 -2.1640  2.3000  0.0462
  130OSM    C4S13975   3.017   3.791   6.483 -0.3214  0.0120  0.0486
  130OSM    H4S13976   2.960   3.845   6.560  0.1063 -0.8728  1.0043
  130OSM    C5S13977   3.112   3.705   6.521  0.4554 -0.5493  0.1556
  130OSM    H5S13978   3.153   3.636   6.446 -0.9109 -3.7059  2.1954
  130OSM    C6S13979   3.162   3.690   6.659 -1.0968  0.4060  0.3736
  130OSM    H6S13980   3.268   3.721   6.666 -1.2595  1.2646 -0.7488
  130OSM    H6T13981   3.165   3.582   6.683  3.9751  0.0314 -1.3370
  130OSM    C7S13982   3.077   3.744   6.772 -1.0582  0.3971  0.0778
  130OSM    H7S13983   2.981   3.689   6.765 -0.9090  0.0682  0.5715
  130OSM    H7T13984   3.056   3.853   6.770 -0.3698  0.5202 -2.2957
  130OSM    C8S13985   3.132   3.713   6.914  0.5604 -0.2611  0.2682
  130OSM    H8S13986   3.236   3.751   6.910  0.8470 -0.6927  2.9095
  130OSM    H8T13987   3.135   3.604   6.935  0.9008  0.0741  2.0498
  130OSM    C9S13988   3.050   3.771   7.038  0.2718  0.1040 -0.3909
  130OSM    H9S13989   2.948   3.728   7.048  1.1434 -1.7977  0.4649
  130OSM    H9T13990   3.047   3.882   7.028  0.2325  0.1778  0.4715
  130OSM   C10S13991   3.131   3.730   7.158  0.1995  0.1420  0.0764
  130OSM   H10S13992   3.234   3.770   7.147  0.0703  0.9902  1.7438
  130OSM   H10T13993   3.135   3.619   7.167 -0.3925  0.1586  0.6042
  130OSM   C11S13994   3.081   3.787   7.287 -0.1500  0.0956  1.1493
  130OSM   H11S13995   2.980   3.742   7.298 -0.3241  0.0752 -0.4564
  130OSM   H11T13996   3.062   3.896   7.286 -0.7268  0.0074 -0.6377
  130OSM   C12S13997   3.181   3.759   7.404 -0.7045  0.2988  0.0092
  130OSM   H12S13998   3.277   3.812   7.389  0.1115 -0.9012  0.9231
  130OSM   H12T13999   3.209   3.652   7.407  0.0207  0.5033  0.6289
  130OSM   C13S14000   3.121   3.798   7.538  0.1650  0.1821  0.4993
  130OSM   H13S14001   3.017   3.762   7.533 -0.1085  0.7248  2.1255
  130OSM   H13T14002   3.119   3.906   7.563 -1.8459 -0.3486  2.8023
  130OSM   C14S14003   3.207   3.728   7.646  0.5934  0.3965  0.2477
  130OSM   H14S14004   3.314   3.746   7.623  0.4676  0.2770 -0.4433
  130OSM   H14T14005   3.186   3.619   7.651  0.9299  0.3674  1.1868
  130OSM   C15S14006   3.171   3.782   7.786  0.5507  0.1323  1.1531
  130OSM   H15S14007   3.067   3.775   7.823 -0.7218  0.0787 -2.2243
  130OSM   H15T14008   3.184   3.892   7.793  2.7335 -0.0607  0.4864
  130OSM   C16S14009   3.259   3.717   7.892 -0.3837 -0.4443  0.5662
  130OSM   H16S14010   3.367   3.728   7.867  0.0928 -2.7691  1.4863
  130OSM   H16T14011   3.242   3.608   7.882 -1.0383 -0.2744 -0.1831
  130OSM   C17S14012   3.223   3.782   8.026 -0.2710 -0.0282  0.8541
  130OSM   H17S14013   3.118   3.756   8.048 -0.8217 -0.0315 -1.6959
  130OSM   H17T14014   3.231   3.892   8.012 -0.2371 -0.1328  0.0011
  130OSM   C18S14015   3.316   3.750   8.147  0.3008 -0.6986 -0.6848
  130OSM   H18S14016   3.264   3.792   8.236  0.0496 -0.0133 -1.1475
  130OSM   H18T14017   3.420   3.788   8.141  0.0803  0.9479  3.7432
  130OSM   H18U14018   3.324   3.643   8.174  2.6195 -0.7483 -1.5208
  130OSM    C1F14019   2.606   3.763   6.463 -0.3608  0.9849  0.2202
  130OSM     OF14020   2.550   3.663   6.425 -0.0933  0.2074 -0.2498
  130OSM    C2F14021   2.524   3.851   6.545 -0.0977  0.0142  0.0910
  130OSM    H2F14022   2.506   3.947   6.491  2.1925  1.1863  1.3503
  130OSM    H2G14023   2.581   3.872   6.638 -0.1302 -0.4778  0.2179
  130OSM    C3F14024   2.384   3.795   6.583  0.2432 -0.1544 -0.3586
  130OSM    H3F14025   2.398   3.702   6.642 -0.7187 -0.3015 -0.3533
  130OSM    H3G14026   2.325   3.771   6.492  0.1068 -1.9797  0.1824
  130OSM    C4F14027   2.302   3.894   6.666  0.4193 -0.7563 -0.3216
  130OSM    H4F14028   2.296   3.990   6.610  0.1389  0.5889  1.9516
  130OSM    H4G14029   2.356   3.921   6.759 -0.3486  1.6086 -0.5335
  130OSM    C5F14030   2.163   3.843   6.707 -0.4833  0.3346 -0.6728
  130OSM    H5F14031   2.091   3.835   6.623 -2.2902 -0.0725  0.8835
  130OSM    H5G14032   2.119   3.926   6.766 -0.0834 -0.7673  1.2313
  130OSM    C6F14033   2.167   3.718   6.798 -0.4101  0.9474  0.5533
  130OSM    H6F14034   2.251   3.734   6.869 -0.1539  0.1038  0.4503
  130OSM    H6G14035   2.187   3.623   6.744  2.3980  0.3569  2.5047
  130OSM    C7F14036   2.041   3.698   6.878  0.1835  0.0338 -0.0055
  130OSM    H7F14037   1.954   3.675   6.813  0.0323 -0.2789  0.3067
  130OSM    H7G14038   2.015   3.793   6.930  1.0961 -1.0667  2.5404
  130OSM    C8F14039   2.048   3.576   6.988 -0.6825 -0.7149  0.9474
  130OSM    H8F14040   2.073   3.488   6.926  0.5970 -0.8619  1.6388
  130OSM    H8G14041   1.944   3.568   7.026 -1.3165  0.4477 -0.4711
  130OSM    C9F14042   2.150   3.594   7.099 -0.5152 -0.1109  0.1058
  130OSM    H9F14043   2.256   3.584   7.072  0.2949  1.6112  2.4462
  130OSM   C10F14044   2.114   3.624   7.225  0.3682  0.6406  0.1454
  130OSM   H10F14045   2.198   3.638   7.295  0.2174 -0.6509  0.5894
  130OSM   C11F14046   1.976   3.645   7.281  1.4773  0.2243 -0.3670
  130OSM   H11F14047   1.892   3.653   7.210  1.7358 -1.9076 -0.9457
  130OSM   H11G14048   1.971   3.740   7.339 -0.4222  1.2171 -2.1071
  130OSM   C12F14049   1.933   3.534   7.374  0.2399  0.4729 -0.1554
  130OSM   H12F14050   1.925   3.438   7.319  1.6780 -1.4086  2.7521
  130OSM   H12G14051   1.835   3.554   7.424 -0.2978 -4.6386  1.1426
  130OSM   C13F14052   2.035   3.501   7.487 -0.2949  0.4689 -1.0800
  130OSM   H13F14053   2.046   3.595   7.545  0.8773 -0.1348 -0.3091
  130OSM   H13G14054   2.133   3.463   7.449  0.1186 -1.4806  1.8633
  130OSM   C14F14055   1.977   3.396   7.585 -0.7794 -0.2104 -0.0688
  130OSM   H14F14056   1.939   3.316   7.518 -0.8676 -0.0268 -0.2399
  130OSM   H14G14057   1.896   3.439   7.648 -1.7004 -0.0212 -1.3483
  130OSM   C15F14058   2.080   3.337   7.676 -0.5006  0.2234 -0.1089
  130OSM   H15F14059   2.154   3.275   7.621  1.7999 -0.0498  3.1159
  130OSM   H15G14060   2.025   3.267   7.744  0.3943 -0.1919  0.1963
  130OSM   C16F14061   2.156   3.442   7.763 -0.8640  0.3682  0.4102
  130OSM   H16F14062   2.226   3.496   7.696 -0.2268  2.1055  2.4221
  130OSM   H16G14063   2.228   3.388   7.828  0.4623 -0.3899 -1.6321
  130OSM   C17F14064   2.067   3.536   7.842  0.3973 -0.1844 -0.1289
  130OSM   H17F14065   1.987   3.481   7.897  1.1319  1.3647  2.5151
  130OSM   H17G14066   2.001   3.602   7.782  0.5362 -1.1411 -1.3651
  130OSM   C18F14067   2.141   3.615   7.947 -0.4887 -0.5276 -0.0371
  130OSM   H18F14068   2.240   3.649   7.909  1.8459 -2.1308  4.2584
  130OSM   H18G14069   2.159   3.544   8.030  1.3413 -1.4936 -1.2269
  130OSM   H18H14070   2.082   3.704   7.978  0.1706  0.4536 -1.5194
  131OSM      N14071   0.244   6.363   5.643 -0.0997  0.0156 -0.3144
  131OSM    C1514072   0.378   6.291   5.631  0.8366 -0.3442 -0.0237
  131OSM   H15A14073   0.368   6.197   5.579  3.9268 -0.8586  0.1894
  131OSM   H15B14074   0.423   6.269   5.727 -2.3062  0.2278  1.6559
  131OSM   H15C14075   0.454   6.344   5.575  1.7145 -0.2585  1.2349
  131OSM    C1414076   0.188   6.380   5.509 -0.1734 -1.3982  0.2310
  131OSM   H14A14077   0.262   6.429   5.448 -1.9925 -1.2391 -1.9086
  131OSM   H14B14078   0.095   6.434   5.516 -0.2881 -1.3762 -1.3307
  131OSM   H14C14079   0.167   6.293   5.448  0.0711  0.0609 -1.9859
  131OSM    C1314080   0.144   6.265   5.716 -0.0880  0.0977  0.1387
  131OSM   H13A14081   0.046   6.309   5.729  0.7897  1.5423  2.0054
  131OSM   H13B14082   0.179   6.242   5.815  1.4184  0.1440 -0.3686
  131OSM   H13C14083   0.129   6.182   5.648  0.1498  1.1781 -1.2637
  131OSM    C1214084   0.255   6.487   5.724 -0.2191 -0.2617 -0.7678
  131OSM   H12A14085   0.345   6.537   5.688  1.1157 -2.1588 -0.1280
  131OSM   H12B14086   0.290   6.458   5.822  0.4922 -0.7124 -1.1464
  131OSM    C1114087   0.139   6.582   5.740 -0.8316  0.1061 -0.1630
  131OSM   H11A14088   0.142   6.644   5.648  1.0451  0.2454 -0.0209
  131OSM   H11B14089   0.170   6.632   5.834 -0.9968 -1.9786  1.0399
  131OSM      P14090  -0.057   6.492   5.888 -0.0587  0.4896 -0.3322
  131OSM    O1314091  -0.111   6.615   5.947  0.0095 -0.4309 -0.2880
  131OSM    O1414092  -0.150   6.381   5.864 -0.5154  0.1239  0.1077
  131OSM    O1114093   0.064   6.447   5.975  0.0877 -0.1250 -0.3381
  131OSM    O1214094   0.012   6.520   5.749 -0.1342  0.3457 -0.4335
  131OSM    C1S14095   0.072   6.468   6.117 -0.8525 -0.2765  0.0841
  131OSM    H1S14096  -0.028   6.490   6.160 -0.5182  0.7356  0.3730
  131OSM    H1T14097   0.148   6.543   6.148 -0.5930 -0.0467 -1.0843
  131OSM     NF14098   0.135   6.372   6.334  0.0334  0.1817 -0.0641
  131OSM    HNF14099   0.229   6.389   6.361 -0.0994  0.8017  0.0095
  131OSM    C2S14100   0.116   6.340   6.199  0.0215 -0.0972  0.0225
  131OSM    H2S14101   0.031   6.270   6.186 -0.1541  0.0725  0.2579
  131OSM    C3S14102   0.246   6.292   6.131  0.0985  0.2236 -0.6168
  131OSM    H3S14103   0.312   6.380   6.119 -0.6949  0.5262 -2.9798
  131OSM     O314104   0.226   6.229   6.010 -0.3821  0.3715 -0.2882
  131OSM    HO314105   0.141   6.258   5.977 -1.5503 -2.5871 -0.0468
  131OSM    C4S14106   0.313   6.192   6.218  0.4355 -0.4531 -0.3578
  131OSM    H4S14107   0.255   6.098   6.227 -1.7507  1.1725  4.1085
  131OSM    C5S14108   0.434   6.212   6.266  0.0204  0.0648 -0.3621
  131OSM    H5S14109   0.487   6.304   6.240  1.3269 -0.1231  1.5167
  131OSM    C6S14110   0.496   6.104   6.349  0.3215  0.4491 -0.3069
  131OSM    H6S14111   0.596   6.085   6.304  0.9043  1.3170  0.5828
  131OSM    H6T14112   0.450   6.003   6.350 -0.5495  0.8399 -0.7189
  131OSM    C7S14113   0.510   6.151   6.497 -0.9621  0.7744 -0.3382
  131OSM    H7S14114   0.573   6.242   6.505  0.5370 -0.3790  1.5765
  131OSM    H7T14115   0.568   6.071   6.548 -2.3438  0.2871  0.5142
  131OSM    C8S14116   0.380   6.173   6.576 -0.2628  0.0833 -0.0713
  131OSM    H8S14117   0.320   6.080   6.582 -0.3366  0.0492 -1.2344
  131OSM    H8T14118   0.324   6.249   6.517  0.8094  2.5358  1.9722
  131OSM    C9S14119   0.398   6.239   6.714  0.6578 -0.3278  1.1273
  131OSM    H9S14120   0.303   6.270   6.763  0.8324  1.2108  0.5052
  131OSM    H9T14121   0.454   6.334   6.701 -1.6539  0.8536 -0.4674
  131OSM   C10S14122   0.473   6.152   6.806 -0.1262  0.2861 -0.4331
  131OSM   H10S14123   0.573   6.117   6.773 -0.1199 -0.6837  0.5520
  131OSM   H10T14124   0.411   6.059   6.806 -0.7872  0.7213  0.2506
  131OSM   C11S14125   0.482   6.203   6.951 -0.6290 -0.3058 -0.2706
  131OSM   H11S14126   0.383   6.244   6.981 -0.6341 -0.3220 -0.2651
  131OSM   H11T14127   0.551   6.288   6.928 -1.0196 -0.5012 -2.3112
  131OSM   C12S14128   0.528   6.097   7.051 -0.7197 -0.4412  0.0561
  131OSM   H12S14129   0.591   6.028   6.991 -0.5788 -0.7388  0.5432
  131OSM   H12T14130   0.456   6.023   7.093 -1.5519  1.7289  2.5732
  131OSM   C13S14131   0.607   6.142   7.167 -0.9882 -1.0182 -0.0298
  131OSM   H13S14132   0.544   6.206   7.233  0.8522 -1.2659  1.9967
  131OSM   H13T14133   0.691   6.203   7.129  0.2672 -1.1311  2.4664
  131OSM   C14S14134   0.666   6.028   7.238 -1.0491 -0.4522 -0.2078
  131OSM   H14S14135   0.723   5.968   7.164 -0.5317 -1.9226  1.3687
  131OSM   H14T14136   0.586   5.969   7.287 -1.4688  0.5570  0.3361
  131OSM   C15S14137   0.770   6.075   7.346  0.1504 -0.2428  0.3521
  131OSM   H15S14138   0.821   6.167   7.311  0.8157  0.0819  2.1509
  131OSM   H15T14139   0.842   5.991   7.355  0.0539 -0.0834  2.8368
  131OSM   C16S14140   0.714   6.107   7.490  0.1350 -0.4313  0.0195
  131OSM   H16S14141   0.627   6.175   7.486  0.1314 -0.3158  1.6194
  131OSM   H16T14142   0.798   6.155   7.545 -0.1385  2.0478 -1.6889
  131OSM   C17S14143   0.681   5.976   7.563  0.5497  0.2082  0.4196
  131OSM   H17S14144   0.776   5.924   7.588  2.4173  2.3273 -2.0064
  131OSM   H17T14145   0.628   5.919   7.483 -1.4668  1.2713  0.9683
  131OSM   C18S14146   0.592   5.994   7.691 -0.5019  0.1109  0.0378
  131OSM   H18S14147   0.588   5.891   7.734 -0.6149  0.1765  0.1862
  131OSM   H18T14148   0.487   6.021   7.668  0.4097  1.2090 -3.0145
  131OSM   H18U14149   0.637   6.068   7.760 -0.6294  1.2935 -1.1279
  131OSM    C1F14150   0.036   6.398   6.417  0.4064 -0.0956  0.4176
  131OSM     OF14151  -0.078   6.359   6.384  0.1039  0.2080  0.3832
  131OSM    C2F14152   0.075   6.456   6.551 -0.4411 -0.1899 -0.1580
  131OSM    H2F14153   0.076   6.566   6.533 -0.4062 -0.3533 -1.2052
  131OSM    H2G14154   0.180   6.423   6.563  0.4367  2.2991 -0.5870
  131OSM    C3F14155  -0.018   6.415   6.668 -0.7932  0.3056  0.4635
  131OSM    H3F14156  -0.124   6.431   6.643 -0.5760  0.3894 -0.4133
  131OSM    H3G14157   0.003   6.489   6.748  1.5843  0.8155 -0.5699
  131OSM    C4F14158  -0.005   6.275   6.719 -0.6685 -0.6216  0.1055
  131OSM    H4F14159   0.103   6.263   6.744 -0.4994 -0.6298 -0.5994
  131OSM    H4G14160  -0.032   6.198   6.643  2.6214 -1.4304 -0.3199
  131OSM    C5F14161  -0.096   6.261   6.842 -1.1652  0.2663  0.5379
  131OSM    H5F14162  -0.197   6.296   6.813 -1.3494 -2.5449 -2.5805
  131OSM    H5G14163  -0.059   6.321   6.928  2.8518 -2.2919  0.7210
  131OSM    C6F14164  -0.096   6.120   6.906  0.5663 -0.7501 -0.5659
  131OSM    H6F14165  -0.126   6.049   6.826 -0.1883  1.7239 -2.5423
  131OSM    H6G14166  -0.171   6.123   6.988  1.6669  2.0086  0.3587
  131OSM    C7F14167   0.036   6.070   6.957  0.2797  0.3539 -0.0716
  131OSM    H7F14168   0.075   6.142   7.032 -1.8961 -0.8335  2.2500
  131OSM    H7G14169   0.110   6.053   6.876  1.3101 -0.9212  1.1178
  131OSM    C8F14170   0.021   5.933   7.028 -0.9514 -0.1455 -0.3733
  131OSM    H8F14171  -0.024   5.864   6.954  0.5481 -1.0965 -0.4326
  131OSM    H8G14172  -0.052   5.955   7.109 -1.1579  0.4775 -0.7251
  131OSM    C9F14173   0.152   5.884   7.081  0.0666 -0.2977  0.0493
  131OSM    H9F14174   0.232   5.877   7.005  1.4813  0.4134  1.4355
  131OSM   C10F14175   0.189   5.873   7.211 -0.0394  0.3127 -0.7770
  131OSM   H10F14176   0.291   5.844   7.240  0.3721  2.4995  0.0288
  131OSM   C11F14177   0.096   5.905   7.327  0.4386 -0.0139  0.0204
  131OSM   H11F14178   0.117   5.835   7.411  1.3915  1.0414  0.6792
  131OSM   H11G14179  -0.008   5.884   7.294 -0.3487  2.0154  1.1102
  131OSM   C12F14180   0.109   6.055   7.384  0.1150  0.9948  0.0379
  131OSM   H12F14181   0.040   6.078   7.468  0.6555  0.8115  0.5375
  131OSM   H12G14182   0.080   6.111   7.293 -0.0257 -0.8755 -1.0890
  131OSM   C13F14183   0.252   6.100   7.412 -0.0389 -0.3777 -0.4265
  131OSM   H13F14184   0.309   6.096   7.317  1.3316  0.0454  0.3705
  131OSM   H13G14185   0.303   6.028   7.479 -1.4638  0.5309  1.6864
  131OSM   C14F14186   0.271   6.243   7.458 -0.4383  0.1412  0.6812
  131OSM   H14F14187   0.379   6.262   7.446 -0.5351  1.1162  1.3498
  131OSM   H14G14188   0.226   6.260   7.558  0.6069 -0.6726  1.2910
  131OSM   C15F14189   0.199   6.339   7.360  0.8127  0.3019  0.4355
  131OSM   H15F14190   0.223   6.442   7.396 -0.7422  0.5417  0.7965
  131OSM   H15G14191   0.092   6.318   7.376  0.7864 -2.6462 -3.1945
  131OSM   C16F14192   0.235   6.342   7.213  0.2708 -0.2279  0.0104
  131OSM   H16F14193   0.221   6.239   7.174  1.7908 -0.7900  0.9117
  131OSM   H16G14194   0.339   6.376   7.194  0.1491  0.4110  0.4814
  131OSM   C17F14195   0.144   6.437   7.138 -0.6700 -0.2320  0.1422
  131OSM   H17F14196   0.134   6.533   7.194  1.6643  0.0705  0.0911
  131OSM   H17G14197   0.047   6.383   7.139 -1.2832  0.8184 -0.9656
  131OSM   C18F14198   0.185   6.465   6.991  0.1635 -0.2384  0.2614
  131OSM   H18F14199   0.114   6.535   6.941 -0.3517  0.6934  2.2154
  131OSM   H18G14200   0.186   6.371   6.932 -1.0543  1.0348 -1.8319
  131OSM   H18H14201   0.289   6.504   6.991  0.4178 -0.9119  0.5051
  132OSM      N14202   1.664   1.238   6.132 -0.0156 -0.0259 -0.0080
  132OSM    C1514203   1.756   1.301   6.038  0.0874 -0.5260  0.0399
  132OSM   H15A14204   1.732   1.267   5.938 -0.8974 -0.8423  0.3874
  132OSM   H15B14205   1.855   1.276   6.073  0.1051  0.9420  1.0763
  132OSM   H15C14206   1.743   1.408   6.045 -0.4036 -0.5350 -0.6680
  132OSM    C1414207   1.532   1.306   6.123 -0.0794 -0.4322  0.6684
  132OSM   H14A14208   1.547   1.408   6.155 -1.9870 -0.1474  0.7428
  132OSM   H14B14209   1.456   1.269   6.190 -2.0132  1.4735 -0.3927
  132OSM   H14C14210   1.481   1.312   6.028  1.5840 -0.1199 -0.2117
  132OSM    C1314211   1.636   1.096   6.091 -0.2364  0.2688  0.4779
  132OSM   H13A14212   1.734   1.054   6.075 -0.3773  0.0638  0.1606
  132OSM   H13B14213   1.576   1.104   6.002 -0.6101 -0.4911  0.6572
  132OSM   H13C14214   1.580   1.042   6.166 -0.0870  0.7256  0.9261
  132OSM    C1214215   1.713   1.252   6.276  0.2307 -0.0582  0.3174
  132OSM   H12A14216   1.793   1.182   6.295 -0.1127  0.2321  3.1312
  132OSM   H12B14217   1.640   1.226   6.351 -0.6773  0.8320 -0.2434
  132OSM    C1114218   1.759   1.396   6.315  0.2572 -0.0516 -0.2585
  132OSM   H11A14219   1.850   1.413   6.254  1.6074 -0.7578  1.5356
  132OSM   H11B14220   1.791   1.394   6.421  0.8639  1.1583 -0.4133
  132OSM      P14221   1.544   1.545   6.377 -0.0294 -0.2528 -0.0131
  132OSM    O1314222   1.496   1.674   6.314 -0.4495  0.0135 -0.5195
  132OSM    O1414223   1.445   1.432   6.387  0.4472  0.0069  0.0528
  132OSM    O1114224   1.616   1.570   6.518  0.4590  0.1763 -0.0528
  132OSM    O1214225   1.662   1.493   6.289 -0.3211 -0.3804  0.1701
  132OSM    C1S14226   1.573   1.498   6.629  0.2497  0.4038  0.7258
  132OSM    H1S14227   1.596   1.391   6.609  0.4484  1.1137 -3.2178
  132OSM    H1T14228   1.466   1.513   6.657  0.2465 -0.0532  0.9631
  132OSM     NF14229   1.625   1.441   6.857 -0.1820 -0.0802  0.1355
  132OSM    HNF14230   1.566   1.462   6.935 -2.6722  0.1833 -1.7617
  132OSM    C2S14231   1.645   1.543   6.759 -0.1537 -0.7917  0.1649
  132OSM    H2S14232   1.754   1.546   6.738 -0.3016 -0.3343 -0.5523
  132OSM    C3S14233   1.584   1.683   6.797 -0.4267 -0.7972  0.0729
  132OSM    H3S14234   1.475   1.684   6.818 -0.4133  0.3638  0.1054
  132OSM     O314235   1.592   1.779   6.696 -0.1268  0.2983 -0.0007
  132OSM    HO314236   1.599   1.731   6.613 -3.4465  3.5852 -2.4051
  132OSM    C4S14237   1.627   1.721   6.935  0.5527 -0.0930 -0.0013
  132OSM    H4S14238   1.539   1.720   7.001  1.7243  2.3734  1.7071
  132OSM    C5S14239   1.737   1.783   6.978  0.2891  0.1572  0.6716
  132OSM    H5S14240   1.806   1.821   6.902  1.6382  1.3928  2.4784
  132OSM    C6S14241   1.762   1.837   7.113  0.8468  0.0640 -0.2063
  132OSM    H6S14242   1.802   1.940   7.100 -3.2425  1.9034  0.8826
  132OSM    H6T14243   1.845   1.776   7.153 -0.7598 -2.6992 -0.9761
  132OSM    C7S14244   1.649   1.835   7.214 -0.0766 -0.0984 -0.4370
  132OSM    H7S14245   1.608   1.735   7.241 -0.0315 -0.2900 -1.0669
  132OSM    H7T14246   1.553   1.883   7.184 -1.3551 -1.2119  1.7188
  132OSM    C8S14247   1.693   1.912   7.348 -0.2773  0.5996  0.7930
  132OSM    H8S14248   1.730   2.016   7.337  0.0693  0.8200  3.7353
  132OSM    H8T14249   1.784   1.858   7.382 -1.4823 -1.2441  1.1596
  132OSM    C9S14250   1.590   1.907   7.456  1.1001  0.4776 -0.1015
  132OSM    H9S14251   1.535   1.813   7.435  1.3252  0.3494 -0.1181
  132OSM    H9T14252   1.517   1.988   7.436  1.5456  0.8533 -0.2269
  132OSM   C10S14253   1.639   1.907   7.601  0.8641 -0.1224  1.0218
  132OSM   H10S14254   1.742   1.945   7.589  0.8597 -0.8690 -1.7943
  132OSM   H10T14255   1.653   1.799   7.622  1.7842 -0.5643 -1.6731
  132OSM   C11S14256   1.560   1.989   7.703  0.8464 -0.1908  0.6229
  132OSM   H11S14257   1.464   1.935   7.719 -0.9579  2.0132 -2.2593
  132OSM   H11T14258   1.528   2.092   7.676  3.9104  0.6662  0.0859
  132OSM   C12S14259   1.633   2.004   7.832  0.6273  0.1227 -0.2627
  132OSM   H12S14260   1.726   2.061   7.808 -0.2278  1.4811 -0.4363
  132OSM   H12T14261   1.674   1.912   7.879  3.1047  1.4884  0.3894
  132OSM   C13S14262   1.553   2.072   7.940  0.6572 -0.3274  0.0139
  132OSM   H13S14263   1.463   2.008   7.945  0.6340 -0.1995  1.8964
  132OSM   H13T14264   1.522   2.170   7.899  1.2592 -0.9708 -1.9998
  132OSM   C14S14265   1.626   2.089   8.065  0.4567 -0.2398 -0.2917
  132OSM   H14S14266   1.715   2.156   8.066 -0.4559  1.1297 -3.3085
  132OSM   H14T14267   1.662   1.988   8.090  0.7954 -0.5069 -1.7710
  132OSM   C15S14268   1.523   2.142   8.179 -0.0191 -0.3987 -0.1620
  132OSM   H15S14269   1.439   2.070   8.172 -0.1047 -0.3591  0.4797
  132OSM   H15T14270   1.491   2.244   8.148  3.1237  0.4793 -0.7156
  132OSM   C16S14271   1.586   2.129   8.309  0.6847 -0.2378  1.1268
  132OSM   H16S14272   1.680   2.189   8.309 -0.0215  0.9393 -2.0632
  132OSM   H16T14273   1.592   2.023   8.341  3.6341  0.3068  2.6506
  132OSM   C17S14274   1.498   2.198   8.412 -0.3751  0.2691 -0.1758
  132OSM   H17S14275   1.391   2.173   8.397 -0.7750  2.3720 -0.9920
  132OSM   H17T14276   1.501   2.306   8.388 -0.7439 -0.1542 -2.2193
  132OSM   C18S14277   1.540   2.190   8.558  0.0348 -0.7085  0.2958
  132OSM   H18S14278   1.495   2.280   8.605  0.6288  0.4773 -1.3514
  132OSM   H18T14279   1.649   2.207   8.574  0.1193 -0.6176 -0.3885
  132OSM   H18U14280   1.498   2.103   8.613 -2.3186  0.9324  1.1626
  132OSM    C1F14281   1.697   1.328   6.860  0.5491 -0.0962  0.1178
  132OSM     OF14282   1.771   1.305   6.769 -0.6607  0.0735 -0.4754
  132OSM    C2F14283   1.669   1.244   6.975 -0.5760  0.3221 -0.4052
  132OSM    H2F14284   1.703   1.138   6.969  2.2366  1.1725 -0.4855
  132OSM    H2G14285   1.560   1.237   6.994 -0.8007  0.6606 -1.5582
  132OSM    C3F14286   1.740   1.306   7.100 -0.3240  0.0127  0.6358
  132OSM    H3F14287   1.721   1.416   7.103 -2.1306 -0.2296 -0.9299
  132OSM    H3G14288   1.848   1.300   7.075 -1.4073 -0.4918 -4.6827
  132OSM    C4F14289   1.706   1.232   7.224 -0.2085 -0.3082  1.0137
  132OSM    H4F14290   1.745   1.130   7.203  0.0744 -0.2653  1.3272
  132OSM    H4G14291   1.595   1.226   7.220 -0.1586 -1.1769  0.8696
  132OSM    C5F14292   1.757   1.283   7.357  0.4955 -1.4830  0.1840
  132OSM    H5F14293   1.867   1.298   7.353  0.5447 -1.8909 -0.0274
  132OSM    H5G14294   1.737   1.218   7.445 -0.5795 -1.3675  0.0377
  132OSM    C6F14295   1.683   1.413   7.392  0.4712  0.3048 -0.5611
  132OSM    H6F14296   1.574   1.393   7.406  0.2022  0.3050 -2.4148
  132OSM    H6G14297   1.686   1.485   7.307 -1.6199  0.3509 -0.6184
  132OSM    C7F14298   1.750   1.489   7.502  0.0344  0.7665  0.8747
  132OSM    H7F14299   1.754   1.598   7.478  0.3595  0.3850 -0.9118
  132OSM    H7G14300   1.856   1.457   7.498 -0.3039 -0.2602 -0.4919
  132OSM    C8F14301   1.698   1.457   7.644 -0.1653 -0.1325  0.0172
  132OSM    H8F14302   1.702   1.346   7.652  3.0341  0.0237  1.0783
  132OSM    H8G14303   1.591   1.477   7.667 -0.3145 -0.2659 -0.5671
  132OSM    C9F14304   1.789   1.503   7.758 -0.1801 -0.4079  0.0166
  132OSM    H9F14305   1.892   1.462   7.755 -0.2874 -0.7199  0.4287
  132OSM   C10F14306   1.750   1.570   7.868  0.4415  0.2164  0.1074
  132OSM   H10F14307   1.827   1.590   7.944  1.7249 -0.0952 -1.0931
  132OSM   C11F14308   1.608   1.610   7.903  0.5084 -0.6790 -0.2597
  132OSM   H11F14309   1.545   1.519   7.895 -1.7257  0.8314 -0.3931
  132OSM   H11G14310   1.575   1.692   7.836  1.7912  0.4854  0.4985
  132OSM   C12F14311   1.591   1.675   8.046  0.2631  1.0294  0.4697
  132OSM   H12F14312   1.656   1.764   8.060  3.4682 -1.2925  1.1063
  132OSM   H12G14313   1.642   1.607   8.118 -1.9901  0.4255  1.5327
  132OSM   C13F14314   1.447   1.701   8.078 -0.8909 -0.0481 -0.0974
  132OSM   H13F14315   1.393   1.625   8.017 -2.7403  0.9399  0.2608
  132OSM   H13G14316   1.414   1.794   8.029  0.7221 -0.9522 -3.0251
  132OSM   C14F14317   1.418   1.690   8.225  0.0862  0.7234 -0.6125
  132OSM   H14F14318   1.310   1.702   8.250  0.5455  0.9544  1.3011
  132OSM   H14G14319   1.467   1.769   8.285  0.7866 -0.4589  0.3798
  132OSM   C15F14320   1.450   1.552   8.292 -0.4664 -0.8861  0.3265
  132OSM   H15F14321   1.561   1.547   8.297 -0.5839 -1.6167  2.6810
  132OSM   H15G14322   1.414   1.462   8.239 -0.5630 -2.0922  2.4003
  132OSM   C16F14323   1.401   1.539   8.435 -0.5133  0.0416  0.2795
  132OSM   H16F14324   1.469   1.589   8.508  0.6778  2.1141 -2.1617
  132OSM   H16G14325   1.415   1.431   8.457  3.0723  0.4265  0.1861
  132OSM   C17F14326   1.255   1.556   8.456 -0.1342  0.1968 -0.1669
  132OSM   H17F14327   1.195   1.530   8.366  0.3772 -0.2341 -0.3865
  132OSM   H17G14328   1.243   1.667   8.463 -2.2639 -0.0156 -0.2929
  132OSM   C18F14329   1.207   1.482   8.588 -0.5098 -0.0733  0.1613
  132OSM   H18F14330   1.258   1.528   8.675  2.9259 -0.9896 -1.2662
  132OSM   H18G14331   1.244   1.377   8.585 -0.0833  0.0336  1.4128
  132OSM   H18H14332   1.097   1.469   8.599 -1.1089  2.1314 -2.4546
  133OSM      N14333   2.561   1.273   6.140  0.9463 -0.3172  0.5085
  133OSM    C1514334   2.455   1.265   6.028  0.4013 -0.1534 -0.0222
  133OSM   H15A14335   2.454   1.164   5.989 -1.6125 -0.5350  0.9248
  133OSM   H15B14336   2.489   1.324   5.945 -0.3611  1.2719  0.6721
  133OSM   H15C14337   2.354   1.289   6.057  0.2970 -2.2171  1.4616
  133OSM    C1414338   2.684   1.207   6.093 -0.4429 -0.3717 -0.4636
  133OSM   H14A14339   2.700   1.230   5.989 -0.8489 -0.0410 -0.4535
  133OSM   H14B14340   2.674   1.100   6.095 -1.4701 -0.2690  0.4453
  133OSM   H14C14341   2.769   1.234   6.155 -0.1175  0.2421 -1.1740
  133OSM    C1314342   2.591   1.420   6.163  0.0969  0.3498 -0.2807
  133OSM   H13A14343   2.602   1.463   6.065  0.0858  0.4505 -0.2384
  133OSM   H13B14344   2.666   1.436   6.239  0.5302  1.2703 -0.8875
  133OSM   H13C14345   2.504   1.463   6.210  0.2145  2.0190 -1.5433
  133OSM    C1214346   2.511   1.209   6.266  0.8593 -0.0458  0.1161
  133OSM   H12A14347   2.589   1.194   6.339  0.3202  1.5320  1.0576
  133OSM   H12B14348   2.500   1.107   6.232  1.1244  0.4742 -1.5702
  133OSM    C1114349   2.382   1.255   6.328  0.5335 -0.7939 -0.2228
  133OSM   H11A14350   2.380   1.366   6.329 -0.1548 -0.7931 -1.6316
  133OSM   H11B14351   2.385   1.228   6.436 -0.9750 -1.7984 -0.4145
  133OSM      P14352   2.141   1.293   6.232 -0.2257  0.0521  0.0320
  133OSM    O1314353   2.172   1.400   6.140 -0.0134  0.1674 -0.2339
  133OSM    O1414354   2.021   1.210   6.201 -0.1777  0.1455  0.1825
  133OSM    O1114355   2.118   1.349   6.381  0.3209 -0.5415 -0.1945
  133OSM    O1214356   2.267   1.198   6.268  0.0796  0.2571  0.7882
  133OSM    C1S14357   2.054   1.256   6.474  0.0593  0.1128 -0.2250
  133OSM    H1S14358   2.068   1.150   6.445 -2.1662 -0.1109 -0.5609
  133OSM    H1T14359   1.943   1.262   6.471  0.1019  1.1720 -0.0142
  133OSM     NF14360   2.022   1.206   6.713 -0.2500 -0.1448  0.0336
  133OSM    HNF14361   1.937   1.240   6.753 -2.5310 -5.3321 -0.0108
  133OSM    C2S14362   2.091   1.290   6.626 -0.0451 -0.3306  0.2773
  133OSM    H2S14363   2.200   1.277   6.645 -0.5573  0.8989  4.6998
  133OSM    C3S14364   2.062   1.445   6.651 -0.3821  0.2032 -0.1527
  133OSM    H3S14365   1.954   1.463   6.630 -0.9206  0.5091  2.6095
  133OSM     O314366   2.138   1.529   6.559 -0.3046  0.5907  0.3385
  133OSM    HO314367   2.175   1.473   6.490 -3.4792 -0.2201 -0.8219
  133OSM    C4S14368   2.095   1.480   6.791  0.3406 -0.2635 -0.1445
  133OSM    H4S14369   2.191   1.430   6.813 -0.2289 -1.2139  0.2113
  133OSM    C5S14370   2.021   1.559   6.875  0.5517  0.6075 -0.2099
  133OSM    H5S14371   1.934   1.610   6.830  0.4496 -0.4214 -1.2051
  133OSM    C6S14372   2.044   1.589   7.021 -0.1199 -0.2444 -0.2047
  133OSM    H6S14373   1.944   1.606   7.066 -0.7435 -0.1787 -1.5952
  133OSM    H6T14374   2.089   1.690   7.022 -1.1088  0.1887  0.7707
  133OSM    C7S14375   2.117   1.502   7.132 -0.7650  0.6658  1.0892
  133OSM    H7S14376   2.226   1.500   7.110 -1.0571 -0.4020 -0.2790
  133OSM    H7T14377   2.078   1.399   7.146  3.8624 -1.7168 -2.2112
  133OSM    C8S14378   2.103   1.561   7.275  0.0487 -0.4309  0.1871
  133OSM    H8S14379   1.997   1.578   7.305  0.2992  2.5790 -0.4376
  133OSM    H8T14380   2.146   1.663   7.274  0.6349 -0.6761  0.5258
  133OSM    C9S14381   2.195   1.493   7.378  0.5529 -0.6850  0.8944
  133OSM    H9S14382   2.295   1.538   7.367  0.2095 -0.5176 -1.7888
  133OSM    H9T14383   2.211   1.384   7.363 -0.7417 -1.0032  1.7147
  133OSM   C10S14384   2.158   1.507   7.532  0.3582  0.8074 -0.0567
  133OSM   H10S14385   2.074   1.435   7.534  1.8509 -0.9952 -0.8630
  133OSM   H10T14386   2.128   1.611   7.556 -0.7794  1.4065 -3.7924
  133OSM   C11S14387   2.251   1.437   7.631  0.7246 -0.1764 -0.1188
  133OSM   H11S14388   2.355   1.474   7.620 -0.4590  3.1015 -1.1531
  133OSM   H11T14389   2.256   1.329   7.607  0.0656 -0.3441  0.4699
  133OSM   C12S14390   2.200   1.435   7.780  0.8558 -0.2429  0.3716
  133OSM   H12S14391   2.094   1.402   7.780  0.4545  0.9903 -1.4568
  133OSM   H12T14392   2.184   1.540   7.814 -1.4361 -0.4713  0.0905
  133OSM   C13S14393   2.281   1.345   7.874  0.2581  0.2665 -0.5674
  133OSM   H13S14394   2.369   1.309   7.817 -0.6486 -0.9563 -1.2286
  133OSM   H13T14395   2.215   1.256   7.886  0.2847  0.3947  0.5420
  133OSM   C14S14396   2.320   1.408   8.006  0.5021 -0.6205 -0.5243
  133OSM   H14S14397   2.234   1.443   8.067 -0.2743 -0.8662 -1.4531
  133OSM   H14T14398   2.368   1.502   7.972  0.1768  0.0810  0.9244
  133OSM   C15S14399   2.418   1.320   8.092 -0.0051 -0.2191  0.8758
  133OSM   H15S14400   2.428   1.351   8.198 -0.6424  1.9956  0.3208
  133OSM   H15T14401   2.519   1.328   8.046 -1.6185 -0.6472 -2.9825
  133OSM   C16S14402   2.389   1.166   8.097  0.4277  0.2354 -0.5847
  133OSM   H16S14403   2.409   1.125   7.996  1.5127 -2.5554  0.7203
  133OSM   H16T14404   2.282   1.143   8.119  0.9928 -0.3505  1.6743
  133OSM   C17S14405   2.460   1.097   8.212  0.0556  1.2045  1.0586
  133OSM   H17S14406   2.435   1.146   8.308 -1.8676 -3.1505  2.9365
  133OSM   H17T14407   2.570   1.107   8.199  0.0877 -0.7162 -0.4086
  133OSM   C18S14408   2.441   0.945   8.211  0.4133  0.0703  0.4998
  133OSM   H18S14409   2.499   0.898   8.128 -1.8514 -0.4968 -0.7958
  133OSM   H18T14410   2.333   0.921   8.206  0.2397  1.0410 -0.8444
  133OSM   H18U14411   2.492   0.899   8.299  0.9000 -0.7385 -0.1996
  133OSM    C1F14412   2.055   1.080   6.718 -0.2641  0.3323  0.3279
  133OSM     OF14413   2.136   1.032   6.640  0.1374  0.1449 -0.1606
  133OSM    C2F14414   1.979   0.995   6.814  0.3157  0.3464  0.0455
  133OSM    H2F14415   1.970   0.895   6.765  2.9597  0.1687 -0.1516
  133OSM    H2G14416   1.884   1.050   6.830 -0.9404 -1.1056 -2.0972
  133OSM    C3F14417   2.060   0.965   6.948  0.5307 -0.4410  1.2284
  133OSM    H3F14418   2.138   0.893   6.914  1.2477  0.5275  0.8008
  133OSM    H3G14419   1.992   0.910   7.016 -1.6157 -0.8469 -1.1984
  133OSM    C4F14420   2.096   1.099   7.014 -0.6210  0.6231 -0.5640
  133OSM    H4F14421   2.000   1.154   7.030 -1.1440 -0.0249 -1.4308
  133OSM    H4G14422   2.165   1.147   6.941  1.6755 -0.0605  1.1332
  133OSM    C5F14423   2.157   1.094   7.159  0.2547 -0.3668 -0.1067
  133OSM    H5F14424   2.200   1.190   7.193  0.0651  0.4004 -1.9376
  133OSM    H5G14425   2.241   1.021   7.163 -0.3108 -1.1382 -1.6897
  133OSM    C6F14426   2.065   1.057   7.265 -0.7016 -0.0700 -0.3544
  133OSM    H6F14427   2.016   0.962   7.232  0.2213 -0.7434  0.2090
  133OSM    H6G14428   1.985   1.134   7.263  0.1818  0.8284 -1.6980
  133OSM    C7F14429   2.129   1.075   7.408  0.6330 -0.4091 -0.1386
  133OSM    H7F14430   2.154   1.183   7.421  1.1894 -0.8683  2.9582
  133OSM    H7G14431   2.231   1.031   7.401  0.3108 -1.4290  1.3136
  133OSM    C8F14432   2.039   1.026   7.524  0.2079  0.9992  0.0133
  133OSM    H8F14433   2.030   0.917   7.504  0.2319  1.3854 -2.1612
  133OSM    H8G14434   1.947   1.087   7.526  1.5193  3.0304 -0.0240
  133OSM    C9F14435   2.119   1.058   7.650 -0.0295  0.0489 -0.4002
  133OSM    H9F14436   2.142   1.162   7.676 -0.3207 -0.7780  3.4265
  133OSM   C10F14437   2.173   0.968   7.741 -0.0333 -0.6151  0.5377
  133OSM   H10F14438   2.216   1.005   7.836 -2.4587  0.5319  1.2440
  133OSM   C11F14439   2.159   0.819   7.728 -0.3913 -0.0292 -0.2829
  133OSM   H11F14440   2.102   0.783   7.639 -1.6546 -0.2923  0.6116
  133OSM   H11G14441   2.092   0.781   7.808  0.7289 -1.2632  0.0854
  133OSM   C12F14442   2.294   0.740   7.707  0.4157 -0.0628  0.7660
  133OSM   H12F14443   2.365   0.762   7.790  0.1562  2.0664  0.4712
  133OSM   H12G14444   2.352   0.780   7.621  1.0181 -0.3171  1.0502
  133OSM   C13F14445   2.269   0.589   7.681  0.0200  0.6304  0.0277
  133OSM   H13F14446   2.206   0.578   7.590  0.7010 -2.0980 -0.1497
  133OSM   H13G14447   2.204   0.548   7.761 -0.4799  1.1991 -0.0859
  133OSM   C14F14448   2.400   0.520   7.657 -0.3316  0.0281  0.3335
  133OSM   H14F14449   2.391   0.410   7.666 -1.2119  0.0358 -0.4431
  133OSM   H14G14450   2.471   0.555   7.736 -0.5018  1.7640 -0.2741
  133OSM   C15F14451   2.457   0.540   7.520  0.8868  0.2391 -0.1924
  133OSM   H15F14452   2.543   0.611   7.529  2.0199 -1.0031 -1.0853
  133OSM   H15G14453   2.392   0.579   7.439  2.1422 -0.3697 -1.4953
  133OSM   C16F14454   2.520   0.419   7.466  0.2226 -0.4374 -0.0874
  133OSM   H16F14455   2.434   0.351   7.447  0.6549 -0.5286 -1.7594
  133OSM   H16G14456   2.588   0.380   7.544 -0.5403 -1.6817 -0.0291
  133OSM   C17F14457   2.597   0.443   7.335 -0.1830  0.1436  0.5724
  133OSM   H17F14458   2.680   0.515   7.351  1.7739 -1.8976 -0.0754
  133OSM   H17G14459   2.538   0.484   7.250  0.2143 -0.2248  0.1160
  133OSM   C18F14460   2.660   0.305   7.284 -0.3365 -0.8565 -0.4245
  133OSM   H18F14461   2.572   0.238   7.272 -2.1947  0.5378  4.2247
  133OSM   H18G14462   2.721   0.258   7.364  1.2397  0.3333 -0.9109
  133OSM   H18H14463   2.727   0.316   7.197 -3.1972 -3.4216 -3.0927
  134OSM      N14464   3.415   4.627   6.343 -0.0071 -0.4400 -0.7455
  134OSM    C1514465   3.318   4.741   6.377 -0.2729  0.3181 -0.7912
  134OSM   H15A14466   3.349   4.842   6.355 -0.4911  0.6103  0.1989
  134OSM   H15B14467   3.296   4.741   6.483  0.4588 -1.0574 -0.6259
  134OSM   H15C14468   3.226   4.733   6.322 -0.5703  1.5898 -0.4967
  134OSM    C1414469   3.446   4.651   6.199  0.1755 -0.1687 -0.3867
  134OSM   H14A14470   3.360   4.656   6.134  1.7321  2.2162 -2.3484
  134OSM   H14B14471   3.506   4.571   6.158 -0.3463 -1.8942  2.0947
  134OSM   H14C14472   3.494   4.744   6.174  0.1547 -0.1032 -0.1829
  134OSM    C1314473   3.541   4.643   6.422 -0.1261  0.0218 -0.4048
  134OSM   H13A14474   3.621   4.583   6.383  0.0066 -2.6565  3.7579
  134OSM   H13B14475   3.504   4.609   6.517  0.9399 -1.8698 -0.6555
  134OSM   H13C14476   3.584   4.742   6.417 -1.0354  0.3492 -2.3532
  134OSM    C1214477   3.366   4.491   6.370  0.5825 -0.3871  0.5424
  134OSM   H12A14478   3.443   4.423   6.338  2.0337  0.6613  1.7504
  134OSM   H12B14479   3.275   4.478   6.313  0.9860 -1.8677  0.2121
  134OSM    C1114480   3.347   4.468   6.521 -0.2540 -0.2194  0.4385
  134OSM   H11A14481   3.286   4.376   6.527  0.3753 -0.4687  3.8216
  134OSM   H11B14482   3.280   4.546   6.563 -0.9993 -1.0793  0.8386
  134OSM      P14483   3.539   4.314   6.591 -0.1133  0.1258 -0.3679
  134OSM    O1314484   3.546   4.275   6.447 -0.1091  0.6301  0.1404
  134OSM    O1414485   3.663   4.298   6.671 -0.4528 -0.5842 -0.0519
  134OSM    O1114486   3.421   4.236   6.652 -0.5978  0.2383 -0.1592
  134OSM    O1214487   3.469   4.460   6.598 -0.3577  0.0641  0.2403
  134OSM    C1S14488   3.387   4.222   6.786 -0.6619  0.2625  0.3093
  134OSM    H1S14489   3.298   4.283   6.809  0.0479  1.4754 -0.0838
  134OSM    H1T14490   3.456   4.280   6.851 -1.6060  0.0675  1.4905
  134OSM     NF14491   3.374   4.078   6.982 -0.2869 -0.2277  0.1088
  134OSM    HNF14492   3.461   4.061   7.029  0.1434  0.4587 -0.4435
  134OSM    C2S14493   3.385   4.078   6.834  0.7162 -1.1209 -0.1054
  134OSM    H2S14494   3.292   4.034   6.791 -0.1179 -0.0425  0.5772
  134OSM    C3S14495   3.508   3.998   6.783  0.3147 -0.3757  0.2616
  134OSM    H3S14496   3.595   4.065   6.801  0.9406 -1.0233 -0.2704
  134OSM     O314497   3.494   3.969   6.641  0.2875  0.6156 -0.0156
  134OSM    HO314498   3.450   4.048   6.608 -0.1894  0.3183 -0.0943
  134OSM    C4S14499   3.530   3.865   6.856 -0.1469 -0.3051  0.4728
  134OSM    H4S14500   3.575   3.874   6.956  2.6865  0.1663 -0.7940
  134OSM    C5S14501   3.518   3.739   6.808 -0.3673  0.1071  0.0918
  134OSM    H5S14502   3.531   3.726   6.700 -1.8729 -1.5312  0.0769
  134OSM    C6S14503   3.558   3.623   6.899  0.9348 -0.2384 -0.4668
  134OSM    H6S14504   3.669   3.625   6.896  0.9015  1.1079 -1.3282
  134OSM    H6T14505   3.523   3.529   6.851 -0.4615 -0.0266  0.1074
  134OSM    C7S14506   3.486   3.606   7.043  0.2614 -0.3949  0.0699
  134OSM    H7S14507   3.376   3.606   7.028  0.5797 -0.5604 -2.4436
  134OSM    H7T14508   3.511   3.701   7.094  0.1105 -1.4320  2.1194
  134OSM    C8S14509   3.526   3.473   7.113 -0.5000  0.0746  0.2618
  134OSM    H8S14510   3.633   3.476   7.145 -0.1203  1.2262 -1.0576
  134OSM    H8T14511   3.506   3.379   7.056 -0.4690  0.4035 -0.2959
  134OSM    C9S14512   3.456   3.453   7.252 -1.1858  0.5062  0.0953
  134OSM    H9S14513   3.475   3.349   7.287  2.1494  1.0076  0.0196
  134OSM    H9T14514   3.346   3.457   7.237 -1.0860  2.8084 -0.2587
  134OSM   C10S14515   3.491   3.559   7.356  0.3259 -0.2690  0.0361
  134OSM   H10S14516   3.452   3.659   7.330  0.4007 -0.2501 -0.0006
  134OSM   H10T14517   3.601   3.562   7.364  0.5591 -3.3020 -1.1564
  134OSM   C11S14518   3.433   3.520   7.489  0.2975  0.1762 -0.6700
  134OSM   H11S14519   3.324   3.502   7.478  0.3491 -0.4174 -0.2365
  134OSM   H11T14520   3.443   3.604   7.561  2.0775 -0.8289  0.3075
  134OSM   C12S14521   3.500   3.399   7.552  0.5756 -0.8087 -0.5622
  134OSM   H12S14522   3.568   3.358   7.474 -0.1976  0.1018 -1.7316
  134OSM   H12T14523   3.433   3.313   7.574  0.0880 -1.4005 -4.1010
  134OSM   C13S14524   3.568   3.447   7.683 -0.0632  0.1842  0.8245
  134OSM   H13S14525   3.489   3.495   7.743 -0.5718 -0.9722  1.0976
  134OSM   H13T14526   3.645   3.523   7.660  0.0699  0.0782  0.9223
  134OSM   C14S14527   3.628   3.336   7.767  0.1537  0.9226 -0.4079
  134OSM   H14S14528   3.690   3.268   7.704 -0.1763 -0.4059  0.6751
  134OSM   H14T14529   3.549   3.263   7.796 -0.4903  1.8548  0.2060
  134OSM   C15S14530   3.707   3.380   7.890 -0.6927  0.0220  0.2521
  134OSM   H15S14531   3.750   3.481   7.870  0.6592 -0.2655  1.5782
  134OSM   H15T14532   3.786   3.305   7.911 -0.1220  0.5696  0.0826
  134OSM   C16S14533   3.615   3.389   8.017 -0.0956 -0.3407  0.2353
  134OSM   H16S14534   3.552   3.299   8.033  0.1731 -0.4011  0.9757
  134OSM   H16T14535   3.538   3.467   7.996 -2.1692 -1.9496  1.7355
  134OSM   C17S14536   3.686   3.425   8.148  0.2100 -0.5682  0.0679
  134OSM   H17S14537   3.720   3.530   8.140  0.8927 -0.6041  2.1433
  134OSM   H17T14538   3.771   3.354   8.159  0.2964 -0.5089 -0.2144
  134OSM   C18S14539   3.601   3.415   8.276  0.4505 -0.2042 -0.1791
  134OSM   H18S14540   3.669   3.429   8.363  1.2358 -1.3961 -0.5781
  134OSM   H18T14541   3.545   3.319   8.284 -0.8588  0.6176  0.8223
  134OSM   H18U14542   3.530   3.500   8.280 -0.4279 -0.8891 -0.9953
  134OSM    C1F14543   3.267   4.107   7.054  0.0224 -0.4876 -1.1226
  134OSM     OF14544   3.163   4.133   6.996  0.0876 -0.2307 -0.5114
  134OSM    C2F14545   3.281   4.100   7.206  0.5770 -0.0706 -0.1287
  134OSM    H2F14546   3.380   4.140   7.236  0.1977  0.6733  0.1132
  134OSM    H2G14547   3.276   3.996   7.245  3.4566 -0.7858 -1.5009
  134OSM    C3F14548   3.177   4.194   7.278  0.3498 -0.7155  0.3155
  134OSM    H3F14549   3.073   4.162   7.254  0.3035 -0.2559 -0.1118
  134OSM    H3G14550   3.192   4.296   7.236 -2.1810  0.3893  1.9533
  134OSM    C4F14551   3.198   4.199   7.428 -0.6957  0.1451  0.8987
  134OSM    H4F14552   3.292   4.257   7.440  0.5203 -1.4767 -0.5657
  134OSM    H4G14553   3.194   4.100   7.479 -1.4834 -0.3954 -0.1977
  134OSM    C5F14554   3.103   4.291   7.499  1.3965  0.1072 -0.5680
  134OSM    H5F14555   2.999   4.254   7.487  0.8093  1.5854 -0.1154
  134OSM    H5G14556   3.106   4.396   7.464  0.5701  0.4919  0.4691
  134OSM    C6F14557   3.124   4.291   7.652 -0.0497  0.0925 -0.1427
  134OSM    H6F14558   3.234   4.304   7.663  0.3627 -3.2816  0.4519
  134OSM    H6G14559   3.091   4.196   7.699 -0.1315  0.3293  0.2879
  134OSM    C7F14560   3.052   4.412   7.727  0.0839 -0.3050 -0.3459
  134OSM    H7F14561   2.943   4.414   7.704  0.0483 -0.4876 -0.1930
  134OSM    H7G14562   3.094   4.501   7.676  0.0347  0.4262  0.8788
  134OSM    C8F14563   3.079   4.411   7.879  0.0225 -0.0508 -1.0866
  134OSM    H8F14564   3.189   4.405   7.896  0.3228  3.7856 -1.1448
  134OSM    H8G14565   3.041   4.314   7.916  1.6285 -0.2078  0.2090
  134OSM    C9F14566   3.023   4.537   7.950  0.3000  0.6630 -0.4108
  134OSM    H9F14567   3.052   4.635   7.909  0.9159  0.2449 -0.9901
  134OSM   C10F14568   2.939   4.537   8.051  0.2006 -0.2116  0.2495
  134OSM   H10F14569   2.906   4.639   8.075 -1.3741 -0.3008 -1.4186
  134OSM   C11F14570   2.867   4.421   8.117 -0.1886  0.5747 -0.9236
  134OSM   H11F14571   2.925   4.326   8.113 -0.6963  0.2076  0.1582
  134OSM   H11G14572   2.771   4.390   8.069  0.4826 -0.8525 -1.3890
  134OSM   C12F14573   2.847   4.449   8.269 -0.2296  0.4661 -0.3312
  134OSM   H12F14574   2.797   4.363   8.317  2.3565 -2.0959 -2.0267
  134OSM   H12G14575   2.783   4.538   8.281  0.0640  0.9933 -2.4549
  134OSM   C13F14576   2.968   4.472   8.360 -0.4986 -0.3268 -0.1654
  134OSM   H13F14577   3.012   4.566   8.321 -1.1087  0.1583  0.3044
  134OSM   H13G14578   3.049   4.399   8.340  2.9434  3.1828  0.2300
  134OSM   C14F14579   2.928   4.473   8.508  1.1715  1.1444 -0.3137
  134OSM   H14F14580   2.828   4.522   8.508  0.9700  0.7808 -1.8559
  134OSM   H14G14581   2.994   4.523   8.581 -1.3094  1.6967  1.6305
  134OSM   C15F14582   2.907   4.342   8.568  0.3294 -0.2937 -0.6357
  134OSM   H15F14583   3.008   4.294   8.573  1.3127  1.7051 -0.7288
  134OSM   H15G14584   2.839   4.275   8.511  0.7681 -0.2516 -1.2189
  134OSM   C16F14585   2.862   4.337   8.718  0.2873  0.2053 -0.7386
  134OSM   H16F14586   2.760   4.382   8.729  0.2845 -0.1889  1.1449
  134OSM   H16G14587   2.930   4.411   8.765 -0.5086  0.6136 -0.2025
  134OSM   C17F14588   2.877   4.189   8.771 -1.1365  0.7365  0.0776
  134OSM   H17F14589   2.909   4.195   8.878 -0.0895  1.0904 -0.2497
  134OSM   H17G14590   2.955   4.144   8.706 -1.1786  0.3651  0.2866
  134OSM   C18F14591   2.740   4.111   8.759 -0.0694 -0.1295 -0.1704
  134OSM   H18F14592   2.734   4.006   8.795  4.7158 -0.9983 -1.5578
  134OSM   H18G14593   2.723   4.110   8.649  1.3361  3.1368 -0.4517
  134OSM   H18H14594   2.658   4.167   8.809  0.4332  0.3189  0.1586
  135OSM      N14595   3.316   4.060   6.094  0.2257 -0.2002 -0.0965
  135OSM    C1514596   3.428   4.149   6.136 -0.2131  0.4877  0.4329
  135OSM   H15A14597   3.489   4.173   6.050  1.3068 -1.8878  0.7986
  135OSM   H15B14598   3.497   4.096   6.200 -1.6663  0.2330  1.8247
  135OSM   H15C14599   3.387   4.232   6.192  0.7690  1.5184 -0.3565
  135OSM    C1414600   3.216   4.132   6.011  0.3224 -0.0695 -0.7418
  135OSM   H14A14601   3.248   4.160   5.912  0.2461 -0.1304 -0.7844
  135OSM   H14B14602   3.169   4.213   6.064 -1.2419 -1.5820  0.2477
  135OSM   H14C14603   3.138   4.063   5.980  1.6458 -2.1244  0.3737
  135OSM    C1314604   3.368   3.941   6.021 -0.3899 -0.1567  0.7020
  135OSM   H13A14605   3.461   3.909   6.066  0.1983 -0.3886 -0.6503
  135OSM   H13B14606   3.396   3.966   5.920  1.4842 -0.9236  1.0063
  135OSM   H13C14607   3.302   3.858   6.000 -1.5103  1.1370 -1.0141
  135OSM    C1214608   3.258   4.002   6.220  0.2697  0.2606 -0.2247
  135OSM   H12A14609   3.337   3.941   6.261  0.8829  0.4412 -1.1487
  135OSM   H12B14610   3.173   3.948   6.181 -0.8667  0.9988  1.1517
  135OSM    C1114611   3.209   4.102   6.330 -0.1139  0.3057  0.3725
  135OSM   H11A14612   3.295   4.145   6.386  1.3231 -0.8330 -0.9490
  135OSM   H11B14613   3.158   4.054   6.416  0.5995  1.2427  1.3346
  135OSM      P14614   2.971   4.231   6.280  0.1460  0.0921  0.2621
  135OSM    O1314615   2.939   4.370   6.245  0.1525  0.1261  0.6136
  135OSM    O1414616   2.913   4.127   6.195  0.2119  0.1438 -0.5958
  135OSM    O1114617   2.933   4.203   6.427 -0.4034  0.1628 -0.8355
  135OSM    O1214618   3.130   4.214   6.278 -0.6419 -0.2085  0.0948
  135OSM    C1S14619   3.003   4.264   6.536 -0.6502  0.4588  0.0246
  135OSM    H1S14620   3.009   4.375   6.534 -0.9909  0.5536  2.4457
  135OSM    H1T14621   3.107   4.228   6.548 -0.3336  0.8680 -1.3917
  135OSM     NF14622   3.028   4.273   6.786 -0.4447 -0.9161  0.6738
  135OSM    HNF14623   3.069   4.201   6.842 -0.1123 -1.8335 -0.7329
  135OSM    C2S14624   2.938   4.241   6.675 -0.0053  0.2071 -0.3731
  135OSM    H2S14625   2.845   4.299   6.692  0.1724  0.8638 -1.6069
  135OSM    C3S14626   2.896   4.091   6.691 -0.2650 -0.3088 -0.8799
  135OSM    H3S14627   2.989   4.032   6.696 -0.6932 -0.8887  0.4903
  135OSM     O314628   2.819   4.026   6.586  0.8002 -0.1956 -0.0263
  135OSM    HO314629   2.829   4.090   6.516 -0.9117 -0.1093 -0.2161
  135OSM    C4S14630   2.833   4.065   6.833  0.2617 -0.2097 -0.0012
  135OSM    H4S14631   2.907   4.016   6.897  1.6864  0.7942 -0.8534
  135OSM    C5S14632   2.701   4.087   6.872  0.2898  0.0165 -0.5954
  135OSM    H5S14633   2.625   4.131   6.805 -1.8591 -0.7692  1.2336
  135OSM    C6S14634   2.647   4.063   7.007 -0.5156  0.0197  0.1591
  135OSM    H6S14635   2.573   3.981   6.999 -0.0625 -0.2792 -1.0214
  135OSM    H6T14636   2.585   4.150   7.040 -0.2497  0.3086 -0.0927
  135OSM    C7S14637   2.750   4.047   7.117 -0.0010 -0.6630  0.6054
  135OSM    H7S14638   2.821   4.132   7.130  0.1365 -0.5747 -0.7087
  135OSM    H7T14639   2.816   3.961   7.092 -2.0806 -2.0589 -0.2429
  135OSM    C8S14640   2.688   4.014   7.253  0.2497  0.5165 -0.1719
  135OSM    H8S14641   2.645   3.912   7.262 -1.4190  1.3587  1.6773
  135OSM    H8T14642   2.609   4.086   7.281  0.9340 -0.1420  3.6378
  135OSM    C9S14643   2.782   4.025   7.372  0.4328 -0.1610 -0.7324
  135OSM    H9S14644   2.848   4.114   7.370 -0.0479  0.3171  2.2741
  135OSM    H9T14645   2.849   3.937   7.371  1.4237  0.5726 -0.0177
  135OSM   C10S14646   2.722   4.030   7.509 -0.5783  0.4860 -0.4576
  135OSM   H10S14647   2.667   3.940   7.545  2.9002 -1.8117 -0.6935
  135OSM   H10T14648   2.642   4.107   7.515  0.8057  2.0697 -1.8830
  135OSM   C11S14649   2.833   4.068   7.611 -0.1860 -0.0047 -0.1268
  135OSM   H11S14650   2.846   4.177   7.628 -0.9884  0.0528  0.1300
  135OSM   H11T14651   2.926   4.024   7.568  1.2832 -0.5693  3.4057
  135OSM   C12S14652   2.798   4.000   7.753  0.4602 -0.5727  0.1370
  135OSM   H12S14653   2.797   3.889   7.743 -0.9427 -0.3989 -2.2761
  135OSM   H12T14654   2.695   4.033   7.781  1.3386  1.0196  1.5090
  135OSM   C13S14655   2.888   4.054   7.862 -0.1397  0.9075  0.6249
  135OSM   H13S14656   2.883   4.165   7.869 -1.0454  0.7828  2.4095
  135OSM   H13T14657   2.993   4.024   7.843 -0.7840  0.1907 -1.9924
  135OSM   C14S14658   2.840   3.992   7.988  0.2772  0.5107  0.1575
  135OSM   H14S14659   2.824   3.883   7.976 -0.0841  0.8416 -2.7603
  135OSM   H14T14660   2.735   4.026   7.998 -0.5370 -1.6435 -0.7499
  135OSM   C15S14661   2.934   4.018   8.108 -0.2668  0.1194 -0.5931
  135OSM   H15S14662   2.912   4.122   8.142 -1.8267  0.7100 -3.2646
  135OSM   H15T14663   3.040   4.008   8.077  0.0330  1.1674  0.0610
  135OSM   C16S14664   2.901   3.942   8.237  0.7915 -0.2248 -0.0391
  135OSM   H16S14665   2.903   3.833   8.216 -0.5413 -0.1681 -0.4954
  135OSM   H16T14666   2.799   3.969   8.270  0.3919  0.7596 -2.0091
  135OSM   C17S14667   3.012   3.954   8.348 -0.1495  0.3477 -0.5482
  135OSM   H17S14668   3.051   4.057   8.356  2.9827 -0.8696  0.8481
  135OSM   H17T14669   3.093   3.884   8.317  0.3571 -0.0840  1.6890
  135OSM   C18S14670   2.963   3.899   8.483  0.7953 -0.2841 -0.0696
  135OSM   H18S14671   2.891   3.971   8.527  3.0112  0.5337  2.3917
  135OSM   H18T14672   3.048   3.898   8.555  0.4686 -0.3981  0.3126
  135OSM   H18U14673   2.918   3.799   8.472  0.8362 -0.2188 -0.8555
  135OSM    C1F14674   3.058   4.404   6.814 -0.2305  0.3710  0.0415
  135OSM     OF14675   3.052   4.487   6.727  0.2005 -0.0972 -0.3605
  135OSM    C2F14676   3.112   4.434   6.952  0.5535 -0.8259  0.2905
  135OSM    H2F14677   3.223   4.428   6.949  0.5541 -0.0905 -2.1421
  135OSM    H2G14678   3.068   4.354   7.015 -0.9742 -0.3938 -0.2060
  135OSM    C3F14679   3.074   4.567   7.016  1.1871 -0.2232 -0.1832
  135OSM    H3F14680   2.964   4.579   7.010  1.2015 -0.4930 -1.0086
  135OSM    H3G14681   3.110   4.659   6.964  0.2183  0.0995 -0.2942
  135OSM    C4F14682   3.097   4.567   7.166  0.3777 -1.1150 -0.0207
  135OSM    H4F14683   3.198   4.608   7.186  0.0230 -0.8598  1.2934
  135OSM    H4G14684   3.092   4.465   7.211  0.3172 -2.0809 -2.1060
  135OSM    C5F14685   3.009   4.666   7.244  0.0443 -0.5984 -0.6180
  135OSM    H5F14686   2.903   4.638   7.224 -0.2136 -0.0215 -0.0713
  135OSM    H5G14687   3.027   4.769   7.206  0.2265  0.2205  1.6235
  135OSM    C6F14688   3.038   4.681   7.395 -0.2166 -0.1830 -0.6447
  135OSM    H6F14689   3.147   4.685   7.414 -0.4189  0.1783  0.4693
  135OSM    H6G14690   3.004   4.584   7.437 -2.2334  0.9090  0.3537
  135OSM    C7F14691   2.965   4.798   7.462 -0.1186  0.5395 -1.4005
  135OSM    H7F14692   2.856   4.781   7.453  0.4224 -3.1431 -1.7470
  135OSM    H7G14693   3.002   4.888   7.409  2.7013 -0.0851 -0.5691
  135OSM    C8F14694   2.988   4.791   7.610 -0.1368  0.1288 -0.8581
  135OSM    H8F14695   2.952   4.696   7.656 -1.1059  1.6589  1.6677
  135OSM    H8G14696   2.912   4.858   7.656  1.7889  2.7600 -1.4083
  135OSM    C9F14697   3.128   4.821   7.664  0.6734  0.2314  0.9088
  135OSM    H9F14698   3.210   4.756   7.630 -0.6931 -0.8444 -0.3509
  135OSM   C10F14699   3.158   4.922   7.747  0.1160 -0.7513  0.0764
  135OSM   H10F14700   3.260   4.934   7.785 -1.2661 -0.5742  3.8683
  135OSM   C11F14701   3.069   5.021   7.823  0.1889  0.0502 -0.3263
  135OSM   H11F14702   2.964   5.029   7.787 -0.4962 -0.6924  1.4636
  135OSM   H11G14703   3.109   5.122   7.804 -0.1974  0.0503 -1.1727
  135OSM   C12F14704   3.052   4.973   7.971 -0.2991  0.2356 -0.0424
  135OSM   H12F14705   3.153   4.985   8.015  0.3132 -2.4011 -0.6322
  135OSM   H12G14706   3.026   4.865   7.962  0.8259 -0.0585  0.1691
  135OSM   C13F14707   2.940   5.035   8.051 -0.3946 -0.4280 -0.2528
  135OSM   H13F14708   2.848   5.013   7.994 -0.7578 -0.5230  0.3694
  135OSM   H13G14709   2.953   5.145   8.054 -2.2976 -0.1980 -0.2570
  135OSM   C14F14710   2.923   4.981   8.194  0.0294  0.9271 -0.0954
  135OSM   H14F14711   2.929   5.072   8.257 -0.9264  0.3091  0.9117
  135OSM   H14G14712   3.005   4.911   8.221  0.1625 -0.4813 -3.8320
  135OSM   C15F14713   2.784   4.922   8.205  0.2352  0.0468  0.1384
  135OSM   H15F14714   2.776   4.834   8.138 -3.4487  1.0537 -0.8887
  135OSM   H15G14715   2.721   5.000   8.157  0.4740 -0.0944 -0.4046
  135OSM   C16F14716   2.727   4.903   8.347 -0.8113 -0.0004 -0.0576
  135OSM   H16F14717   2.812   4.873   8.411  1.2036  3.0637 -1.1700
  135OSM   H16G14718   2.646   4.827   8.354  0.9028 -1.6104  3.4826
  135OSM   C17F14719   2.678   5.037   8.399 -0.0022 -0.5899 -0.1755
  135OSM   H17F14720   2.596   5.070   8.332  1.1069  2.4545 -0.0796
  135OSM   H17G14721   2.765   5.105   8.405 -0.8504  0.3818  1.1398
  135OSM   C18F14722   2.622   5.019   8.540 -0.2884 -0.7006  0.1023
  135OSM   H18F14723   2.526   4.963   8.542 -0.1645 -0.8718  1.0126
  135OSM   H18G14724   2.590   5.114   8.587 -0.4703 -0.3999 -0.6110
  135OSM   H18H14725   2.688   4.959   8.606 -1.1328 -0.6858  0.9670
  136OSM      N14726   1.080   5.144   6.016 -0.0451 -0.5631  0.2539
  136OSM    C1514727   1.098   5.093   6.155 -0.4866  0.2623  0.2375
  136OSM   H15A14728   1.016   5.129   6.216 -0.0719  3.0792 -0.8172
  136OSM   H15B14729   1.194   5.127   6.190  1.3439 -3.0204 -1.3845
  136OSM   H15C14730   1.104   4.985   6.152 -1.1912  0.2377 -0.6508
  136OSM    C1414731   0.974   5.067   5.945  0.2853 -0.1225 -0.2893
  136OSM   H14A14732   0.880   5.068   5.997  0.9218  1.1465  0.8702
  136OSM   H14B14733   1.011   4.966   5.928  1.2700  0.2548 -0.4428
  136OSM   H14C14734   0.950   5.115   5.851 -1.5098 -0.1631  0.1329
  136OSM    C1314735   1.028   5.287   6.017 -0.0050 -0.3645 -0.1351
  136OSM   H13A14736   0.931   5.295   6.065 -0.2753  1.1582 -0.9058
  136OSM   H13B14737   1.018   5.323   5.916 -0.6718  0.4090  0.2021
  136OSM   H13C14738   1.100   5.354   6.060 -0.1327  1.5766 -2.8200
  136OSM    C1214739   1.211   5.145   5.936 -0.3480  0.1738  0.4264
  136OSM   H12A14740   1.268   5.223   5.983  1.7066 -0.6211 -0.6911
  136OSM   H12B14741   1.177   5.181   5.840 -3.2571 -0.7680  1.0420
  136OSM    C1114742   1.284   5.014   5.898 -0.0138  0.0566 -0.4266
  136OSM   H11A14743   1.352   5.030   5.812 -1.1474  1.8036 -1.0340
  136OSM   H11B14744   1.205   4.945   5.861  0.4950 -1.0862  0.5871
  136OSM      P14745   1.461   5.028   6.080 -0.5269 -0.2150  0.7845
  136OSM    O1314746   1.559   4.927   6.131  0.1816  0.1700  0.1585
  136OSM    O1414747   1.524   5.131   5.987  0.5109 -0.3643 -0.0614
  136OSM    O1114748   1.393   5.103   6.197  0.6017  0.2590 -0.0045
  136OSM    O1214749   1.345   4.944   6.007 -0.1269 -0.3464 -0.0765
  136OSM    C1S14750   1.415   5.057   6.330  0.1230  0.3591 -0.3381
  136OSM    H1S14751   1.512   5.005   6.343 -0.3964 -0.6722 -0.5907
  136OSM    H1T14752   1.332   4.991   6.361 -0.6269  0.6117 -1.7399
  136OSM     NF14753   1.421   5.107   6.567  0.4759 -0.5972  0.2138
  136OSM    HNF14754   1.332   5.097   6.611 -0.4729  1.2272 -1.2154
  136OSM    C2S14755   1.420   5.175   6.433  0.3077  0.0195  0.6248
  136OSM    H2S14756   1.505   5.245   6.419  0.4529 -0.0837  0.9983
  136OSM    C3S14757   1.293   5.255   6.403  0.3971 -0.0342  0.1151
  136OSM    H3S14758   1.217   5.178   6.377 -0.1527  0.3199  0.6672
  136OSM     O314759   1.301   5.347   6.293  0.4881 -0.2484 -1.0733
  136OSM    HO314760   1.373   5.309   6.241  0.7116 -1.8898  0.4092
  136OSM    C4S14761   1.235   5.328   6.519  0.5914 -0.1790 -0.5326
  136OSM    H4S14762   1.308   5.367   6.592 -0.3233  0.7684 -0.1071
  136OSM    C5S14763   1.104   5.352   6.546 -0.2337 -0.0909 -0.5805
  136OSM    H5S14764   1.027   5.311   6.478  1.6758 -0.5600 -2.5237
  136OSM    C6S14765   1.044   5.419   6.668 -0.5728  0.4309  0.6311
  136OSM    H6S14766   0.997   5.343   6.734 -1.2747 -0.4450 -0.8587
  136OSM    H6T14767   0.963   5.488   6.637 -0.7486  0.4541  1.1274
  136OSM    C7S14768   1.133   5.517   6.754  0.0001 -0.3671  0.1780
  136OSM    H7S14769   1.175   5.586   6.677 -1.7465 -0.1432 -0.6074
  136OSM    H7T14770   1.214   5.461   6.804  2.1870  1.2571 -1.4021
  136OSM    C8S14771   1.050   5.598   6.850  0.0131  0.0399  0.3579
  136OSM    H8S14772   0.968   5.652   6.798  1.3853  1.6013 -0.2431
  136OSM    H8T14773   1.116   5.679   6.889 -1.7043  2.4561 -1.5863
  136OSM    C9S14774   1.006   5.507   6.966 -0.2403  0.0764  0.2200
  136OSM    H9S14775   1.098   5.455   7.001  0.7830  3.2024  2.4703
  136OSM    H9T14776   0.934   5.431   6.929  0.4171 -0.3991 -0.0856
  136OSM   C10S14777   0.944   5.590   7.085 -0.1015  0.5108 -0.4474
  136OSM   H10S14778   0.843   5.631   7.062 -0.4753  0.6131  1.2692
  136OSM   H10T14779   1.015   5.673   7.107  0.0334  0.0661  0.8636
  136OSM   C11S14780   0.932   5.502   7.211  0.6854  0.6758  0.1797
  136OSM   H11S14781   1.035   5.477   7.246  0.9106 -1.2627 -1.7536
  136OSM   H11T14782   0.871   5.412   7.189 -0.3245  1.0259  1.5637
  136OSM   C12S14783   0.857   5.574   7.325  0.5608  0.1078 -0.2565
  136OSM   H12S14784   0.755   5.609   7.298 -0.7442 -1.0529  2.9400
  136OSM   H12T14785   0.925   5.660   7.340  0.3138  0.3101 -0.2999
  136OSM   C13S14786   0.863   5.498   7.457  0.3215  0.3057 -0.0787
  136OSM   H13S14787   0.965   5.461   7.478  0.2184  0.2268  0.2749
  136OSM   H13T14788   0.801   5.406   7.450  0.6250 -0.1961  3.0631
  136OSM   C14S14789   0.826   5.577   7.581 -0.1451  0.8167  0.0477
  136OSM   H14S14790   0.726   5.625   7.571  0.1251  1.0485 -1.8142
  136OSM   H14T14791   0.891   5.667   7.583  0.0214  0.6728  1.3622
  136OSM   C15S14792   0.819   5.497   7.711 -0.4953 -0.1756 -0.8583
  136OSM   H15S14793   0.907   5.430   7.716 -0.9436 -0.6462  1.3487
  136OSM   H15T14794   0.729   5.437   7.735 -1.4054  1.7471  0.6735
  136OSM   C16S14795   0.832   5.598   7.828 -0.2706  0.0071  0.4795
  136OSM   H16S14796   0.764   5.686   7.826 -1.4658 -0.9093  0.3821
  136OSM   H16T14797   0.937   5.634   7.827  0.1237 -1.1446  0.1725
  136OSM   C17S14798   0.812   5.527   7.967 -0.5754 -0.0761  0.1330
  136OSM   H17S14799   0.877   5.437   7.958 -0.0268  0.3177  0.1524
  136OSM   H17T14800   0.707   5.495   7.986 -1.1622  1.0310 -1.1833
  136OSM   C18S14801   0.854   5.619   8.080  0.6626  0.4272  0.2493
  136OSM   H18S14802   0.961   5.641   8.060  1.3375  0.5254  3.6338
  136OSM   H18T14803   0.851   5.581   8.184 -2.4097  0.9479  0.4025
  136OSM   H18U14804   0.791   5.710   8.082  0.7208  0.4558  1.2802
  136OSM    C1F14805   1.542   5.067   6.617  0.2588  0.3177  0.5010
  136OSM     OF14806   1.648   5.076   6.557 -0.1929  0.1263  0.0587
  136OSM    C2F14807   1.545   5.012   6.760  0.4886 -0.0328  0.6084
  136OSM    H2F14808   1.442   4.988   6.794  0.2858 -1.1179 -0.7334
  136OSM    H2G14809   1.589   5.091   6.824  1.7450  0.2192 -0.5502
  136OSM    C3F14810   1.630   4.884   6.778  0.8321  0.4082 -0.4776
  136OSM    H3F14811   1.738   4.904   6.765  1.1982 -1.9903 -1.3327
  136OSM    H3G14812   1.600   4.821   6.692  1.2758  1.6630 -1.5714
  136OSM    C4F14813   1.593   4.809   6.907  0.6120  1.0964  0.8830
  136OSM    H4F14814   1.591   4.702   6.876  0.1914  0.6430  2.4342
  136OSM    H4G14815   1.488   4.831   6.935  0.9078  3.2786  0.3550
  136OSM    C5F14816   1.697   4.849   7.016  0.6471  0.6707 -0.7981
  136OSM    H5F14817   1.701   4.958   7.036  1.4643  0.3681  0.7863
  136OSM    H5G14818   1.798   4.812   6.989  0.3071 -1.0750  0.2256
  136OSM    C6F14819   1.663   4.778   7.147 -0.3847  0.3748 -0.1792
  136OSM    H6F14820   1.654   4.668   7.140  1.0491  0.0641  2.3980
  136OSM    H6G14821   1.559   4.814   7.163 -1.0450 -1.4800 -0.2642
  136OSM    C7F14822   1.761   4.810   7.260  0.0275  0.0390 -0.7233
  136OSM    H7F14823   1.867   4.815   7.228 -0.1605  2.0917 -1.1057
  136OSM    H7G14824   1.755   4.728   7.334 -1.2610 -0.7723 -1.7095
  136OSM    C8F14825   1.742   4.946   7.330  0.0808  0.5775  0.2437
  136OSM    H8F14826   1.759   5.027   7.256 -2.5657  0.6058 -0.3852
  136OSM    H8G14827   1.822   4.956   7.406 -0.7445  2.2942  0.9014
  136OSM    C9F14828   1.606   4.967   7.391 -0.4913  0.0639 -0.2258
  136OSM    H9F14829   1.520   4.938   7.330 -1.9754 -1.5374  2.5381
  136OSM   C10F14830   1.585   5.006   7.521 -0.4194  0.1772 -0.4682
  136OSM   H10F14831   1.484   5.036   7.551 -2.1337 -2.4130 -3.3654
  136OSM   C11F14832   1.692   5.052   7.620  0.2286 -0.0187  0.5774
  136OSM   H11F14833   1.747   5.143   7.588  2.1123 -1.8391 -1.4647
  136OSM   H11G14834   1.768   4.972   7.612 -0.8766 -1.2056  1.8093
  136OSM   C12F14835   1.632   5.071   7.752  0.2624 -0.4736 -0.2292
  136OSM   H12F14836   1.533   5.121   7.746  1.3994  1.5772 -2.3802
  136OSM   H12G14837   1.699   5.136   7.812 -1.1678 -1.5788  2.6984
  136OSM   C13F14838   1.608   4.942   7.837 -0.9542 -0.2523  0.2276
  136OSM   H13F14839   1.696   4.877   7.819 -1.4625 -1.0851  0.6759
  136OSM   H13G14840   1.527   4.875   7.801 -2.3736  0.9428  1.1519
  136OSM   C14F14841   1.582   4.976   7.980  0.5832  0.2674  0.3283
  136OSM   H14F14842   1.493   5.042   7.983 -0.3685 -1.0317  2.0874
  136OSM   H14G14843   1.664   5.036   8.024 -0.9584  2.9229 -0.3304
  136OSM   C15F14844   1.561   4.852   8.076  0.2192 -0.3068  0.4810
  136OSM   H15F14845   1.655   4.793   8.077 -2.3854 -4.6854  0.5518
  136OSM   H15G14846   1.485   4.794   8.020 -1.0751  2.6620 -0.9372
  136OSM   C16F14847   1.519   4.888   8.223  0.5404 -0.0860  0.3650
  136OSM   H16F14848   1.597   4.937   8.285 -2.1035 -0.7230  4.4066
  136OSM   H16G14849   1.505   4.790   8.274  0.0492  0.0474  0.4955
  136OSM   C17F14850   1.391   4.968   8.227  0.8808  0.0914  0.6998
  136OSM   H17F14851   1.311   4.896   8.198  0.2848  1.2786 -0.6264
  136OSM   H17G14852   1.393   5.050   8.152 -2.5517  1.4087  1.9479
  136OSM   C18F14853   1.370   5.012   8.369 -0.1853 -0.5225  0.1586
  136OSM   H18F14854   1.456   5.071   8.409 -0.1904 -0.3796 -0.0403
  136OSM   H18G14855   1.352   4.925   8.437 -0.6197  1.2760  2.4284
  136OSM   H18H14856   1.273   5.063   8.386 -2.1902 -4.4584  1.1381
  137OSM      N14857   4.274   2.924   6.269  0.3529 -0.0077 -0.0348
  137OSM    C1514858   4.406   2.874   6.317 -0.2826  0.3655 -0.4684
  137OSM   H15A14859   4.433   2.900   6.419 -1.1033  1.3133 -0.4906
  137OSM   H15B14860   4.492   2.914   6.264  0.9999 -1.9759 -0.2464
  137OSM   H15C14861   4.420   2.767   6.317  1.3411  0.5325  1.2113
  137OSM    C1414862   4.258   2.888   6.128 -0.0975 -0.4217  0.1498
  137OSM   H14A14863   4.256   2.781   6.114  0.9122 -0.1998 -1.8011
  137OSM   H14B14864   4.343   2.924   6.072  1.8899  0.4341  3.5365
  137OSM   H14C14865   4.160   2.930   6.111 -0.3035 -0.0377  2.1246
  137OSM    C1314866   4.184   2.839   6.355 -0.8264  0.3302 -0.0152
  137OSM   H13A14867   4.082   2.853   6.321 -1.3700  0.3567  1.6220
  137OSM   H13B14868   4.202   2.871   6.456  0.9397  0.1619 -0.2698
  137OSM   H13C14869   4.213   2.736   6.337 -0.5853  0.3195  0.4377
  137OSM    C1214870   4.252   3.068   6.303  0.5732  0.7446  0.3906
  137OSM   H12A14871   4.322   3.121   6.240  1.7203 -0.7670  0.3672
  137OSM   H12B14872   4.286   3.085   6.404  2.0428  1.6576 -0.2318
  137OSM    C1114873   4.104   3.124   6.296  0.7008  0.6948 -0.3799
  137OSM   H11A14874   4.071   3.096   6.194  1.2927  2.0956 -0.9666
  137OSM   H11B14875   4.100   3.234   6.312 -1.3115  0.3581  1.6447
  137OSM      P14876   4.015   3.092   6.538 -0.2746 -0.0340 -0.1724
  137OSM    O1314877   4.000   3.240   6.564 -0.1282  0.0526 -0.4826
  137OSM    O1414878   3.922   3.002   6.604  0.3481  0.0244 -0.6299
  137OSM    O1114879   4.159   3.044   6.571  0.2253  0.8132 -0.3656
  137OSM    O1214880   4.011   3.060   6.379 -0.3510  0.3586  0.5122
  137OSM    C1S14881   4.248   3.117   6.650  0.2192 -0.0837 -0.1339
  137OSM    H1S14882   4.254   3.226   6.634  0.5108  0.1111  1.2389
  137OSM    H1T14883   4.350   3.078   6.630  0.5492  0.6331  0.1403
  137OSM     NF14884   4.315   3.184   6.885 -0.4478 -0.4659  0.1377
  137OSM    HNF14885   4.391   3.142   6.934 -1.5287 -4.0811 -1.1171
  137OSM    C2S14886   4.223   3.089   6.803 -0.4390 -0.0059  0.1184
  137OSM    H2S14887   4.117   3.119   6.819 -0.5804 -0.6440  0.3747
  137OSM    C3S14888   4.244   2.938   6.836 -0.1943 -0.2644 -0.1371
  137OSM    H3S14889   4.353   2.915   6.833 -0.0519  0.2480  0.7356
  137OSM     O314890   4.182   2.856   6.739 -0.1801 -0.9122 -0.3082
  137OSM    HO314891   4.173   2.916   6.665  2.4546  0.1629  0.1831
  137OSM    C4S14892   4.191   2.908   6.978  0.5132 -0.1426 -0.4597
  137OSM    H4S14893   4.271   2.937   7.047 -1.0165 -0.1984  1.3910
  137OSM    C5S14894   4.071   2.861   7.020  0.2709  0.5308  0.5446
  137OSM    H5S14895   4.001   2.818   6.947 -0.5005  0.0654  1.5410
  137OSM    C6S14896   4.019   2.836   7.165 -0.0880 -0.6852 -0.8369
  137OSM    H6S14897   3.951   2.748   7.173 -0.4635 -0.2869  0.6254
  137OSM    H6T14898   3.958   2.919   7.207  2.2543  0.0866  1.1865
  137OSM    C7S14899   4.126   2.806   7.278 -0.3403  0.3851  0.2480
  137OSM    H7S14900   4.182   2.902   7.291  2.4281 -1.2931  1.0532
  137OSM    H7T14901   4.191   2.723   7.244  0.2634  0.9937 -0.0922
  137OSM    C8S14902   4.054   2.768   7.405  0.5741  0.2876 -0.3041
  137OSM    H8S14903   3.971   2.694   7.397 -1.2640  1.9844  2.2325
  137OSM    H8T14904   3.997   2.855   7.445 -0.1458  1.0049 -2.8269
  137OSM    C9S14905   4.159   2.715   7.501  0.1540 -0.1561  0.3298
  137OSM    H9S14906   4.230   2.799   7.513 -0.2631 -0.1129  2.7320
  137OSM    H9T14907   4.228   2.634   7.468  0.1715 -0.9220  2.1792
  137OSM   C10S14908   4.113   2.693   7.640 -0.7519 -0.1822  0.0287
  137OSM   H10S14909   4.203   2.691   7.705 -0.9552 -1.9700  0.2643
  137OSM   H10T14910   4.077   2.588   7.637  0.0436 -0.4051 -3.8171
  137OSM   C11S14911   4.020   2.793   7.703  0.2144 -0.0648 -0.8117
  137OSM   H11S14912   3.924   2.811   7.650  0.6836  2.1371 -0.9671
  137OSM   H11T14913   4.064   2.893   7.685 -1.9310  0.8929 -0.8218
  137OSM   C12S14914   4.006   2.774   7.856  0.3208  0.4686 -0.1247
  137OSM   H12S14915   4.102   2.791   7.908 -1.0647  0.1613  2.6285
  137OSM   H12T14916   3.976   2.669   7.874  0.6679  0.6531  1.6064
  137OSM   C13S14917   3.910   2.884   7.923 -0.3617 -0.2616  0.2297
  137OSM   H13S14918   3.814   2.887   7.867  0.1701  0.9920 -0.6559
  137OSM   H13T14919   3.946   2.988   7.905 -1.4878  0.1662  0.4219
  137OSM   C14S14920   3.897   2.871   8.072 -0.2748  0.0586  0.2674
  137OSM   H14S14921   3.992   2.863   8.128 -0.2951 -1.8832  0.0754
  137OSM   H14T14922   3.851   2.773   8.097 -1.7863  0.5409 -0.5527
  137OSM   C15S14923   3.820   2.984   8.144  0.3280 -0.1928  0.0227
  137OSM   H15S14924   3.729   3.006   8.085  0.4381 -1.4981 -0.6549
  137OSM   H15T14925   3.876   3.080   8.133 -1.8427  1.0363 -0.6179
  137OSM   C16S14926   3.792   2.943   8.286 -0.4345 -0.4414  0.0292
  137OSM   H16S14927   3.886   2.928   8.343 -0.2764 -2.3904 -0.7181
  137OSM   H16T14928   3.749   2.841   8.297 -2.5978  0.3972 -0.4459
  137OSM   C17S14929   3.695   3.050   8.352  0.0288  0.0102 -0.5122
  137OSM   H17S14930   3.597   3.046   8.300 -0.7963  1.2052  0.8787
  137OSM   H17T14931   3.733   3.153   8.340 -2.4121  1.0034 -0.1444
  137OSM   C18S14932   3.660   3.020   8.496 -0.1814 -0.0798  0.1012
  137OSM   H18S14933   3.742   3.063   8.558 -1.5673  2.9500 -0.0906
  137OSM   H18T14934   3.649   2.910   8.506  0.5570 -0.0823  0.8802
  137OSM   H18U14935   3.564   3.067   8.527 -0.1029 -1.0159  1.8226
  137OSM    C1F14936   4.314   3.323   6.880 -0.5419  0.3670 -0.3696
  137OSM     OF14937   4.221   3.380   6.826 -0.0595 -0.0028  0.2978
  137OSM    C2F14938   4.429   3.391   6.945  0.0283  0.7875  0.4719
  137OSM    H2F14939   4.526   3.365   6.897 -1.1100  1.4640 -2.2810
  137OSM    H2G14940   4.443   3.334   7.040  0.9147 -1.2512 -0.8521
  137OSM    C3F14941   4.428   3.551   6.943  0.3976 -0.5306 -0.6844
  137OSM    H3F14942   4.396   3.576   6.840 -1.0970 -0.6176 -0.2479
  137OSM    H3G14943   4.528   3.596   6.960 -0.5976  1.4310  0.1082
  137OSM    C4F14944   4.323   3.621   7.034 -0.0233  0.2002 -0.0781
  137OSM    H4F14945   4.225   3.569   7.021 -0.2356  0.1043  1.7136
  137OSM    H4G14946   4.331   3.724   6.993  0.9173  0.3683  0.5039
  137OSM    C5F14947   4.374   3.620   7.182  0.2329  0.5491 -0.8166
  137OSM    H5F14948   4.480   3.652   7.190  1.1173 -2.8661  2.3645
  137OSM    H5G14949   4.384   3.514   7.215 -0.4781 -0.5604 -3.9179
  137OSM    C6F14950   4.290   3.701   7.281  0.1302 -0.0097  0.3983
  137OSM    H6F14951   4.194   3.645   7.289 -0.1595  0.3752 -0.3360
  137OSM    H6G14952   4.271   3.805   7.247 -0.3693 -0.7403 -1.6072
  137OSM    C7F14953   4.336   3.709   7.426 -0.2599  0.4033  0.0389
  137OSM    H7F14954   4.438   3.748   7.449 -0.1707 -1.4789  3.1011
  137OSM    H7G14955   4.330   3.610   7.477 -2.1384  1.3847  1.7879
  137OSM    C8F14956   4.257   3.806   7.525 -0.7212 -0.0092  0.0460
  137OSM    H8F14957   4.274   3.913   7.497 -2.7134  0.4523  0.5309
  137OSM    H8G14958   4.301   3.789   7.625  1.2855  3.4353 -0.1622
  137OSM    C9F14959   4.110   3.779   7.518 -0.2439 -0.1883  0.3588
  137OSM    H9F14960   4.067   3.795   7.419 -0.4454 -0.4135  0.4094
  137OSM   C10F14961   4.029   3.761   7.626  0.1917 -0.2752  0.6651
  137OSM   H10F14962   3.921   3.739   7.616  0.0247  0.7619 -0.0663
  137OSM   C11F14963   4.093   3.747   7.765  0.1821  0.5016  0.2201
  137OSM   H11F14964   4.173   3.823   7.773 -1.2783  1.9921  1.0052
  137OSM   H11G14965   4.154   3.654   7.770  2.7146  1.9961 -1.7977
  137OSM   C12F14966   4.004   3.773   7.885 -0.0174 -0.3607 -0.2760
  137OSM   H12F14967   3.910   3.718   7.867 -0.1362 -1.4904  3.3617
  137OSM   H12G14968   3.974   3.880   7.883  0.4953 -0.2232 -0.7809
  137OSM   C13F14969   4.068   3.721   8.019  0.6988  0.1763 -0.1860
  137OSM   H13F14970   4.156   3.786   8.037  0.7158 -0.1596  0.9985
  137OSM   H13G14971   4.102   3.617   8.000  1.3142  0.5543 -1.1983
  137OSM   C14F14972   3.962   3.726   8.126  0.6174  0.3305  0.0797
  137OSM   H14F14973   3.871   3.670   8.096  0.1393 -0.4771  2.9224
  137OSM   H14G14974   3.920   3.828   8.113 -0.4608 -0.5685 -4.3489
  137OSM   C15F14975   4.005   3.690   8.271 -0.2934  0.7633  0.1523
  137OSM   H15F14976   4.081   3.609   8.268 -3.5682 -2.5592  2.2222
  137OSM   H15G14977   3.918   3.660   8.333 -0.7789  2.3162  0.2350
  137OSM   C16F14978   4.057   3.816   8.345 -0.0509 -0.6112  0.0381
  137OSM   H16F14979   4.001   3.899   8.295  1.0188 -0.5158 -1.0193
  137OSM   H16G14980   4.160   3.833   8.308 -0.2649 -1.5305 -1.0086
  137OSM   C17F14981   4.051   3.814   8.500  0.2715  0.4182 -0.1053
  137OSM   H17F14982   3.945   3.816   8.531 -0.5501  0.3208 -2.7392
  137OSM   H17G14983   4.102   3.904   8.541  0.3089  0.7194 -0.8021
  137OSM   C18F14984   4.098   3.687   8.566 -0.0247  0.0148 -0.1996
  137OSM   H18F14985   4.019   3.610   8.554 -2.3994  2.6460 -1.9048
  137OSM   H18G14986   4.102   3.705   8.675  2.2554  0.4678 -0.3300
  137OSM   H18H14987   4.196   3.643   8.536 -1.6767 -2.8693 -1.5466
  138OSM      N14988   5.210   5.296   6.091 -0.5141 -0.4797  0.1904
  138OSM    C1514989   5.069   5.296   6.035 -0.6055  0.1514  0.5364
  138OSM   H15A14990   5.066   5.289   5.927 -1.4939 -0.0436  0.5621
  138OSM   H15B14991   5.018   5.383   6.073 -1.1747 -0.1030  0.3588
  138OSM   H15C14992   5.019   5.204   6.064  0.5762 -0.4879  0.5687
  138OSM    C1414993   5.209   5.279   6.237  0.9695  0.4515  0.4656
  138OSM   H14A14994   5.153   5.360   6.282  0.8785  0.1278  0.9331
  138OSM   H14B14995   5.309   5.277   6.277  1.2694  1.0848 -0.2393
  138OSM   H14C14996   5.169   5.184   6.268  2.6210 -0.4436 -0.0807
  138OSM    C1314997   5.279   5.180   6.033  0.0709  0.0965 -0.7364
  138OSM   H13A14998   5.291   5.191   5.926 -0.2607 -1.9663 -1.0231
  138OSM   H13B14999   5.220   5.090   6.045 -0.3828  0.5999  1.0043
  138OSM   H13C15000   5.370   5.164   6.088 -0.5854  2.6674  1.1503
  138OSM    C1215001   5.274   5.424   6.049  0.4093  0.5167  0.6681
  138OSM   H12A15002   5.278   5.438   5.942  0.9129  4.1419  1.1020
  138OSM   H12B15003   5.378   5.416   6.080 -0.0642 -4.3868  1.3989
  138OSM    C1115004   5.217   5.555   6.105  0.6260 -0.3306 -0.0175
  138OSM   H11A15005   5.298   5.630   6.097  0.8012 -0.5063  0.1211
  138OSM   H11B15006   5.202   5.537   6.214 -1.2263 -2.6303 -0.5955
  138OSM      P15007   5.027   5.715   6.080  0.2186 -0.0136 -0.4245
  138OSM    O1315008   5.125   5.829   6.084  0.2114  0.4063 -0.0311
  138OSM    O1415009   4.901   5.738   6.002  0.0061 -0.3903  0.0468
  138OSM    O1115010   4.985   5.678   6.227 -0.5722 -0.0307  0.0955
  138OSM    O1215011   5.101   5.589   6.028 -0.4225 -0.0507 -0.1803
  138OSM    C1S15012   4.900   5.573   6.273 -0.1168  0.5989  0.0030
  138OSM    H1S15013   4.947   5.475   6.250 -1.8219  0.0363 -1.1677
  138OSM    H1T15014   4.808   5.571   6.211 -1.1298 -1.0218  1.5189
  138OSM     NF15015   4.806   5.457   6.466 -0.2431  0.2822 -0.3244
  138OSM    HNF15016   4.711   5.465   6.436 -0.5474  0.5720  0.7282
  138OSM    C2S15017   4.880   5.579   6.429  0.3119 -0.1619  0.4059
  138OSM    H2S15018   4.979   5.577   6.480  0.4201 -1.8171  0.1591
  138OSM    C3S15019   4.803   5.713   6.459  0.0214  0.5942  0.5441
  138OSM    H3S15020   4.714   5.725   6.394 -0.2700 -0.1098  0.8074
  138OSM     O315021   4.889   5.825   6.437  0.3475  0.1374 -0.1263
  138OSM    HO315022   4.953   5.790   6.374  0.6417  1.6246 -0.6946
  138OSM    C4S15023   4.753   5.714   6.601  0.1366 -0.2475 -0.1094
  138OSM    H4S15024   4.655   5.663   6.602  0.3830 -0.7281 -0.2578
  138OSM    C5S15025   4.811   5.761   6.711  0.5202  0.3176  0.2290
  138OSM    H5S15026   4.911   5.807   6.701 -0.2187  2.1536  1.0910
  138OSM    C6S15027   4.773   5.741   6.857 -1.0004  0.0239  0.4002
  138OSM    H6S15028   4.711   5.650   6.866  0.1119 -0.7153  0.7972
  138OSM    H6T15029   4.708   5.822   6.895  0.1865  1.2680 -0.1707
  138OSM    C7S15030   4.892   5.707   6.950 -0.2327  0.4354 -0.7821
  138OSM    H7S15031   4.968   5.788   6.945 -0.4947  1.1278  4.2726
  138OSM    H7T15032   4.938   5.608   6.927 -1.0285 -0.3975  1.1149
  138OSM    C8S15033   4.847   5.707   7.097 -1.0938  0.0687  0.4817
  138OSM    H8S15034   4.766   5.631   7.105 -0.2843 -1.0329 -1.5789
  138OSM    H8T15035   4.794   5.794   7.143 -0.6138  0.8078 -0.3364
  138OSM    C9S15036   4.972   5.670   7.178 -0.0435  0.3155 -0.6612
  138OSM    H9S15037   5.030   5.763   7.192 -0.3837  0.5746 -0.9624
  138OSM    H9T15038   5.022   5.586   7.125  0.2260 -1.7469  2.6824
  138OSM   C10S15039   4.925   5.637   7.320  0.2085  0.0173  0.3172
  138OSM   H10S15040   4.839   5.567   7.309 -0.8881  1.4817 -0.7000
  138OSM   H10T15041   4.880   5.729   7.363  1.8609  0.4674  1.1054
  138OSM   C11S15042   5.040   5.595   7.414 -0.2257 -0.1350  0.6669
  138OSM   H11S15043   5.120   5.671   7.429 -1.0133  1.1552 -1.3799
  138OSM   H11T15044   5.099   5.515   7.365  1.8471  2.0444 -0.4675
  138OSM   C12S15045   4.975   5.548   7.545  0.5310 -0.2191  0.8126
  138OSM   H12S15046   4.889   5.481   7.528  0.3649 -0.4341  2.4379
  138OSM   H12T15047   4.932   5.642   7.587  0.4392  0.0687  0.0666
  138OSM   C13S15048   5.079   5.490   7.640  0.0925 -0.4930  0.1427
  138OSM   H13S15049   5.148   5.573   7.669  1.5140 -1.0084 -1.6579
  138OSM   H13T15050   5.144   5.412   7.594  1.5470  0.1904  0.9772
  138OSM   C14S15051   5.022   5.435   7.765 -0.7253  0.5006 -0.2343
  138OSM   H14S15052   4.968   5.343   7.734  0.7145 -0.2230 -0.6035
  138OSM   H14T15053   4.959   5.505   7.825  0.8251  3.2016 -1.6719
  138OSM   C15S15054   5.137   5.389   7.858 -0.0148  0.3212 -0.8416
  138OSM   H15S15055   5.209   5.472   7.877 -1.6520  1.3408  1.0474
  138OSM   H15T15056   5.189   5.302   7.813 -0.8139 -0.7748  0.3097
  138OSM   C16S15057   5.094   5.330   7.989  0.1516 -0.1107  0.4995
  138OSM   H16S15058   5.003   5.271   7.965  0.8828 -0.8821 -0.4243
  138OSM   H16T15059   5.084   5.415   8.059  3.0409  0.4259  0.3493
  138OSM   C17S15060   5.188   5.232   8.058 -0.1319  0.4076  0.0289
  138OSM   H17S15061   5.257   5.287   8.125 -0.9331  0.9540  0.4013
  138OSM   H17T15062   5.251   5.186   7.978  1.6516 -1.7442  2.5806
  138OSM   C18S15063   5.116   5.135   8.145  0.6561  0.3896  0.3790
  138OSM   H18S15064   5.177   5.058   8.197 -0.1378 -1.0270 -0.7564
  138OSM   H18T15065   5.041   5.090   8.078  0.6223  0.5806  0.2861
  138OSM   H18U15066   5.066   5.191   8.227 -0.4402 -0.1738  0.0878
  138OSM    C1F15067   4.858   5.338   6.486 -0.8692  0.2195  0.2614
  138OSM     OF15068   4.978   5.331   6.471  0.0539 -0.1001  0.2673
  138OSM    C2F15069   4.777   5.227   6.538 -1.1236  0.1420  0.5932
  138OSM    H2F15070   4.853   5.157   6.577 -3.6536 -2.1088  1.6660
  138OSM    H2G15071   4.723   5.178   6.454  3.2348 -1.0143 -1.6953
  138OSM    C3F15072   4.679   5.273   6.650 -0.2111 -0.0469 -0.0356
  138OSM    H3F15073   4.616   5.188   6.681 -0.6805  0.6477  0.9448
  138OSM    H3G15074   4.606   5.352   6.621  0.1757  0.2686 -0.1666
  138OSM    C4F15075   4.757   5.324   6.776 -0.2915 -0.9471 -0.0763
  138OSM    H4F15076   4.797   5.424   6.749 -1.8029  0.7150  3.4122
  138OSM    H4G15077   4.842   5.252   6.781 -0.4075 -1.0740  0.0560
  138OSM    C5F15078   4.676   5.333   6.896 -0.2310 -0.2697 -0.1756
  138OSM    H5F15079   4.609   5.245   6.897 -0.0213 -0.4147  1.1100
  138OSM    H5G15080   4.606   5.419   6.893 -1.0758 -0.9851 -2.0862
  138OSM    C6F15081   4.758   5.335   7.028 -0.7418 -0.3907 -0.1920
  138OSM    H6F15082   4.693   5.370   7.111  0.8181  2.5577 -0.1246
  138OSM    H6G15083   4.838   5.411   7.014 -1.5951  1.0395  2.3390
  138OSM    C7F15084   4.816   5.199   7.060  0.1544  0.6943  0.6116
  138OSM    H7F15085   4.903   5.176   6.995  0.9243  4.2668  0.2359
  138OSM    H7G15086   4.732   5.129   7.040  1.1773 -0.8291  1.5719
  138OSM    C8F15087   4.853   5.182   7.209  0.2027  0.6483  0.2682
  138OSM    H8F15088   4.849   5.073   7.231  1.0270  0.2050 -1.7219
  138OSM    H8G15089   4.772   5.235   7.264 -2.8639 -0.8199 -2.6063
  138OSM    C9F15090   4.975   5.249   7.254 -0.4014 -0.4118 -0.0006
  138OSM    H9F15091   4.987   5.346   7.202 -2.3665  0.2128  0.6556
  138OSM   C10F15092   5.052   5.213   7.359 -0.4003  0.1291 -0.2428
  138OSM   H10F15093   5.143   5.265   7.391 -0.9102  1.3822 -0.8357
  138OSM   C11F15094   5.023   5.102   7.455  0.3501 -0.1342 -0.9556
  138OSM   H11F15095   5.103   5.028   7.431 -2.2578 -3.3758 -0.0438
  138OSM   H11G15096   4.925   5.055   7.430 -1.4104  3.2750 -0.7544
  138OSM   C12F15097   5.026   5.125   7.606  0.3650  0.7255 -0.5231
  138OSM   H12F15098   4.943   5.198   7.615 -0.6329 -0.2700 -1.4912
  138OSM   H12G15099   5.123   5.165   7.644 -0.9661  1.8224  1.8181
  138OSM   C13F15100   4.981   5.005   7.690  0.4136  0.7098 -0.2820
  138OSM   H13F15101   4.904   4.940   7.642 -0.0381  2.4608 -1.9964
  138OSM   H13G15102   4.934   5.040   7.784 -0.2911  1.0297 -0.7491
  138OSM   C14F15103   5.096   4.907   7.719 -1.0622 -0.3963 -0.1728
  138OSM   H14F15104   5.188   4.958   7.756 -0.7342  0.4877 -2.1323
  138OSM   H14G15105   5.126   4.871   7.618  1.5952 -0.9679  0.7816
  138OSM   C15F15106   5.054   4.786   7.802  0.0587  0.4503 -0.5374
  138OSM   H15F15107   5.147   4.726   7.814 -0.7394 -0.7611 -0.4756
  138OSM   H15G15108   4.975   4.728   7.750 -1.0430  2.0491 -0.7040
  138OSM   C16F15109   5.007   4.823   7.946 -0.1581  0.5979 -0.1103
  138OSM   H16F15110   4.936   4.908   7.940 -2.0691 -1.0333 -0.9727
  138OSM   H16G15111   5.095   4.842   8.011  0.4002 -0.8037 -0.4315
  138OSM   C17F15112   4.919   4.721   8.020 -0.2678 -0.0252 -0.1433
  138OSM   H17F15113   4.957   4.619   7.996 -0.7109 -0.6514  1.6588
  138OSM   H17G15114   4.819   4.731   7.975 -0.3041  2.7470  0.5103
  138OSM   C18F15115   4.918   4.743   8.173  0.1438  0.4444 -0.0528
  138OSM   H18F15116   4.993   4.815   8.212  2.9022 -1.3574 -1.8481
  138OSM   H18G15117   4.927   4.647   8.228  1.7804 -0.0326 -1.1036
  138OSM   H18H15118   4.831   4.808   8.197  1.1677  2.1474 -0.8526
  139OSM      N15119   4.671   6.049   6.170 -0.7837 -0.6236 -0.2092
  139OSM    C1515120   4.817   6.022   6.162  0.1507 -0.4633  0.0142
  139OSM   H15A15121   4.880   6.107   6.138  2.7016 -2.4372 -0.5171
  139OSM   H15B15122   4.838   5.951   6.083  1.5445 -0.1883  0.1268
  139OSM   H15C15123   4.854   5.985   6.256 -0.1290  0.8078  0.6333
  139OSM    C1415124   4.607   5.929   6.232 -0.3675  0.1364  0.8614
  139OSM   H14A15125   4.650   5.910   6.329 -0.6371  2.5605  1.5019
  139OSM   H14B15126   4.622   5.845   6.166  0.1001  3.3169 -3.3581
  139OSM   H14C15127   4.501   5.945   6.246 -0.8308  0.0170 -2.1267
  139OSM    C1315128   4.651   6.167   6.257 -0.4709  0.5432 -1.3557
  139OSM   H13A15129   4.696   6.142   6.351  0.0919  3.9377 -0.6824
  139OSM   H13B15130   4.546   6.190   6.268 -0.3503  0.7629 -0.6566
  139OSM   H13C15131   4.695   6.262   6.232  1.2524  0.4937  1.3308
  139OSM    C1215132   4.609   6.079   6.030 -0.5010  0.1974 -0.2313
  139OSM   H12A15133   4.660   6.022   5.954 -1.4648 -2.7908  1.2721
  139OSM   H12B15134   4.643   6.180   6.010  2.6573 -1.0029 -1.2898
  139OSM    C1115135   4.460   6.063   6.010 -0.3727 -0.2155 -0.6005
  139OSM   H11A15136   4.432   5.957   6.028 -0.3162 -0.2795 -0.8826
  139OSM   H11B15137   4.450   6.087   5.901  1.0305  2.6355 -0.1557
  139OSM      P15138   4.232   6.111   6.134  0.0062 -0.5271  0.4553
  139OSM    O1315139   4.180   6.232   6.199  0.2384 -0.0138  0.0483
  139OSM    O1415140   4.157   6.040   6.033  0.3080 -0.8066  0.2957
  139OSM    O1115141   4.277   6.012   6.248 -0.5050  0.1334 -0.2941
  139OSM    O1215142   4.371   6.151   6.075  0.2890 -0.0658  0.1500
  139OSM    C1S15143   4.319   6.053   6.378  0.4532 -0.8680  0.4529
  139OSM    H1S15144   4.393   6.136   6.378 -2.3179  1.7295 -1.1025
  139OSM    H1T15145   4.368   5.967   6.428  1.8692  0.2189  0.9794
  139OSM     NF15146   4.262   6.148   6.595  0.3833  0.4980 -0.3980
  139OSM    HNF15147   4.263   6.086   6.674  3.5365  1.1841  0.1892
  139OSM    C2S15148   4.209   6.093   6.479  0.0023 -0.1737  1.1355
  139OSM    H2S15149   4.144   6.170   6.433 -1.3456 -1.1161  1.4452
  139OSM    C3S15150   4.115   5.975   6.494  0.5835 -0.2805  0.7687
  139OSM    H3S15151   4.172   5.885   6.527  0.3599 -0.6626  0.1230
  139OSM     O315152   4.056   5.923   6.374  0.0734 -0.2291  0.1953
  139OSM    HO315153   4.101   5.963   6.299  1.3819 -1.8303  0.0996
  139OSM    C4S15154   3.998   6.015   6.589 -0.3939  0.1333 -0.8135
  139OSM    H4S15155   3.951   6.112   6.566 -0.0040  0.5965  0.2946
  139OSM    C5S15156   3.951   5.948   6.697 -0.7062 -0.0709 -0.4753
  139OSM    H5S15157   3.997   5.851   6.720  0.7103  0.0248 -2.8051
  139OSM    C6S15158   3.839   5.982   6.793 -0.0159 -0.2283  0.0113
  139OSM    H6S15159   3.793   5.884   6.819  1.4005 -1.2977 -1.3823
  139OSM    H6T15160   3.773   6.044   6.729  0.9941  2.2048  1.2754
  139OSM    C7S15161   3.876   6.056   6.929  0.2229  0.5847 -0.4380
  139OSM    H7S15162   3.939   6.144   6.903  0.7935  0.3233  0.0446
  139OSM    H7T15163   3.946   5.999   6.994 -0.4944 -0.4162 -0.5305
  139OSM    C8S15164   3.749   6.091   7.012 -0.0853 -0.3381  0.1130
  139OSM    H8S15165   3.676   6.008   7.006 -0.3775 -0.0015 -1.1425
  139OSM    H8T15166   3.706   6.180   6.961 -0.2110 -0.3950  0.1191
  139OSM    C9S15167   3.764   6.143   7.151 -0.6753 -0.9111 -0.2599
  139OSM    H9S15168   3.667   6.172   7.197 -1.9915 -1.9446 -2.3215
  139OSM    H9T15169   3.818   6.239   7.166  0.2477 -2.0372  4.4228
  139OSM   C10S15170   3.810   6.031   7.240 -0.4191 -0.2345  0.0405
  139OSM   H10S15171   3.921   6.025   7.239 -0.4677 -1.3646 -0.0258
  139OSM   H10T15172   3.770   5.939   7.190 -1.2606 -0.9479  1.9934
  139OSM   C11S15173   3.769   6.034   7.385 -0.3247 -0.7282  1.0982
  139OSM   H11S15174   3.659   6.049   7.396 -0.2798  0.8970 -0.4255
  139OSM   H11T15175   3.821   6.116   7.439 -0.6483  0.4002 -0.2597
  139OSM   C12S15176   3.812   5.914   7.460 -0.3059  0.1164  0.1825
  139OSM   H12S15177   3.909   5.868   7.433 -1.7683 -2.4273 -0.9411
  139OSM   H12T15178   3.742   5.829   7.447 -0.9836  0.8293 -0.9280
  139OSM   C13S15179   3.799   5.942   7.609  0.2466 -0.4350 -0.0225
  139OSM   H13S15180   3.695   5.923   7.644  0.7639 -1.8315  0.7825
  139OSM   H13T15181   3.827   6.049   7.624 -2.6493  0.6846 -2.0899
  139OSM   C14S15182   3.902   5.864   7.698  0.8738 -0.2431 -0.3672
  139OSM   H14S15183   4.002   5.863   7.650 -0.2987  3.4540 -3.1678
  139OSM   H14T15184   3.857   5.763   7.706  0.5419 -0.0041  1.0318
  139OSM   C15S15185   3.924   5.920   7.831  0.7040 -0.2508 -0.2779
  139OSM   H15S15186   3.827   5.963   7.864  0.2916  0.5617 -2.5004
  139OSM   H15T15187   3.988   6.010   7.831  0.2740  0.0813 -2.0782
  139OSM   C16S15188   3.987   5.821   7.933  0.2538 -0.6548 -0.2981
  139OSM   H16S15189   4.080   5.785   7.885  0.5168 -0.8749  0.3640
  139OSM   H16T15190   3.913   5.739   7.945 -1.4725  0.9752  0.4118
  139OSM   C17S15191   4.043   5.883   8.053  0.5796 -0.2305  0.0966
  139OSM   H17S15192   3.954   5.927   8.104  0.5703 -1.2687  0.9967
  139OSM   H17T15193   4.113   5.964   8.026  0.5295 -0.4269 -0.6096
  139OSM   C18S15194   4.107   5.776   8.142  0.0589  0.2466  0.3873
  139OSM   H18S15195   4.207   5.749   8.100 -0.4580  0.0298 -0.7339
  139OSM   H18T15196   4.048   5.682   8.149  1.1946 -0.4189  1.1458
  139OSM   H18U15197   4.112   5.825   8.241  1.7185  1.6900 -0.3891
  139OSM    C1F15198   4.331   6.261   6.600  0.0867  0.1616  0.0982
  139OSM     OF15199   4.350   6.324   6.493 -0.0708  0.5708  0.3337
  139OSM    C2F15200   4.372   6.304   6.734 -0.0798  0.8083 -0.0757
  139OSM    H2F15201   4.433   6.397   6.727  1.4447 -0.0625  1.2440
  139OSM    H2G15202   4.433   6.223   6.779  1.3649  1.3011 -1.0990
  139OSM    C3F15203   4.250   6.338   6.819  0.5456  0.3732  0.0600
  139OSM    H3F15204   4.176   6.255   6.825  1.3092 -0.3530 -0.3005
  139OSM    H3G15205   4.208   6.430   6.773 -1.1174 -0.3224  0.1520
  139OSM    C4F15206   4.291   6.358   6.967  0.3135  0.0469  0.5564
  139OSM    H4F15207   4.342   6.455   6.985  0.6934 -0.0978  0.2631
  139OSM    H4G15208   4.363   6.277   6.990 -2.2740 -2.9965 -1.5498
  139OSM    C5F15209   4.169   6.350   7.057  0.2372 -0.6259 -0.2336
  139OSM    H5F15210   4.105   6.268   7.018 -0.6852  0.4584 -1.0408
  139OSM    H5G15211   4.111   6.445   7.063 -0.5199 -1.1007  0.0250
  139OSM    C6F15212   4.222   6.323   7.190  0.1232  0.4053 -0.6902
  139OSM    H6F15213   4.308   6.390   7.212 -0.2615 -0.1440  2.8176
  139OSM    H6G15214   4.254   6.217   7.195 -0.9240  0.1528  1.2564
  139OSM    C7F15215   4.107   6.338   7.294  0.0321  0.0500  0.2856
  139OSM    H7F15216   4.024   6.271   7.262  3.1498 -3.5778 -0.5469
  139OSM    H7G15217   4.077   6.445   7.296 -0.0316  0.0346  0.0972
  139OSM    C8F15218   4.146   6.294   7.435  0.7125 -0.0322  0.3588
  139OSM    H8F15219   4.221   6.365   7.476  0.0245  1.2087 -0.4830
  139OSM    H8G15220   4.202   6.198   7.430  1.4325  0.3109  1.6172
  139OSM    C9F15221   4.036   6.285   7.534  0.1239 -0.0156  0.9249
  139OSM    H9F15222   3.937   6.303   7.491  0.6952 -2.1063 -1.4145
  139OSM   C10F15223   4.044   6.284   7.667 -0.1140 -0.7544 -0.6673
  139OSM   H10F15224   3.958   6.265   7.732  0.1664 -1.2055 -0.4318
  139OSM   C11F15225   4.177   6.296   7.745  0.5629  0.5505  0.0451
  139OSM   H11F15226   4.167   6.388   7.807  0.4030  0.6860 -0.1819
  139OSM   H11G15227   4.257   6.319   7.671  1.5446 -1.2771  0.5185
  139OSM   C12F15228   4.234   6.186   7.829  0.8220  0.3723 -0.1333
  139OSM   H12F15229   4.276   6.100   7.771 -1.4455  0.2233 -1.6323
  139OSM   H12G15230   4.148   6.151   7.890  1.0777  0.3459  0.2130
  139OSM   C13F15231   4.348   6.230   7.915 -1.2610 -0.0403 -0.1881
  139OSM   H13F15232   4.306   6.310   7.980 -0.8937 -1.4980  1.8656
  139OSM   H13G15233   4.423   6.278   7.848 -0.4353  1.2978  1.6616
  139OSM   C14F15234   4.411   6.110   7.989  0.4770  0.0578 -0.0169
  139OSM   H14F15235   4.430   6.028   7.917  1.8562 -2.1529  2.7490
  139OSM   H14G15236   4.336   6.076   8.063  2.6569 -1.7419  1.4515
  139OSM   C15F15237   4.542   6.143   8.063  0.5518  0.6737 -0.4025
  139OSM   H15F15238   4.593   6.222   8.003  0.0033  0.5744 -1.0122
  139OSM   H15G15239   4.609   6.056   8.074  1.5560  1.3915 -0.8007
  139OSM   C16F15240   4.523   6.194   8.209  0.2376  0.3728  0.2642
  139OSM   H16F15241   4.460   6.123   8.267  0.9417 -0.9005 -0.4993
  139OSM   H16G15242   4.466   6.288   8.197 -0.2787 -0.0474 -0.7108
  139OSM   C17F15243   4.655   6.215   8.295  0.4080  0.6897  0.2641
  139OSM   H17F15244   4.707   6.303   8.252 -2.4638  1.0062 -2.8405
  139OSM   H17G15245   4.713   6.123   8.277  1.7984  1.3819  1.1191
  139OSM   C18F15246   4.640   6.236   8.443 -0.0545 -0.2518 -0.1999
  139OSM   H18F15247   4.741   6.245   8.490 -0.5401 -0.3586  0.8707
  139OSM   H18G15248   4.599   6.145   8.491  1.3795  1.1112  3.7910
  139OSM   H18H15249   4.583   6.329   8.462 -1.1048 -1.0050  0.3173
  140OSM      N15250   4.437   1.109   5.949 -0.3030 -0.5301  0.1162
  140OSM    C1515251   4.581   1.093   5.917 -0.3324  0.3461  0.0423
  140OSM   H15A15252   4.635   1.159   5.982  1.3319  1.1201 -2.0489
  140OSM   H15B15253   4.599   1.131   5.817  0.5679  0.5240  0.2698
  140OSM   H15C15254   4.611   0.990   5.922  2.0982  0.9128 -1.9163
  140OSM    C1415255   4.405   1.256   5.943 -0.0197 -0.3426 -0.8402
  140OSM   H14A15256   4.304   1.281   5.973  0.5774  1.7762 -0.5310
  140OSM   H14B15257   4.406   1.287   5.839  3.0926 -0.2780 -0.8184
  140OSM   H14C15258   4.481   1.314   5.993 -0.7369 -0.4517  0.3873
  140OSM    C1315259   4.352   1.043   5.848 -0.3924  0.0435 -0.1195
  140OSM   H13A15260   4.246   1.061   5.858 -0.3244  1.1465 -1.2687
  140OSM   H13B15261   4.365   0.935   5.849 -0.1478  0.0723  0.5128
  140OSM   H13C15262   4.383   1.074   5.750  1.1163  0.0773  0.3484
  140OSM    C1215263   4.408   1.064   6.090  1.0170 -0.1525 -0.1444
  140OSM   H12A15264   4.410   0.957   6.102  1.5613 -0.1679 -0.3662
  140OSM   H12B15265   4.310   1.104   6.112  0.8621 -0.7011  0.1687
  140OSM    C1115266   4.483   1.120   6.212 -0.4519  0.5050 -0.5182
  140OSM   H11A15267   4.591   1.093   6.212 -0.4832  0.3009  1.7002
  140OSM   H11B15268   4.439   1.068   6.299  1.4320  0.6389  0.5378
  140OSM      P15269   4.361   1.322   6.323  0.0121  0.7038  0.0657
  140OSM    O1315270   4.347   1.465   6.296 -0.3119 -0.0273  0.0829
  140OSM    O1415271   4.241   1.236   6.330  0.4797  0.0202  0.1013
  140OSM    O1115272   4.429   1.306   6.461 -0.2024  0.0368 -0.2673
  140OSM    O1215273   4.471   1.262   6.216 -0.0899 -0.2987  0.2720
  140OSM    C1S15274   4.566   1.278   6.489  0.2379  0.5097  0.3676
  140OSM    H1S15275   4.625   1.357   6.439  0.1208  0.1814 -0.3098
  140OSM    H1T15276   4.600   1.175   6.462  0.9581  0.4203  1.5839
  140OSM     NF15277   4.735   1.259   6.662 -0.8119 -0.3837 -0.0184
  140OSM    HNF15278   4.750   1.179   6.720 -3.7867 -3.2656 -3.0724
  140OSM    C2S15279   4.595   1.281   6.640 -0.4936  0.0535 -0.1249
  140OSM    H2S15280   4.585   1.387   6.671 -3.7980  0.0503 -1.0233
  140OSM    C3S15281   4.501   1.182   6.720 -0.3901 -0.0181 -0.5264
  140OSM    H3S15282   4.545   1.080   6.726  2.0176  1.0221  0.4163
  140OSM     O315283   4.367   1.179   6.665  0.0717 -0.2981  0.2862
  140OSM    HO315284   4.361   1.233   6.586 -0.0539  2.5126  2.1517
  140OSM    C4S15285   4.499   1.225   6.856  0.0438  0.8325 -0.0526
  140OSM    H4S15286   4.574   1.177   6.921 -0.7560 -1.8685 -1.0600
  140OSM    C5S15287   4.422   1.322   6.909 -0.3986  0.4350  0.4510
  140OSM    H5S15288   4.335   1.363   6.856 -1.3760 -1.1124  0.8199
  140OSM    C6S15289   4.416   1.349   7.056 -0.4703  0.8245  0.4220
  140OSM    H6S15290   4.403   1.458   7.073 -0.4828  0.7123  1.1436
  140OSM    H6T15291   4.516   1.319   7.095 -0.2938  0.2333 -0.4651
  140OSM    C7S15292   4.305   1.275   7.127 -0.0994 -0.5092 -0.5382
  140OSM    H7S15293   4.310   1.166   7.104  1.2934 -0.5807  0.0695
  140OSM    H7T15294   4.211   1.321   7.089 -0.9728 -2.5522 -0.9267
  140OSM    C8S15295   4.313   1.304   7.274  0.0723 -1.0044 -0.4980
  140OSM    H8S15296   4.289   1.412   7.287 -1.6897 -1.3042 -1.2182
  140OSM    H8T15297   4.419   1.275   7.289  0.6995  1.0336 -0.8375
  140OSM    C9S15298   4.221   1.224   7.362  0.3361 -0.5046 -0.4321
  140OSM    H9S15299   4.249   1.119   7.337 -0.4946 -0.6656 -0.7313
  140OSM    H9T15300   4.113   1.238   7.338 -0.3419 -2.1464  1.5236
  140OSM   C10S15301   4.248   1.261   7.508 -0.0348 -0.1226  0.2923
  140OSM   H10S15302   4.211   1.363   7.535  1.4648  0.7803 -1.0030
  140OSM   H10T15303   4.357   1.258   7.526  0.0549  0.1408 -0.2127
  140OSM   C11S15304   4.188   1.158   7.613  0.0727 -0.2571  0.1474
  140OSM   H11S15305   4.224   1.058   7.581  0.8235 -0.7305  2.3735
  140OSM   H11T15306   4.078   1.170   7.624 -0.5682 -3.5298 -1.9081
  140OSM   C12S15307   4.249   1.186   7.753  0.6578  0.0762  0.2857
  140OSM   H12S15308   4.199   1.274   7.798  2.9278  0.6146  1.8339
  140OSM   H12T15309   4.359   1.201   7.749  0.5729  0.5893 -0.2166
  140OSM   C13S15310   4.220   1.061   7.839  0.6722  0.4170  0.0869
  140OSM   H13S15311   4.267   0.966   7.808  1.0810  0.5951  0.1675
  140OSM   H13T15312   4.109   1.055   7.838  0.5815  1.8304 -0.0729
  140OSM   C14S15313   4.269   1.087   7.981 -0.0184 -0.0786  0.1198
  140OSM   H14S15314   4.198   1.149   8.040  1.7190 -0.8344  3.1300
  140OSM   H14T15315   4.375   1.123   7.986  0.1564 -0.4999 -0.5964
  140OSM   C15S15316   4.264   0.960   8.058  0.0484 -0.2919  0.3048
  140OSM   H15S15317   4.302   0.883   7.987  1.1899 -2.0312  2.7226
  140OSM   H15T15318   4.161   0.926   8.081 -0.4301 -0.1365 -1.5549
  140OSM   C16S15319   4.352   0.967   8.182 -0.4415  0.4907 -0.1499
  140OSM   H16S15320   4.309   1.044   8.249 -2.0147  0.3068 -0.9343
  140OSM   H16T15321   4.456   0.999   8.158 -0.2962 -1.3889 -2.1179
  140OSM   C17S15322   4.338   0.834   8.259  0.1270 -0.6905  0.6596
  140OSM   H17S15323   4.230   0.808   8.244 -0.3631  1.5773  0.1697
  140OSM   H17T15324   4.363   0.846   8.366  0.7204 -2.2186  0.7078
  140OSM   C18S15325   4.430   0.714   8.215 -0.4298 -0.0446 -0.1081
  140OSM   H18S15326   4.405   0.619   8.268  0.6819 -0.7753 -0.8854
  140OSM   H18T15327   4.537   0.743   8.226 -0.7127  1.4355 -1.0876
  140OSM   H18U15328   4.404   0.689   8.110 -1.9124  2.6814 -0.4286
  140OSM    C1F15329   4.835   1.331   6.602  0.4518 -0.0354  0.1945
  140OSM     OF15330   4.822   1.427   6.532  0.3346 -0.7706 -0.1365
  140OSM    C2F15331   4.966   1.278   6.645 -0.0847 -0.1447 -0.6174
  140OSM    H2F15332   5.028   1.235   6.564  0.5332 -0.4363  0.0061
  140OSM    H2G15333   4.954   1.190   6.712 -2.6384  0.5616 -0.0882
  140OSM    C3F15334   5.055   1.384   6.725  0.3317 -0.1029 -0.2328
  140OSM    H3F15335   5.082   1.470   6.660 -0.1116  0.1828 -0.0400
  140OSM    H3G15336   5.145   1.335   6.767  1.2616  2.1629  0.5041
  140OSM    C4F15337   4.968   1.450   6.841  0.0312  0.2378 -0.0179
  140OSM    H4F15338   4.880   1.507   6.804  0.0421  0.3120  0.0720
  140OSM    H4G15339   5.034   1.531   6.879 -0.5361  0.2567  0.9525
  140OSM    C5F15340   4.936   1.356   6.961  1.0398  0.3894  0.4324
  140OSM    H5F15341   5.027   1.313   7.008 -0.4661 -0.8599  2.2422
  140OSM    H5G15342   4.878   1.274   6.913  2.2967 -0.9194  1.1211
  140OSM    C6F15343   4.845   1.427   7.069  0.1254  0.0018  0.3837
  140OSM    H6F15344   4.806   1.351   7.140  0.5300 -0.4353  0.1442
  140OSM    H6G15345   4.756   1.464   7.014 -0.0696 -0.3530  0.4596
  140OSM    C7F15346   4.921   1.528   7.149  0.4138  0.2741 -0.9865
  140OSM    H7F15347   4.950   1.617   7.089  2.3822  1.8299  2.1563
  140OSM    H7G15348   5.021   1.490   7.179 -1.4448 -1.9024  2.7787
  140OSM    C8F15349   4.860   1.565   7.281  0.5692  0.1341 -0.3669
  140OSM    H8F15350   4.934   1.635   7.325  1.3290 -1.1724  0.4423
  140OSM    H8G15351   4.870   1.482   7.354  0.7074 -0.0215 -0.5636
  140OSM    C9F15352   4.716   1.608   7.271 -0.7234  0.0749  0.1623
  140OSM    H9F15353   4.706   1.656   7.172 -0.4417 -0.2829 -0.0392
  140OSM   C10F15354   4.613   1.571   7.353  0.3091  0.0068  0.4962
  140OSM   H10F15355   4.511   1.604   7.328 -0.7894 -2.0402  2.1265
  140OSM   C11F15356   4.630   1.482   7.475  0.2792 -0.0237  0.2698
  140OSM   H11F15357   4.709   1.405   7.462 -0.2234 -0.6220  0.7919
  140OSM   H11G15358   4.534   1.433   7.502  0.0916  1.1053  1.7431
  140OSM   C12F15359   4.699   1.561   7.587  0.0283  0.1657  0.4846
  140OSM   H12F15360   4.651   1.658   7.610  2.6854  1.2592  1.5392
  140OSM   H12G15361   4.797   1.592   7.546 -0.9562  1.8850 -0.6405
  140OSM   C13F15362   4.714   1.482   7.718 -0.1039  0.1790  0.0444
  140OSM   H13F15363   4.616   1.452   7.760 -0.0900  1.6167  1.1658
  140OSM   H13G15364   4.755   1.552   7.795  1.0652 -0.1268 -0.3011
  140OSM   C14F15365   4.818   1.366   7.710 -0.0025  0.3849  0.2209
  140OSM   H14F15366   4.921   1.405   7.699 -0.3102  1.4486  1.0376
  140OSM   H14G15367   4.791   1.293   7.631  0.3908 -0.9752  1.3163
  140OSM   C15F15368   4.821   1.282   7.846 -0.0631  0.4117  0.7704
  140OSM   H15F15369   4.821   1.350   7.934 -3.3035 -0.1338  1.2462
  140OSM   H15G15370   4.912   1.219   7.846  1.4190  2.4916  1.9003
  140OSM   C16F15371   4.708   1.180   7.859 -0.8868 -0.3207  0.5374
  140OSM   H16F15372   4.726   1.094   7.792 -2.6613 -0.3379  0.0451
  140OSM   H16G15373   4.623   1.233   7.811  1.1589  2.3471 -0.2437
  140OSM   C17F15374   4.673   1.125   7.995 -0.2802 -0.9403 -0.5410
  140OSM   H17F15375   4.577   1.069   7.990 -2.1672  2.1646 -0.2900
  140OSM   H17G15376   4.658   1.205   8.071 -0.0131  0.0333 -1.5111
  140OSM   C18F15377   4.777   1.023   8.058  0.9311  0.3002 -0.8444
  140OSM   H18F15378   4.834   0.960   7.987  1.9238  0.5017 -0.2452
  140OSM   H18G15379   4.733   0.982   8.151 -0.0630 -1.2806 -1.9966
  140OSM   H18H15380   4.860   1.090   8.089 -0.1983  0.5991  1.6590
  141OSM      N15381   3.903   3.514   6.196 -0.1372  0.1031 -0.0767
  141OSM    C1515382   4.058   3.505   6.197  0.5511 -0.2445  1.0294
  141OSM   H15A15383   4.100   3.408   6.174  1.3592 -0.0949  1.8085
  141OSM   H15B15384   4.101   3.539   6.290 -2.0640  2.1509  1.4260
  141OSM   H15C15385   4.106   3.575   6.130  1.6155 -0.9084  1.0855
  141OSM    C1415386   3.849   3.466   6.331  0.3628 -0.2720 -0.0150
  141OSM   H14A15387   3.753   3.508   6.358  0.8384  2.1045 -1.8645
  141OSM   H14B15388   3.920   3.481   6.410  2.0664 -1.4420 -1.2913
  141OSM   H14C15389   3.849   3.358   6.330  1.6971 -0.2893  1.0161
  141OSM    C1315390   3.874   3.658   6.182 -0.1084 -0.4746 -0.0379
  141OSM   H13A15391   3.893   3.701   6.085 -1.9089 -0.9603 -0.6355
  141OSM   H13B15392   3.938   3.708   6.253 -0.6321 -1.8013  1.3959
  141OSM   H13C15393   3.772   3.681   6.211  0.1874 -0.4011  0.9545
  141OSM    C1215394   3.827   3.430   6.098 -0.2276  0.4812 -0.2335
  141OSM   H12A15395   3.855   3.449   5.995 -0.2483 -0.5756 -0.4311
  141OSM   H12B15396   3.723   3.458   6.102  0.0360  1.2838  1.5543
  141OSM    C1115397   3.823   3.275   6.116  0.1054 -0.7873  0.4722
  141OSM   H11A15398   3.929   3.252   6.139 -0.0351 -0.6757  1.2592
  141OSM   H11B15399   3.800   3.236   6.015 -0.1523  1.3831 -0.3165
  141OSM      P15400   3.573   3.236   6.222 -0.1485  0.2720  0.4090
  141OSM    O1315401   3.527   3.376   6.218  0.1431 -0.1413 -0.3211
  141OSM    O1415402   3.523   3.138   6.127 -0.1180 -0.0951  0.2218
  141OSM    O1115403   3.529   3.178   6.363 -0.5895 -0.0515 -0.1924
  141OSM    O1215404   3.731   3.222   6.212 -0.3380 -0.0393  0.3887
  141OSM    C1S15405   3.590   3.158   6.485 -0.1406 -0.2884  0.0716
  141OSM    H1S15406   3.683   3.218   6.487 -0.5196  0.2670  3.1733
  141OSM    H1T15407   3.609   3.049   6.494 -0.5814 -0.2490  1.6781
  141OSM     NF15408   3.593   3.181   6.717  0.6713 -0.1898  0.6181
  141OSM    HNF15409   3.580   3.098   6.770 -0.2885 -0.0872  0.5466
  141OSM    C2S15410   3.504   3.194   6.606 -0.5412 -0.2498  0.0996
  141OSM    H2S15411   3.477   3.298   6.578 -1.3952 -0.9770 -1.9294
  141OSM    C3S15412   3.374   3.108   6.622  0.3570 -0.1882  0.0938
  141OSM    H3S15413   3.405   3.008   6.660  0.4075  0.7053  2.5068
  141OSM     O315414   3.291   3.070   6.508  0.0457 -0.1190  0.4111
  141OSM    HO315415   3.358   3.049   6.442 -0.1697  1.6390 -0.3895
  141OSM    C4S15416   3.290   3.164   6.740 -0.3958  0.1639  0.2221
  141OSM    H4S15417   3.331   3.140   6.839 -1.0197  0.8330  0.6450
  141OSM    C5S15418   3.181   3.246   6.735 -0.3434  0.0385  0.3982
  141OSM    H5S15419   3.136   3.276   6.639  2.2204  1.3695 -0.4223
  141OSM    C6S15420   3.111   3.291   6.861 -0.4672 -0.8722 -0.3165
  141OSM    H6S15421   3.021   3.226   6.871  0.5787 -2.1148  1.1036
  141OSM    H6T15422   3.080   3.398   6.861  0.2136 -0.6656  0.7288
  141OSM    C7S15423   3.171   3.260   6.995  0.4128  0.1953 -0.3405
  141OSM    H7S15424   3.263   3.317   7.022 -0.6680  1.3438  1.0511
  141OSM    H7T15425   3.189   3.153   7.021 -0.3728  0.2162  0.3296
  141OSM    C8S15426   3.070   3.284   7.111 -0.1553  0.0124  0.7557
  141OSM    H8S15427   2.977   3.224   7.104 -0.4593  0.6134 -0.5141
  141OSM    H8T15428   3.040   3.391   7.113 -1.6050 -0.3646  0.1544
  141OSM    C9S15429   3.133   3.253   7.249  0.6337 -0.1175 -0.2535
  141OSM    H9S15430   3.240   3.277   7.235  0.4035  1.4299  0.5540
  141OSM    H9T15431   3.129   3.144   7.269 -1.0733  0.1038  0.7493
  141OSM   C10S15432   3.069   3.318   7.367  0.4367 -0.3568 -1.0074
  141OSM   H10S15433   2.961   3.296   7.372 -0.4354  3.5975 -1.3299
  141OSM   H10T15434   3.078   3.428   7.360  1.3234 -0.3865 -0.4316
  141OSM   C11S15435   3.131   3.274   7.500  0.7954 -0.3212 -0.0053
  141OSM   H11S15436   3.240   3.295   7.509  0.8412 -0.4273 -0.3337
  141OSM   H11T15437   3.126   3.164   7.507  1.3853 -0.3160  0.5109
  141OSM   C12S15438   3.048   3.342   7.615  0.3972 -0.5898  0.7821
  141OSM   H12S15439   2.945   3.304   7.602  1.1986 -1.7525 -2.6192
  141OSM   H12T15440   3.044   3.451   7.593  0.5597 -1.1110 -2.0097
  141OSM   C13S15441   3.104   3.310   7.754 -0.9161 -0.2677  0.2729
  141OSM   H13S15442   3.213   3.330   7.758 -1.1219  1.4230 -1.5765
  141OSM   H13T15443   3.096   3.200   7.762 -1.1859 -0.2003  0.9503
  141OSM   C14S15444   3.027   3.389   7.862  0.1643 -0.2272 -0.7596
  141OSM   H14S15445   2.918   3.384   7.842  0.2034  0.6521 -1.2256
  141OSM   H14T15446   3.051   3.497   7.870 -1.0511 -0.0612  0.9208
  141OSM   C15S15447   3.055   3.337   8.001 -0.0838 -0.8395  0.2231
  141OSM   H15S15448   3.038   3.228   8.001 -2.3504 -0.4947  1.0934
  141OSM   H15T15449   2.982   3.388   8.068  2.1073 -0.4515  2.3827
  141OSM   C16S15450   3.203   3.358   8.055  0.4599  0.1925 -0.1330
  141OSM   H16S15451   3.215   3.466   8.080 -0.2272 -0.5569  3.7229
  141OSM   H16T15452   3.283   3.322   7.987 -0.1147 -0.0160 -0.7052
  141OSM   C17S15453   3.234   3.295   8.198  0.3737  0.6021  0.2625
  141OSM   H17S15454   3.342   3.315   8.209 -0.3407  5.1988 -0.1478
  141OSM   H17T15455   3.207   3.188   8.202  1.4473  0.3123 -0.0364
  141OSM   C18S15456   3.161   3.376   8.307  0.1196 -0.4392  0.0390
  141OSM   H18S15457   3.207   3.477   8.314 -0.1859 -0.4214  1.8786
  141OSM   H18T15458   3.186   3.346   8.411 -0.0625  1.8757  0.7709
  141OSM   H18U15459   3.052   3.395   8.292  0.9031  3.0857 -1.8576
  141OSM    C1F15460   3.687   3.268   6.747  0.1554 -0.8211 -0.5223
  141OSM     OF15461   3.688   3.376   6.692 -1.0277 -0.0978  0.4683
  141OSM    C2F15462   3.782   3.233   6.854  0.2876 -0.1617 -0.5272
  141OSM    H2F15463   3.865   3.169   6.817  0.5209 -0.1947  0.0356
  141OSM    H2G15464   3.723   3.173   6.926 -1.0275  1.2459 -0.4192
  141OSM    C3F15465   3.844   3.349   6.940  1.1543  0.2081  0.4266
  141OSM    H3F15466   3.764   3.412   6.985  0.4436 -0.9130  0.7521
  141OSM    H3G15467   3.893   3.431   6.883  0.9054 -0.3877 -0.6548
  141OSM    C4F15468   3.937   3.314   7.057 -0.8723 -0.5486 -0.3651
  141OSM    H4F15469   3.950   3.404   7.121 -1.6641  0.4831 -1.6463
  141OSM    H4G15470   4.032   3.274   7.015 -1.9270 -1.6594 -1.7168
  141OSM    C5F15471   3.892   3.200   7.157  0.3529 -0.1400 -0.5016
  141OSM    H5F15472   3.920   3.111   7.097  0.1406 -0.1917 -0.5263
  141OSM    H5G15473   3.780   3.198   7.161  0.3403  1.3585 -0.0229
  141OSM    C6F15474   3.958   3.212   7.288 -0.2630 -0.2123 -0.2056
  141OSM    H6F15475   3.944   3.113   7.337 -0.3768  0.3890  1.0097
  141OSM    H6G15476   3.912   3.295   7.346 -1.1540 -1.7654  1.3671
  141OSM    C7F15477   4.110   3.231   7.275  0.5126 -0.1469  0.1752
  141OSM    H7F15478   4.133   3.318   7.209  0.3298 -0.5080 -0.3646
  141OSM    H7G15479   4.142   3.139   7.223 -0.0424  0.0960 -0.6137
  141OSM    C8F15480   4.199   3.248   7.406 -0.4677  0.9211  0.4718
  141OSM    H8F15481   4.296   3.254   7.354  0.2518 -1.7949  1.3961
  141OSM    H8G15482   4.194   3.153   7.463 -0.5392  0.1250 -0.8488
  141OSM    C9F15483   4.161   3.368   7.487  0.3094 -0.2960  0.3475
  141OSM    H9F15484   4.144   3.460   7.429  2.0012  1.1283  2.0318
  141OSM   C10F15485   4.121   3.366   7.614 -0.4415 -0.7471 -0.6385
  141OSM   H10F15486   4.071   3.457   7.647 -0.4816 -0.2192 -2.1151
  141OSM   C11F15487   4.121   3.253   7.707  0.5741 -0.2953  0.2151
  141OSM   H11F15488   4.196   3.175   7.683 -1.4384 -1.3295 -3.0854
  141OSM   H11G15489   4.018   3.210   7.712 -1.1692  3.5265 -1.0066
  141OSM   C12F15490   4.162   3.296   7.853 -0.6126 -0.5905 -0.5256
  141OSM   H12F15491   4.093   3.373   7.893 -0.2634 -0.7252  0.3480
  141OSM   H12G15492   4.267   3.332   7.844 -0.7751 -0.3190 -1.3788
  141OSM   C13F15493   4.168   3.177   7.953 -0.1072  0.6524  0.9567
  141OSM   H13F15494   4.218   3.090   7.906 -2.3297 -0.0477 -0.2074
  141OSM   H13G15495   4.064   3.149   7.980  0.6425 -3.4631 -0.1173
  141OSM   C14F15496   4.225   3.222   8.087 -0.1130  0.0566  0.1002
  141OSM   H14F15497   4.158   3.310   8.098  1.8725  1.7064 -0.7281
  141OSM   H14G15498   4.332   3.251   8.092 -0.1408 -0.1236  2.1576
  141OSM   C15F15499   4.198   3.127   8.204  0.4080 -0.3406  0.3600
  141OSM   H15F15500   4.281   3.055   8.218 -0.1724 -0.6579  2.3207
  141OSM   H15G15501   4.100   3.082   8.177  0.3461 -0.5146  0.8815
  141OSM   C16F15502   4.172   3.200   8.345 -0.2593 -0.0433  0.5441
  141OSM   H16F15503   4.249   3.270   8.382  0.0868 -0.3139  0.3320
  141OSM   H16G15504   4.141   3.119   8.415  1.4522 -0.1455  1.1882
  141OSM   C17F15505   4.048   3.286   8.354  0.1203 -0.2873 -0.0265
  141OSM   H17F15506   3.969   3.229   8.301  1.4620 -0.8287 -1.4729
  141OSM   H17G15507   4.061   3.386   8.307 -2.0714 -1.1461 -2.6260
  141OSM   C18F15508   3.990   3.310   8.491  0.3360 -0.0868 -0.6354
  141OSM   H18F15509   4.066   3.361   8.554  0.0890  1.2129 -1.3630
  141OSM   H18G15510   3.965   3.215   8.542 -0.1572  1.1956  1.5502
  141OSM   H18H15511   3.899   3.373   8.480  0.9958  0.8304 -0.9522
  142OSM      N15512   3.315   5.347   5.977 -0.0098 -0.1317  0.6130
  142OSM    C1515513   3.363   5.484   5.967  0.2497  0.1006 -0.0455
  142OSM   H15A15514   3.387   5.507   5.864  3.1631 -2.5504 -0.0378
  142OSM   H15B15515   3.453   5.503   6.024 -0.8504 -1.0032  2.1055
  142OSM   H15C15516   3.295   5.561   6.001  0.2680 -0.5343  1.4298
  142OSM    C1415517   3.197   5.351   5.884  0.8605 -0.0556 -0.4253
  142OSM   H14A15518   3.232   5.381   5.786 -0.6832  2.2505 -0.3184
  142OSM   H14B15519   3.125   5.422   5.922 -0.3587 -1.4251 -0.1342
  142OSM   H14C15520   3.138   5.261   5.878 -0.6058  0.8581 -0.0836
  142OSM    C1315521   3.424   5.254   5.931  0.3160 -0.1028 -0.6615
  142OSM   H13A15522   3.464   5.279   5.833  0.7018 -1.0309 -0.7424
  142OSM   H13B15523   3.397   5.151   5.948 -0.5303  0.1863 -0.2206
  142OSM   H13C15524   3.513   5.278   5.987  0.8939 -0.3461 -1.4746
  142OSM    C1215525   3.266   5.306   6.114 -0.3476  0.0505  0.4203
  142OSM   H12A15526   3.211   5.214   6.104 -0.4991  0.0414  1.3413
  142OSM   H12B15527   3.198   5.383   6.148 -0.8646 -0.0507 -0.3612
  142OSM    C1115528   3.386   5.297   6.219  0.0423 -0.0606  0.1743
  142OSM   H11A15529   3.341   5.291   6.320  1.7747 -0.2439  0.9423
  142OSM   H11B15530   3.443   5.392   6.222  1.6566 -0.9233 -2.0864
  142OSM      P15531   3.428   5.050   6.205 -0.1802  0.1522  0.0045
  142OSM    O1315532   3.302   5.030   6.131 -0.6890 -0.1721 -0.8826
  142OSM    O1415533   3.538   4.963   6.166 -0.0951 -0.3070 -0.1324
  142OSM    O1115534   3.409   5.023   6.356  0.0838  0.5072  0.6173
  142OSM    O1215535   3.479   5.196   6.197  0.7117 -0.1126  0.6049
  142OSM    C1S15536   3.521   5.043   6.455  0.8761 -0.0313  0.5567
  142OSM    H1S15537   3.604   5.103   6.410  0.7792 -0.0924  0.3036
  142OSM    H1T15538   3.562   4.943   6.479 -0.3229 -0.5488  0.4652
  142OSM     NF15539   3.588   5.106   6.691 -0.5471 -0.6711 -0.3748
  142OSM    HNF15540   3.585   5.034   6.759 -0.9056  2.6092  3.2352
  142OSM    C2S15541   3.479   5.102   6.591 -0.4063 -0.3608 -0.3493
  142OSM    H2S15542   3.466   5.211   6.574  2.2266  0.3790  2.0513
  142OSM    C3S15543   3.355   5.038   6.653  0.1848 -0.1117  0.0193
  142OSM    H3S15544   3.376   4.931   6.671  1.2681 -0.1090 -1.2031
  142OSM     O315545   3.231   5.020   6.575 -0.0866 -0.1082 -0.2000
  142OSM    HO315546   3.267   5.021   6.485 -1.6056 -1.0810 -0.8285
  142OSM    C4S15547   3.318   5.112   6.771  1.0346 -0.3001  0.1223
  142OSM    H4S15548   3.283   5.213   6.745 -0.2661 -0.7229  0.1955
  142OSM    C5S15549   3.304   5.061   6.894  0.0253  0.1751  0.1530
  142OSM    H5S15550   3.347   4.962   6.916  3.2816  1.0846 -1.7692
  142OSM    C6S15551   3.248   5.139   7.011 -0.5192 -0.2738 -0.2203
  142OSM    H6S15552   3.288   5.242   7.011 -0.3878 -0.3206  1.2702
  142OSM    H6T15553   3.283   5.082   7.099 -0.6422  0.2462  0.1641
  142OSM    C7S15554   3.103   5.153   7.018  0.2342  0.3991 -0.0754
  142OSM    H7S15555   3.053   5.054   7.032 -0.0867  0.4985 -0.5041
  142OSM    H7T15556   3.068   5.198   6.923 -1.4267  0.5279  0.5623
  142OSM    C8S15557   3.059   5.249   7.131  0.1012  0.2444 -0.2566
  142OSM    H8S15558   2.957   5.289   7.115  0.3981  2.0343  2.0539
  142OSM    H8T15559   3.131   5.334   7.129 -0.1539  0.4547 -3.5277
  142OSM    C9S15560   3.069   5.179   7.268 -0.4430  0.3279  1.2893
  142OSM    H9S15561   3.177   5.157   7.277 -0.0046  2.4494  1.3274
  142OSM    H9T15562   3.009   5.086   7.260  2.5654 -1.5688  0.0285
  142OSM   C10S15563   3.017   5.268   7.388 -0.0275  0.1159  0.0974
  142OSM   H10S15564   3.028   5.206   7.480 -2.5991 -0.0690  0.3177
  142OSM   H10T15565   2.909   5.291   7.382  0.1222  2.0711  3.4259
  142OSM   C11S15566   3.090   5.397   7.426 -0.4349  0.4941  0.4793
  142OSM   H11S15567   3.082   5.471   7.344  0.3238 -1.0553 -1.0452
  142OSM   H11T15568   3.199   5.375   7.427  0.2387  3.6901  1.3336
  142OSM   C12S15569   3.032   5.455   7.559 -0.4999 -0.2317  0.2749
  142OSM   H12S15570   2.922   5.466   7.561 -0.7239 -1.5216 -2.3889
  142OSM   H12T15571   3.088   5.550   7.573 -2.0083  0.7230 -0.1192
  142OSM   C13S15572   3.063   5.374   7.686 -0.3567 -0.5615 -0.6253
  142OSM   H13S15573   3.164   5.329   7.685 -1.0367 -2.1087 -2.3427
  142OSM   H13T15574   2.995   5.287   7.683  0.9277 -1.5711 -0.7223
  142OSM   C14S15575   3.025   5.446   7.824  0.1572  0.1355  0.3254
  142OSM   H14S15576   2.938   5.397   7.874  0.4982  0.0103  0.8011
  142OSM   H14T15577   2.995   5.549   7.796  0.2499 -0.2255 -1.1497
  142OSM   C15S15578   3.139   5.448   7.928 -0.4898 -0.2457  0.0910
  142OSM   H15S15579   3.221   5.509   7.884 -2.5276  2.8033  0.3450
  142OSM   H15T15580   3.178   5.345   7.946 -2.0741 -0.4534  2.6648
  142OSM   C16S15581   3.090   5.503   8.061  0.3788  0.2205 -0.6234
  142OSM   H16S15582   3.051   5.607   8.054  0.8970  0.3504 -1.6918
  142OSM   H16T15583   3.179   5.505   8.128  0.7497 -0.7797 -1.0759
  142OSM   C17S15584   2.992   5.417   8.141  0.1294  0.1524  0.1785
  142OSM   H17S15585   3.045   5.323   8.169  1.1257 -0.9430 -4.8067
  142OSM   H17T15586   2.910   5.398   8.069  0.2190 -0.9500  0.3583
  142OSM   C18S15587   2.933   5.509   8.250 -1.1703 -0.8505  0.1341
  142OSM   H18S15588   2.857   5.577   8.205 -1.1301  0.6493  2.2188
  142OSM   H18T15589   3.004   5.577   8.303 -0.6684 -0.2524 -1.2749
  142OSM   H18U15590   2.878   5.455   8.329 -2.2363  1.1980  0.8213
  142OSM    C1F15591   3.706   5.169   6.664 -0.0776  0.3560  0.5834
  142OSM     OF15592   3.722   5.236   6.562  0.4262  0.0403 -0.1773
  142OSM    C2F15593   3.820   5.142   6.758 -0.9900  0.2496 -0.2495
  142OSM    H2F15594   3.912   5.176   6.706 -0.8371 -1.0741 -0.8721
  142OSM    H2G15595   3.818   5.032   6.776 -2.7559  0.3766  0.4215
  142OSM    C3F15596   3.815   5.213   6.887 -0.3363 -0.0414 -0.1306
  142OSM    H3F15597   3.804   5.324   6.888  0.8347  0.0838  1.2673
  142OSM    H3G15598   3.906   5.196   6.949 -0.8974 -2.0421  0.1841
  142OSM    C4F15599   3.708   5.163   6.987 -0.5930  0.2167  0.0483
  142OSM    H4F15600   3.705   5.052   6.996 -1.0215  0.3984  2.4730
  142OSM    H4G15601   3.609   5.187   6.943 -0.1466 -0.4999 -1.4005
  142OSM    C5F15602   3.716   5.224   7.124 -0.0885  0.4247 -0.5855
  142OSM    H5F15603   3.691   5.333   7.121  0.5691  0.6756  1.7514
  142OSM    H5G15604   3.823   5.219   7.151  0.3019  0.8997 -2.0075
  142OSM    C6F15605   3.625   5.158   7.231  0.6345  0.1108  0.9984
  142OSM    H6F15606   3.656   5.052   7.242 -1.2349 -0.9485 -3.0294
  142OSM    H6G15607   3.528   5.163   7.177  3.1218 -0.5453 -3.7869
  142OSM    C7F15608   3.614   5.245   7.358  0.3528  1.0420 -0.1026
  142OSM    H7F15609   3.521   5.210   7.409  0.7733  0.2850  0.1513
  142OSM    H7G15610   3.602   5.350   7.324  1.9084  1.3954  0.4110
  142OSM    C8F15611   3.727   5.226   7.458 -0.1919 -0.6112  0.5884
  142OSM    H8F15612   3.821   5.256   7.408  0.7519 -1.4175  1.8447
  142OSM    H8G15613   3.731   5.116   7.474  2.0796 -0.5476  0.6303
  142OSM    C9F15614   3.688   5.304   7.583 -0.8512 -0.3279 -0.3117
  142OSM    H9F15615   3.679   5.413   7.565 -1.9456 -0.1902  1.0035
  142OSM   C10F15616   3.631   5.261   7.696  0.0204 -0.1659 -0.3259
  142OSM   H10F15617   3.627   5.326   7.784  0.8038  0.0034 -0.4093
  142OSM   C11F15618   3.600   5.113   7.731 -0.8384  0.0011 -0.1249
  142OSM   H11F15619   3.686   5.061   7.778 -0.9082 -1.7587 -1.8703
  142OSM   H11G15620   3.565   5.054   7.643 -0.2445  0.4762 -0.6795
  142OSM   C12F15621   3.481   5.113   7.829 -0.0806  0.3727 -0.6966
  142OSM   H12F15622   3.450   5.006   7.833 -1.2650  0.7643  2.1492
  142OSM   H12G15623   3.400   5.184   7.804 -0.3148 -0.0510 -1.1511
  142OSM   C13F15624   3.531   5.141   7.974 -0.6603  0.1098 -0.7147
  142OSM   H13F15625   3.597   5.230   7.979 -1.2826  0.4643  1.4885
  142OSM   H13G15626   3.601   5.058   7.994 -0.4967  0.5759  0.7006
  142OSM   C14F15627   3.406   5.144   8.057 -0.0531  0.2127 -0.1593
  142OSM   H14F15628   3.353   5.047   8.045  1.6457 -0.5903 -1.3540
  142OSM   H14G15629   3.340   5.224   8.017 -0.2123  1.0600  1.7672
  142OSM   C15F15630   3.433   5.183   8.209  0.7332  0.8377  0.4364
  142OSM   H15F15631   3.496   5.275   8.207 -1.0658  2.0866  0.4386
  142OSM   H15G15632   3.492   5.100   8.253 -0.9118 -1.3043 -1.2835
  142OSM   C16F15633   3.298   5.212   8.284 -0.2491  0.0742 -0.3887
  142OSM   H16F15634   3.227   5.138   8.242 -0.4253  0.6162 -1.0518
  142OSM   H16G15635   3.259   5.314   8.262  2.3040  1.3090  0.5295
  142OSM   C17F15636   3.303   5.188   8.434  0.2548  0.4536 -0.3201
  142OSM   H17F15637   3.350   5.091   8.463  0.8317  0.6817 -0.4946
  142OSM   H17G15638   3.196   5.185   8.463  0.3852 -0.6185  0.0943
  142OSM   C18F15639   3.378   5.301   8.511 -0.4581 -0.1695 -0.5927
  142OSM   H18F15640   3.487   5.299   8.487 -0.0570  1.4180  0.9439
  142OSM   H18G15641   3.360   5.281   8.619 -1.6694  1.4230 -0.4834
  142OSM   H18H15642   3.340   5.403   8.494 -0.4309  0.0097  0.4029
  143OSM      N15643   5.634   0.203   5.786  0.1111 -0.5022  0.4972
  143OSM    C1515644   5.556   0.290   5.689 -0.2290  0.2033 -0.7706
  143OSM   H15A15645   5.623   0.326   5.612  2.6852 -0.5936  1.3406
  143OSM   H15B15646   5.519   0.375   5.744  1.3695 -0.0795  0.7692
  143OSM   H15C15647   5.468   0.242   5.648 -3.1125  0.7685  4.4192
  143OSM    C1415648   5.717   0.112   5.692  0.2534  0.2273 -0.1697
  143OSM   H14A15649   5.782   0.048   5.750 -2.5633 -0.9914  1.7624
  143OSM   H14B15650   5.778   0.172   5.626 -2.5944  0.5958 -2.6114
  143OSM   H14C15651   5.653   0.048   5.633  0.3180  0.3452 -0.3669
  143OSM    C1315652   5.733   0.283   5.866  0.3624  0.0648  0.1763
  143OSM   H13A15653   5.794   0.215   5.924  0.0114  0.2735  0.7991
  143OSM   H13B15654   5.687   0.351   5.937 -1.8126 -0.5925 -0.5506
  143OSM   H13C15655   5.803   0.338   5.805 -0.2707  1.6225  0.8434
  143OSM    C1215656   5.547   0.130   5.888  0.7507 -0.2126 -0.3090
  143OSM   H12A15657   5.625   0.102   5.958 -0.6595 -6.7957 -1.0322
  143OSM   H12B15658   5.501   0.043   5.844  0.9572 -0.4033 -0.1491
  143OSM    C1115659   5.441   0.224   5.964 -0.2772 -0.0984  0.1418
  143OSM   H11A15660   5.376   0.161   6.028 -0.7616  1.1892  0.9149
  143OSM   H11B15661   5.371   0.263   5.888  1.4629  0.5626 -1.1688
  143OSM      P15662   5.535   0.327   6.193 -0.1200  0.2414 -0.0538
  143OSM    O1315663   5.658   0.250   6.214 -0.2934 -0.2815 -0.5025
  143OSM    O1415664   5.516   0.460   6.254 -0.3437  0.6352 -0.1903
  143OSM    O1115665   5.413   0.240   6.249 -0.1302 -0.2124 -0.1600
  143OSM    O1215666   5.501   0.333   6.034  0.0278 -0.5544  0.2439
  143OSM    C1S15667   5.426   0.203   6.387  0.4057 -0.1973 -0.1199
  143OSM    H1S15668   5.435   0.290   6.456 -1.6276  0.5736 -0.7845
  143OSM    H1T15669   5.523   0.150   6.401  1.2761  1.5328  0.6518
  143OSM     NF15670   5.323   0.088   6.589  0.2433  0.0659 -0.0335
  143OSM    HNF15671   5.363   0.007   6.632  0.2255  0.8167  1.4286
  143OSM    C2S15672   5.317   0.107   6.442 -0.0231 -0.7980  0.5611
  143OSM    H2S15673   5.220   0.156   6.417 -0.3382 -2.0635 -0.8122
  143OSM    C3S15674   5.320  -0.022   6.369 -0.4779 -0.6246 -0.2198
  143OSM    H3S15675   5.424  -0.058   6.353  0.0012  0.4219  0.5231
  143OSM     O315676   5.270   0.001   6.239  0.7288 -0.7353 -0.3109
  143OSM    HO315677   5.279   0.095   6.222  2.2790 -0.2488  2.8273
  143OSM    C4S15678   5.228  -0.128   6.431  0.2621 -0.8029  0.4327
  143OSM    H4S15679   5.124  -0.114   6.399  0.7676  1.4944 -0.2878
  143OSM    C5S15680   5.266  -0.223   6.518 -0.0480 -0.6182  0.6749
  143OSM    H5S15681   5.366  -0.226   6.563  0.6469  1.8068 -0.6038
  143OSM    C6S15682   5.176  -0.324   6.585  0.2319 -0.3953  0.2842
  143OSM    H6S15683   5.227  -0.422   6.586  1.3182  0.1576  1.5993
  143OSM    H6T15684   5.083  -0.335   6.525  0.3110  2.7705 -0.5174
  143OSM    C7S15685   5.134  -0.294   6.733  0.2690 -0.5413  0.3331
  143OSM    H7S15686   5.059  -0.371   6.761 -1.0099  0.2340 -0.9424
  143OSM    H7T15687   5.079  -0.198   6.727  1.6177  0.1745 -0.9239
  143OSM    C8S15688   5.251  -0.308   6.831 -0.7476  0.7005  0.4725
  143OSM    H8S15689   5.310  -0.214   6.828 -2.2528  1.6465 -0.9119
  143OSM    H8T15690   5.301  -0.404   6.805 -2.0937 -0.5246  2.2829
  143OSM    C9S15691   5.201  -0.319   6.980 -0.2571  0.5586  0.1844
  143OSM    H9S15692   5.153  -0.418   6.996  0.4566  0.5722  2.7091
  143OSM    H9T15693   5.135  -0.232   7.000 -0.3884  0.5122 -0.0484
  143OSM   C10S15694   5.316  -0.306   7.082  1.0593  0.4759 -0.6238
  143OSM   H10S15695   5.375  -0.212   7.071  0.2050  0.9971 -0.8840
  143OSM   H10T15696   5.385  -0.393   7.075  1.4631  0.6965  0.5332
  143OSM   C11S15697   5.261  -0.315   7.228  0.1671  0.7925 -1.4933
  143OSM   H11S15698   5.214  -0.412   7.256  0.4398  0.4988 -2.0357
  143OSM   H11T15699   5.181  -0.238   7.232 -0.0532  0.5069 -0.3380
  143OSM   C12S15700   5.368  -0.290   7.342 -0.2307 -0.2265  0.3847
  143OSM   H12S15701   5.394  -0.182   7.347 -0.7932 -0.1626  2.2275
  143OSM   H12T15702   5.461  -0.344   7.313 -1.1667 -1.2466 -0.7657
  143OSM   C13S15703   5.313  -0.321   7.479 -0.0707  0.6382  0.2793
  143OSM   H13S15704   5.313  -0.432   7.487  1.3350  0.7082  1.5284
  143OSM   H13T15705   5.211  -0.283   7.499 -0.7997 -1.8760  1.4493
  143OSM   C14S15706   5.408  -0.272   7.590  0.8283 -0.0918  0.2296
  143OSM   H14S15707   5.450  -0.173   7.562  1.4903  0.1713  2.1172
  143OSM   H14T15708   5.504  -0.328   7.597 -0.1062 -1.7942 -0.1287
  143OSM   C15S15709   5.349  -0.263   7.727 -0.2452 -0.0069 -0.7999
  143OSM   H15S15710   5.306  -0.364   7.745 -0.1110 -0.2375 -1.7488
  143OSM   H15T15711   5.272  -0.184   7.735 -2.3564 -1.7359 -3.1506
  143OSM   C16S15712   5.457  -0.242   7.835 -0.4846  0.3414  1.2579
  143OSM   H16S15713   5.505  -0.144   7.813 -2.0728  1.3042  1.9532
  143OSM   H16T15714   5.522  -0.332   7.839  0.0458  0.6552 -0.2662
  143OSM   C17S15715   5.407  -0.209   7.976 -0.4497  0.0576 -0.1943
  143OSM   H17S15716   5.380  -0.300   8.034  1.1599 -2.2197 -2.8994
  143OSM   H17T15717   5.313  -0.150   7.966 -1.8940 -0.8899  5.6807
  143OSM   C18S15718   5.506  -0.117   8.063 -0.2459  0.6565  0.6536
  143OSM   H18S15719   5.464  -0.123   8.166 -0.7471 -0.6286  0.3944
  143OSM   H18T15720   5.507  -0.016   8.019 -0.6718  0.0604 -0.7603
  143OSM   H18U15721   5.603  -0.170   8.072 -1.0682 -0.9341  0.4640
  143OSM    C1F15722   5.286   0.176   6.683 -0.0960  0.1095 -0.0152
  143OSM     OF15723   5.234   0.281   6.650  0.4865 -0.0556  0.3947
  143OSM    C2F15724   5.288   0.129   6.826  0.0618 -1.3564 -0.1825
  143OSM    H2F15725   5.379   0.168   6.877 -0.6414 -1.2129  0.9709
  143OSM    H2G15726   5.292   0.018   6.825 -0.0839 -1.3591 -0.7325
  143OSM    C3F15727   5.167   0.178   6.904 -1.0159  0.0598 -0.2050
  143OSM    H3F15728   5.075   0.137   6.856  0.0260 -2.3554 -0.2262
  143OSM    H3G15729   5.178   0.288   6.908 -0.9627 -0.0030  1.6281
  143OSM    C4F15730   5.160   0.137   7.057 -0.7325  0.1001  0.3066
  143OSM    H4F15731   5.245   0.181   7.112  0.6624  0.4376 -2.0546
  143OSM    H4G15732   5.156   0.027   7.072 -2.0518  0.3242  1.6386
  143OSM    C5F15733   5.036   0.189   7.134  0.1629  0.1357 -0.2185
  143OSM    H5F15734   4.948   0.138   7.089  1.1771 -0.0642 -2.0298
  143OSM    H5G15735   5.040   0.298   7.112 -0.3245 -0.0461 -1.2944
  143OSM    C6F15736   5.034   0.175   7.289  0.4958 -0.0877 -0.2015
  143OSM    H6F15737   4.946   0.222   7.337  0.1698 -0.3355 -0.5454
  143OSM    H6G15738   5.123   0.229   7.324 -1.0550  1.9472  0.6898
  143OSM    C7F15739   5.042   0.028   7.336  0.1638 -1.1277  0.0985
  143OSM    H7F15740   5.137  -0.012   7.295  0.5200 -1.0112  0.7939
  143OSM    H7G15741   4.950  -0.023   7.302 -0.7328  0.6806 -0.2271
  143OSM    C8F15742   5.053   0.013   7.487  0.0225  0.8012 -0.2197
  143OSM    H8F15743   5.069  -0.096   7.502  1.8650  0.7740 -2.1339
  143OSM    H8G15744   4.966   0.045   7.547 -0.3085 -0.1872 -0.1757
  143OSM    C9F15745   5.173   0.078   7.551  0.2073 -0.1069 -0.3835
  143OSM    H9F15746   5.271   0.039   7.521  0.5089  0.4318 -0.0968
  143OSM   C10F15747   5.170   0.183   7.644  0.2070  0.6377  0.0516
  143OSM   H10F15748   5.267   0.201   7.690  0.2413 -2.0894  1.1506
  143OSM   C11F15749   5.044   0.247   7.691  0.4626  0.1312 -0.2114
  143OSM   H11F15750   5.003   0.192   7.779 -1.5601  1.1981 -0.4574
  143OSM   H11G15751   4.962   0.236   7.616 -0.6826  0.5521  0.9633
  143OSM   C12F15752   5.062   0.400   7.716 -0.1527  0.5386 -0.4297
  143OSM   H12F15753   5.155   0.408   7.778  1.3304 -1.7567 -2.2725
  143OSM   H12G15754   4.992   0.434   7.795 -0.7593  0.6974 -1.0318
  143OSM   C13F15755   5.065   0.483   7.590 -0.3586 -0.4467 -0.7441
  143OSM   H13F15756   4.960   0.495   7.554 -0.8931 -0.4672  0.7571
  143OSM   H13G15757   5.126   0.434   7.511 -0.9220 -1.5967 -0.4823
  143OSM   C14F15758   5.122   0.626   7.615 -0.0837  0.6628  0.4414
  143OSM   H14F15759   5.233   0.622   7.622 -0.2871 -1.0927  3.5767
  143OSM   H14G15760   5.101   0.646   7.723  0.5532 -0.4492  0.7861
  143OSM   C15F15761   5.061   0.737   7.529  0.0926  0.2823 -0.2455
  143OSM   H15F15762   4.952   0.720   7.520  0.2260 -0.2904 -0.8052
  143OSM   H15G15763   5.098   0.722   7.425  0.7935  1.4720 -0.1797
  143OSM   C16F15764   5.101   0.878   7.566 -0.3714  0.6895 -0.1707
  143OSM   H16F15765   5.098   0.947   7.479 -0.2102 -1.1606 -1.6604
  143OSM   H16G15766   5.209   0.873   7.592 -0.4841 -0.0779  0.1603
  143OSM   C17F15767   5.029   0.931   7.687 -0.1503  0.5571  0.9523
  143OSM   H17F15768   5.010   0.845   7.756  0.0367 -0.3817 -0.1528
  143OSM   H17G15769   4.930   0.969   7.654 -1.2081 -2.4318  0.5179
  143OSM   C18F15770   5.094   1.044   7.769  0.0985  0.4535  0.2175
  143OSM   H18F15771   5.201   1.031   7.798 -0.3872 -2.0202  1.0565
  143OSM   H18G15772   5.039   1.058   7.864  0.9256  0.1513  0.7561
  143OSM   H18H15773   5.086   1.135   7.706  2.2994  0.7468  0.3210
  144OSM      N15774   4.059   0.093   5.890  0.0702  0.2184  0.2561
  144OSM    C1515775   3.984   0.221   5.896  0.4630 -0.3902  0.1518
  144OSM   H15A15776   3.962   0.262   5.994 -2.2652 -0.7525 -0.2907
  144OSM   H15B15777   3.888   0.215   5.848  0.2687 -1.4095  0.6523
  144OSM   H15C15778   4.027   0.298   5.834 -1.3166  1.5473  1.2704
  144OSM    C1415779   4.008  -0.005   5.996  0.3315 -0.3575 -0.4822
  144OSM   H14A15780   4.046   0.025   6.092  1.4705 -2.2436 -0.3113
  144OSM   H14B15781   4.058  -0.100   5.984  1.4158  0.1476 -0.0487
  144OSM   H14C15782   3.900  -0.012   6.001  0.3596 -0.7219 -0.3381
  144OSM    C1315783   4.042   0.035   5.759 -0.1977  0.3949  0.2627
  144OSM   H13A15784   4.078   0.099   5.680  0.2603 -0.7291 -0.4581
  144OSM   H13B15785   3.937   0.021   5.738 -0.1848 -0.4498  0.7325
  144OSM   H13C15786   4.092  -0.059   5.741 -0.5102  0.4733 -1.0477
  144OSM    C1215787   4.209   0.123   5.903 -0.3318  0.0550  0.6376
  144OSM   H12A15788   4.232   0.210   5.844 -0.6863 -0.4175 -0.2055
  144OSM   H12B15789   4.255   0.034   5.862 -0.2739 -0.4756  1.8121
  144OSM    C1115790   4.272   0.165   6.037  1.0829  0.5730  0.3021
  144OSM   H11A15791   4.204   0.246   6.070  0.4814  0.2863 -0.2312
  144OSM   H11B15792   4.377   0.198   6.023  1.8235 -2.0831 -0.5478
  144OSM      P15793   4.335  -0.077   6.111  0.2891 -0.1941  0.2221
  144OSM    O1315794   4.267  -0.182   6.185  0.1832 -0.1864  0.4076
  144OSM    O1415795   4.354  -0.106   5.967  0.1925 -0.0941  0.1868
  144OSM    O1115796   4.472  -0.045   6.185  0.2238  0.5131  0.2607
  144OSM    O1215797   4.256   0.057   6.134  0.2430  0.1809 -0.6831
  144OSM    C1S15798   4.473   0.008   6.318 -0.1482  1.3047  0.4346
  144OSM    H1S15799   4.384   0.072   6.338 -2.1643 -1.3070  0.0914
  144OSM    H1T15800   4.564   0.072   6.325  2.1010 -1.5917 -1.1671
  144OSM     NF15801   4.475  -0.082   6.556  0.5534 -0.1672  0.3571
  144OSM    HNF15802   4.564  -0.073   6.600  0.7876  1.0778 -0.3391
  144OSM    C2S15803   4.493  -0.109   6.414 -0.4278  0.2467  0.1036
  144OSM    H2S15804   4.405  -0.170   6.383 -1.4355  2.9566 -2.7118
  144OSM    C3S15805   4.631  -0.168   6.387  0.4659  0.6538  0.1391
  144OSM    H3S15806   4.701  -0.107   6.448  0.6342  0.7486 -0.1494
  144OSM     O315807   4.688  -0.163   6.257  0.0165  0.4754 -0.4297
  144OSM    HO315808   4.627  -0.114   6.202 -0.7882 -0.5060 -0.4213
  144OSM    C4S15809   4.638  -0.308   6.437 -0.0187 -0.0750  0.6694
  144OSM    H4S15810   4.546  -0.367   6.422 -0.6177  0.3653  2.4069
  144OSM    C5S15811   4.745  -0.349   6.500  0.0198  0.0030 -1.0920
  144OSM    H5S15812   4.825  -0.274   6.500  0.4299 -0.4389 -1.0187
  144OSM    C6S15813   4.777  -0.484   6.557  0.8612 -0.4461 -0.3242
  144OSM    H6S15814   4.874  -0.526   6.524  1.7007  1.6733 -0.6663
  144OSM    H6T15815   4.707  -0.567   6.534  2.5972 -1.8948 -0.4412
  144OSM    C7S15816   4.782  -0.472   6.719 -0.2246 -0.1935 -0.7279
  144OSM    H7S15817   4.678  -0.453   6.753 -0.5433  0.3854 -2.0175
  144OSM    H7T15818   4.849  -0.389   6.751 -0.2148 -1.4737  2.8622
  144OSM    C8S15819   4.833  -0.596   6.793  0.7017 -0.2606 -0.7950
  144OSM    H8S15820   4.934  -0.624   6.757  1.2708 -1.0168  1.3459
  144OSM    H8T15821   4.764  -0.681   6.774 -0.1468  0.3066 -0.2753
  144OSM    C9S15822   4.843  -0.565   6.944 -0.5872  0.4431  0.7363
  144OSM    H9S15823   4.744  -0.541   6.987 -0.3509  1.0273  0.9604
  144OSM    H9T15824   4.909  -0.476   6.945 -0.8765  0.6516  1.0071
  144OSM   C10S15825   4.897  -0.661   7.047  0.8568  0.2860 -0.4574
  144OSM   H10S15826   4.973  -0.722   6.993 -1.4300 -2.5281 -0.6411
  144OSM   H10T15827   4.816  -0.734   7.068  1.0479 -0.1373 -1.1564
  144OSM   C11S15828   4.945  -0.596   7.174  0.0579 -0.2886  0.4305
  144OSM   H11S15829   4.861  -0.560   7.238 -0.6479  1.4884 -1.4098
  144OSM   H11T15830   5.002  -0.501   7.158  0.0582 -0.4498 -0.5442
  144OSM   C12S15831   5.028  -0.690   7.271  0.7965  0.0590  0.3261
  144OSM   H12S15832   5.132  -0.712   7.239 -0.1700 -0.9201 -2.2775
  144OSM   H12T15833   4.981  -0.791   7.271  0.9042  0.0029  1.5481
  144OSM   C13S15834   5.022  -0.645   7.419 -0.4855 -0.2514  0.2281
  144OSM   H13S15835   4.924  -0.594   7.436 -0.0849  0.2548  1.1001
  144OSM   H13T15836   5.120  -0.593   7.426 -0.0622 -0.8444 -1.1649
  144OSM   C14S15837   5.042  -0.769   7.509  0.5625 -0.0864 -0.0542
  144OSM   H14S15838   5.148  -0.800   7.499  0.5071  0.4558 -2.7770
  144OSM   H14T15839   4.966  -0.849   7.493  0.4457  0.1849 -0.8798
  144OSM   C15S15840   5.023  -0.725   7.660  0.6936  0.2550 -0.3927
  144OSM   H15S15841   4.922  -0.682   7.677  1.1006  0.8088  0.6720
  144OSM   H15T15842   5.095  -0.644   7.683  3.2612 -2.0364 -0.1048
  144OSM   C16S15843   5.043  -0.848   7.751  0.5077 -0.0608  0.1685
  144OSM   H16S15844   5.149  -0.881   7.757  0.3006 -0.8135 -0.1962
  144OSM   H16T15845   4.998  -0.941   7.710  1.2004 -0.2459 -0.1906
  144OSM   C17S15846   4.987  -0.806   7.885 -0.1582 -0.0114  0.2865
  144OSM   H17S15847   4.876  -0.800   7.887 -0.0889  1.0953  1.7710
  144OSM   H17T15848   5.017  -0.706   7.922 -0.4534  0.4016 -0.5862
  144OSM   C18S15849   5.021  -0.899   7.998  0.4436  0.1745 -0.2404
  144OSM   H18S15850   5.132  -0.905   8.000  0.3030 -4.1253  2.0124
  144OSM   H18T15851   4.974  -0.999   7.983  0.7274  0.1865 -1.2795
  144OSM   H18U15852   4.996  -0.861   8.099  1.4037  1.4649 -0.4820
  144OSM    C1F15853   4.354  -0.054   6.609  0.1827  0.3816 -0.8450
  144OSM     OF15854   4.257  -0.055   6.538  0.2436 -0.3127 -0.2771
  144OSM    C2F15855   4.354  -0.005   6.756  0.0797 -0.3329  0.0309
  144OSM    H2F15856   4.385   0.101   6.755 -1.5477  0.1631 -1.6041
  144OSM    H2G15857   4.429  -0.070   6.805 -0.5269  0.0186  1.4407
  144OSM    C3F15858   4.224  -0.029   6.828  0.5093  0.4090  0.5824
  144OSM    H3F15859   4.173  -0.125   6.804  0.8027  0.0376  1.4485
  144OSM    H3G15860   4.147   0.047   6.802  1.5652  0.8725 -1.3365
  144OSM    C4F15861   4.256  -0.015   6.978  0.1402  0.0885 -0.2842
  144OSM    H4F15862   4.316   0.078   6.993  2.6238 -1.4362 -0.5895
  144OSM    H4G15863   4.321  -0.101   7.004 -0.0088  0.2516  0.6275
  144OSM    C5F15864   4.138  -0.007   7.068 -0.3149  0.0357 -0.2806
  144OSM    H5F15865   4.060  -0.075   7.029  0.4818 -1.2160  0.2907
  144OSM    H5G15866   4.099   0.097   7.067 -0.8092 -0.1531 -1.4349
  144OSM    C6F15867   4.181  -0.033   7.213 -0.1536  0.4478  0.0623
  144OSM    H6F15868   4.265   0.030   7.250  0.8824  0.1444 -1.6922
  144OSM    H6G15869   4.220  -0.137   7.208  0.8277  0.7628  0.9495
  144OSM    C7F15870   4.070  -0.030   7.320 -0.9465 -0.4684 -0.0521
  144OSM    H7F15871   3.977  -0.077   7.281 -0.6169  1.8353 -3.9023
  144OSM    H7G15872   4.044   0.072   7.356  0.3754  0.0650 -0.5555
  144OSM    C8F15873   4.119  -0.101   7.447  0.5424 -0.5228 -0.6569
  144OSM    H8F15874   4.170  -0.035   7.520 -1.9086  0.8923 -0.1565
  144OSM    H8G15875   4.199  -0.175   7.427  3.0300  1.8030  0.4278
  144OSM    C9F15876   3.994  -0.163   7.514 -0.5128  0.4801 -0.2817
  144OSM    H9F15877   3.944  -0.236   7.448 -0.2786 -1.8849  2.0954
  144OSM   C10F15878   3.945  -0.146   7.640 -0.8621 -0.0237 -0.6141
  144OSM   H10F15879   3.865  -0.213   7.675 -0.7570  0.9434  1.5412
  144OSM   C11F15880   4.016  -0.051   7.732  0.1048  0.7014  1.0892
  144OSM   H11F15881   3.932  -0.027   7.801  0.6204 -0.3684  2.1105
  144OSM   H11G15882   4.023   0.045   7.675 -0.0262  0.6138  0.9260
  144OSM   C12F15883   4.135  -0.108   7.810  0.1531  0.3066  0.9730
  144OSM   H12F15884   4.214  -0.136   7.737  0.3042  2.6667  0.1910
  144OSM   H12G15885   4.108  -0.206   7.855  2.3513 -2.6566 -3.6721
  144OSM   C13F15886   4.188  -0.017   7.923  0.1490  0.0679 -0.3573
  144OSM   H13F15887   4.103   0.014   7.988  0.4757  0.3668 -0.0636
  144OSM   H13G15888   4.225   0.082   7.887  0.9560 -0.6260 -1.4669
  144OSM   C14F15889   4.297  -0.080   8.020  1.0014  0.3478 -0.0468
  144OSM   H14F15890   4.331   0.007   8.080 -0.6922  1.8598 -1.2368
  144OSM   H14G15891   4.383  -0.129   7.968  1.1636  2.7880 -2.1748
  144OSM   C15F15892   4.223  -0.190   8.101  0.1484 -0.5057  0.5524
  144OSM   H15F15893   4.201  -0.278   8.037 -1.6958  1.2599 -1.3375
  144OSM   H15G15894   4.124  -0.151   8.133  0.4351  0.1586  0.6312
  144OSM   C16F15895   4.317  -0.236   8.219 -0.2564 -0.3970 -0.0752
  144OSM   H16F15896   4.350  -0.157   8.289  3.3819 -1.0368 -0.9751
  144OSM   H16G15897   4.412  -0.282   8.182  0.2996 -0.5870  1.5681
  144OSM   C17F15898   4.249  -0.329   8.319 -0.4673  0.3730 -0.9006
  144OSM   H17F15899   4.338  -0.363   8.376 -0.8991  1.9677  0.7628
  144OSM   H17G15900   4.208  -0.419   8.269 -0.7370  0.3561 -0.6472
  144OSM   C18F15901   4.140  -0.269   8.411  0.3778  0.4833  0.6628
  144OSM   H18F15902   4.160  -0.162   8.435  0.8473  0.3894  0.7055
  144OSM   H18G15903   4.145  -0.327   8.506 -0.8094  2.0895  1.7231
  144OSM   H18H15904   4.041  -0.282   8.364 -0.3935  0.7860  2.1837
  145SAPE     N15905   2.951   0.609  10.706  0.4647  0.0578  0.5105
  145SAPE   HN115906   2.857   0.635  10.741  0.5907 -0.2472  1.0857
  145SAPE   HN215907   3.017   0.595  10.785 -0.5164 -0.2834  1.2716
  145SAPE   HN315908   2.991   0.692  10.656 -2.5282  1.1409 -0.1611
  145SAPE   C1215909   2.942   0.482  10.621 -0.7407 -0.0327 -0.0698
  145SAPE  H12A15910   2.918   0.393  10.683  0.5039 -0.0385  0.4138
  145SAPE  H12B15911   3.043   0.475  10.576 -1.4160  1.1070 -1.8314
  145SAPE   C1115912   2.838   0.500  10.505  0.4487 -0.1258 -0.0742
  145SAPE  H11A15913   2.844   0.412  10.437  0.2983  0.0376 -0.3013
  145SAPE  H11B15914   2.872   0.587  10.445 -2.2077  3.1624  3.0195
  145SAPE     P15915   2.636   0.650  10.575  0.0206 -0.2118 -0.1342
  145SAPE   O1315916   2.493   0.632  10.610  0.5771  0.3025 -0.2444
  145SAPE   O1415917   2.710   0.723  10.676 -0.0595  0.3737 -0.5619
  145SAPE   O1215918   2.704   0.513  10.557  0.2341  0.5530  0.2873
  145SAPE   O1115919   2.670   0.717  10.437  0.1088 -0.2845 -0.1202
  145SAPE    C115920   2.623   0.663  10.312  0.1930  0.4851 -0.2182
  145SAPE    HA15921   2.666   0.562  10.297 -1.2439  0.0775 -1.6856
  145SAPE    HB15922   2.512   0.662  10.319  0.3210  0.1708  2.1313
  145SAPE    C215923   2.674   0.755  10.197  0.0482  0.0431 -0.2637
  145SAPE    HS15924   2.785   0.765  10.203  0.2210 -1.3562 -1.0680
  145SAPE   O2115925   2.606   0.890  10.213  0.2667 -0.0474 -0.1699
  145SAPE   C2115926   2.679   0.996  10.170 -0.1964  0.5898 -0.5823
  145SAPE   O2215927   2.793   0.985  10.123 -0.3792 -0.1485 -0.3170
  145SAPE   C2215928   2.594   1.119  10.186  0.1286  0.5822  0.4723
  145SAPE   H2R15929   2.490   1.094  10.157  0.1027  0.8973  0.2945
  145SAPE   H2S15930   2.598   1.156  10.291  2.4984 -0.7376  0.8914
  145SAPE    C315931   2.631   0.691  10.060 -0.2318 -0.7285  0.0729
  145SAPE    HX15932   2.524   0.661  10.071  0.2292 -2.1546  0.7007
  145SAPE    HY15933   2.688   0.602  10.028  1.2948  0.0127  0.6775
  145SAPE   O3115934   2.627   0.787   9.957  0.0469  0.0639 -0.1728
  145SAPE   C3115935   2.745   0.795   9.886 -0.5505 -0.5187 -0.1594
  145SAPE   O3215936   2.845   0.733   9.919 -0.1542  0.5212  0.1011
  145SAPE   C3215937   2.717   0.881   9.767 -0.1764 -0.0222  0.3875
  145SAPE   H2X15938   2.802   0.945   9.734 -1.9731  1.6903 -1.1005
  145SAPE   H2Y15939   2.635   0.956   9.770 -0.6083 -0.5091  0.8058
  145SAPE   C2315940   2.646   1.227  10.093  0.2823  0.5558 -0.3684
  145SAPE   H3R15941   2.705   1.183  10.009  1.0453 -2.2117  1.5333
  145SAPE   H3S15942   2.715   1.300  10.139 -0.0514  1.0071 -0.5755
  145SAPE   C2415943   2.529   1.310  10.042 -0.7884  0.2727  0.9093
  145SAPE   H4R15944   2.473   1.348  10.130 -2.8658  1.1944 -0.7620
  145SAPE   H4S15945   2.468   1.235   9.986 -1.1455 -0.0700  1.7493
  145SAPE   C2515946   2.574   1.430   9.961 -0.6075 -0.1142  0.4915
  145SAPE   H5R15947   2.581   1.528  10.010  0.1315  0.8295 -1.4701
  145SAPE   C2615948   2.580   1.435   9.830  0.3083 -0.2799 -0.3099
  145SAPE   H6R15949   2.624   1.525   9.783 -1.1494 -0.1492 -1.4874
  145SAPE   C2715950   2.522   1.331   9.731 -0.1914 -1.0700  0.1805
  145SAPE   H7R15951   2.528   1.230   9.776 -2.0671 -1.4196 -0.2779
  145SAPE   H7S15952   2.576   1.325   9.634  1.2624  2.0923  0.7490
  145SAPE   C2815953   2.381   1.373   9.701  0.2236  0.2316 -0.3547
  145SAPE   H8R15954   2.315   1.390   9.787 -0.7499 -1.0936 -0.8220
  145SAPE   C2915955   2.328   1.406   9.585 -0.9051 -0.4323  0.2007
  145SAPE   H9R15956   2.224   1.443   9.593 -0.3819  0.8824  1.0886
  145SAPE  C21015957   2.384   1.399   9.444 -0.0256  0.1806  0.1086
  145SAPE  H10R15958   2.491   1.428   9.450 -0.2748  1.2375 -0.4167
  145SAPE  H10S15959   2.339   1.469   9.370  2.4925  0.0478 -1.6189
  145SAPE  C21115960   2.382   1.264   9.375 -0.4637  0.0123 -0.1295
  145SAPE  H11R15961   2.351   1.179   9.438  0.4351 -0.7628 -0.7235
  145SAPE  C21215962   2.409   1.238   9.242 -0.8356  0.4053 -0.2838
  145SAPE  H12R15963   2.416   1.133   9.210  1.8760  0.2425  0.7104
  145SAPE  C21315964   2.445   1.338   9.138  0.5226 -0.0439 -0.3193
  145SAPE  H13R15965   2.476   1.433   9.188 -1.5986  0.7084 -0.3832
  145SAPE  H13S15966   2.360   1.352   9.069 -1.0406 -1.2680  1.3112
  145SAPE  C21415967   2.555   1.290   9.036  0.4580  0.2307 -0.2416
  145SAPE  H14R15968   2.555   1.182   9.018 -0.4537  0.5580 -2.3866
  145SAPE  C21515969   2.660   1.362   8.983 -0.1870  0.2140 -1.4357
  145SAPE  H15R15970   2.738   1.310   8.925  0.9985  0.1733  0.1460
  145SAPE  C21615971   2.681   1.511   9.003 -0.0298 -0.8497  0.0940
  145SAPE  H16R15972   2.656   1.545   9.106 -2.0722  1.1064 -0.9941
  145SAPE  H16S15973   2.622   1.561   8.923 -1.4043 -1.2586  0.8310
  145SAPE  C21715974   2.823   1.563   8.965 -0.1045 -0.5779 -0.2895
  145SAPE  H17R15975   2.907   1.513   9.017 -0.6595  0.8668  2.0606
  145SAPE  H17S15976   2.814   1.672   8.988 -1.2173 -0.1839 -2.4187
  145SAPE  C21815977   2.851   1.554   8.811  0.0035 -0.2040  0.6022
  145SAPE  H18R15978   2.765   1.607   8.764  0.7786  0.1669 -0.4260
  145SAPE  H18S15979   2.848   1.448   8.779 -0.3283 -0.6976  2.1923
  145SAPE  C21915980   2.977   1.629   8.766 -0.3241 -0.3286 -0.3921
  145SAPE  H19R15981   3.059   1.554   8.777  0.0696  0.3190  1.2224
  145SAPE  H19S15982   2.995   1.716   8.832  1.8693  1.0303 -2.6878
  145SAPE  C22015983   2.983   1.671   8.624  0.1769  0.5683  0.0217
  145SAPE  H20R15984   2.885   1.716   8.597  1.4587  2.9789 -0.7478
  145SAPE  H20S15985   2.994   1.587   8.551 -0.4774 -1.0310  1.7380
  145SAPE  H20T15986   3.061   1.738   8.582  0.8080  0.5767  1.1820
  145SAPE   C3315987   2.698   0.794   9.643  0.2989 -0.6596  0.1844
  145SAPE   H3X15988   2.614   0.730   9.676 -0.3168  1.7237  3.5098
  145SAPE   H3Y15989   2.789   0.732   9.631  2.0839  2.4312 -3.7583
  145SAPE   C3415990   2.675   0.878   9.512 -0.4174  0.6225 -0.4434
  145SAPE   H4X15991   2.762   0.942   9.486  1.0317 -0.8611  0.6547
  145SAPE   H4Y15992   2.593   0.949   9.537 -0.1466  0.5748  0.5967
  145SAPE   C3515993   2.645   0.778   9.402  0.3006  0.8634 -0.7541
  145SAPE   H5X15994   2.559   0.718   9.441 -0.4234  4.0594  2.9095
  145SAPE   H5Y15995   2.727   0.703   9.395 -0.9030 -0.4157 -1.5410
  145SAPE   C3615996   2.618   0.847   9.269 -0.0965 -0.8718 -0.2655
  145SAPE   H6X15997   2.714   0.890   9.234 -0.1506  0.3935  1.0836
  145SAPE   H6Y15998   2.532   0.915   9.284 -1.0265 -1.9448 -0.6389
  145SAPE   C3715999   2.578   0.745   9.167 -0.1495 -0.0623 -0.5249
  145SAPE   H7X16000   2.475   0.716   9.195 -0.4692 -0.0947 -1.7168
  145SAPE   H7Y16001   2.651   0.663   9.184 -1.0299 -0.4838  1.4005
  145SAPE   C3816002   2.585   0.810   9.032  0.1565  0.1632  0.0937
  145SAPE   H8X16003   2.685   0.859   9.030  0.6034 -0.6507  1.6072
  145SAPE   H8Y16004   2.504   0.883   9.010 -1.5830 -1.6711  0.3258
  145SAPE   C3916005   2.596   0.699   8.931  0.9980  0.0195  0.4086
  145SAPE   H9X16006   2.521   0.618   8.943 -1.3898  1.9516 -1.1088
  145SAPE   H9Y16007   2.693   0.647   8.943  0.5493 -0.3527  2.6188
  145SAPE  C31016008   2.587   0.732   8.780 -0.1539 -0.4998 -0.1741
  145SAPE  H10X16009   2.647   0.820   8.748  0.4988 -0.3605  1.3798
  145SAPE  H10Y16010   2.484   0.767   8.759 -1.4078 -1.4626  3.9212
  145SAPE  C31116011   2.622   0.607   8.695 -0.0226  0.1634 -0.2303
  145SAPE  H11X16012   2.568   0.517   8.730  0.6071  1.6038  4.7709
  145SAPE  H11Y16013   2.729   0.591   8.719 -0.2489 -2.7244 -0.9924
  145SAPE  C31216014   2.599   0.622   8.543  0.0250 -1.3855 -0.9710
  145SAPE  H12X16015   2.672   0.701   8.516 -1.0715  0.7747  2.1054
  145SAPE  H12Y16016   2.493   0.642   8.517  1.0631  1.5674 -3.1934
  145SAPE  C31316017   2.638   0.487   8.474  0.3809  0.3034  0.9548
  145SAPE  H13X16018   2.595   0.396   8.521  3.6351 -1.5128  0.5803
  145SAPE  H13Y16019   2.747   0.492   8.496  0.5345  2.6072 -0.1507
  145SAPE  C31416020   2.639   0.494   8.314  0.6852  0.2824  0.6785
  145SAPE  H14X16021   2.663   0.592   8.269 -1.3302  0.2756 -0.4790
  145SAPE  H14Y16022   2.537   0.463   8.281 -0.1623  2.8059  0.8769
  145SAPE  C31516023   2.730   0.380   8.262 -0.3988 -0.0633 -0.4840
  145SAPE  H15X16024   2.705   0.281   8.305 -1.6600 -1.0842 -3.4354
  145SAPE  H15Y16025   2.833   0.407   8.297  0.2324 -1.6733 -1.0494
  145SAPE  C31616026   2.725   0.367   8.100  0.0290 -0.7604  0.4096
  145SAPE  H16X16027   2.623   0.328   8.077 -0.5986  0.8516  0.3978
  145SAPE  H16Y16028   2.798   0.290   8.067  1.5274  0.6897  0.2824
  145SAPE  C31716029   2.764   0.489   8.007 -0.5281 -0.1638 -0.3563
  145SAPE  H17X16030   2.872   0.512   8.020 -0.7766  1.0118 -0.2975
  145SAPE  H17Y16031   2.708   0.581   8.036  2.4048  1.5492  0.0736
  145SAPE  C31816032   2.749   0.458   7.866  0.7128  0.3082  0.5187
  145SAPE  H18X16033   2.786   0.538   7.798  2.0158 -1.9241 -1.4568
  145SAPE  H18Y16034   2.645   0.424   7.845  0.7693  0.7753 -0.5703
  145SAPE  H18Z16035   2.804   0.364   7.843 -1.5158 -0.9050 -0.0434
  146SAPE     N16036   1.442   2.845  10.909  0.0843  0.0400  0.2045
  146SAPE   HN116037   1.443   2.741  10.903  1.9751 -0.1442  2.7205
  146SAPE   HN216038   1.520   2.871  10.973  1.9718 -1.8686 -1.2214
  146SAPE   HN316039   1.356   2.889  10.946 -1.9405 -1.4437 -2.6065
  146SAPE   C1216040   1.456   2.900  10.775 -0.1785 -0.6895  0.9289
  146SAPE  H12A16041   1.422   3.006  10.776 -0.6174 -0.8137  0.1722
  146SAPE  H12B16042   1.395   2.840  10.703 -3.2044  1.0860  1.9202
  146SAPE   C1116043   1.603   2.902  10.735  0.0660 -0.4848 -0.0115
  146SAPE  H11A16044   1.652   2.967  10.810 -0.5861 -1.3015  1.1310
  146SAPE  H11B16045   1.620   2.956  10.639 -1.8126 -0.2365 -0.2164
  146SAPE     P16046   1.662   2.683  10.609  0.3511  0.0468  0.3895
  146SAPE   O1316047   1.697   2.548  10.649 -0.5101  0.5173 -0.0722
  146SAPE   O1416048   1.529   2.689  10.546  0.0461  0.4101 -0.0202
  146SAPE   O1216049   1.654   2.771  10.736 -0.9449  0.5414  0.4051
  146SAPE   O1116050   1.772   2.740  10.515  0.1367  0.2504 -0.3100
  146SAPE    C116051   1.754   2.849  10.419 -0.6830  0.8307 -0.1317
  146SAPE    HA16052   1.656   2.901  10.432 -3.1216 -3.3697 -0.6795
  146SAPE    HB16053   1.845   2.912  10.430 -0.4373  0.3731  0.4678
  146SAPE    C216054   1.742   2.792  10.275  0.4349 -0.0764  0.3500
  146SAPE    HS16055   1.745   2.878  10.205  0.5822 -0.3182  0.0550
  146SAPE   O2116056   1.622   2.700  10.265 -0.3015 -0.0266  0.2335
  146SAPE   C2116057   1.512   2.768  10.250  0.8024 -0.2546  0.3445
  146SAPE   O2216058   1.504   2.893  10.248  0.1051  0.2007 -0.4861
  146SAPE   C2216059   1.392   2.677  10.236 -0.4421  0.1565  0.3999
  146SAPE   H2R16060   1.407   2.597  10.312  0.7916  0.8284  0.8960
  146SAPE   H2S16061   1.301   2.733  10.264  0.6328  1.7380  0.8175
  146SAPE    C316062   1.869   2.708  10.242 -0.3361  0.0930  0.3001
  146SAPE    HX16063   1.843   2.607  10.282 -1.4069  0.5727  0.8447
  146SAPE    HY16064   1.956   2.745  10.300  0.5488  0.1987 -1.0869
  146SAPE   O3116065   1.919   2.720  10.109  0.5094  0.0765  0.5853
  146SAPE   C3116066   1.866   2.628  10.027  1.0345 -0.3081 -0.6081
  146SAPE   O3216067   1.791   2.542  10.065  0.3085  0.1256 -0.1352
  146SAPE   C3216068   1.908   2.650   9.882 -0.1110 -0.7453 -0.4624
  146SAPE   H2X16069   1.975   2.565   9.857 -1.0216 -1.5156 -0.2847
  146SAPE   H2Y16070   1.958   2.745   9.852  1.1380 -1.7943 -1.7953
  146SAPE   C2316071   1.399   2.605  10.099  0.8136 -0.3209  0.3288
  146SAPE   H3R16072   1.326   2.521  10.107 -0.4545  0.8311  1.0340
  146SAPE   H3S16073   1.492   2.544  10.095  2.0466  1.6257 -2.4744
  146SAPE   C2416074   1.392   2.690   9.969  0.1092  0.1467 -0.6984
  146SAPE   H4R16075   1.472   2.765   9.988 -0.1126  0.8257 -2.3497
  146SAPE   H4S16076   1.291   2.738   9.970  0.1461  0.2264  0.7559
  146SAPE   C2516077   1.418   2.606   9.846  0.2144  0.3784 -0.2014
  146SAPE   H5R16078   1.511   2.547   9.850 -0.6132 -0.9222  0.1723
  146SAPE   C2616079   1.342   2.586   9.735 -0.1375 -1.0609 -0.8376
  146SAPE   H6R16080   1.382   2.520   9.656  1.6082 -0.9151 -0.0989
  146SAPE   C2716081   1.210   2.656   9.703  0.0422 -0.3444  0.1172
  146SAPE   H7R16082   1.180   2.711   9.795  2.0484  0.0219  0.5869
  146SAPE   H7S16083   1.138   2.576   9.677 -2.2332  0.4379  3.6217
  146SAPE   C2816084   1.236   2.759   9.590 -0.3428 -0.5432 -0.0484
  146SAPE   H8R16085   1.262   2.864   9.613  2.8653 -1.2554 -0.1872
  146SAPE   C2916086   1.237   2.729   9.460  0.2655  0.6406  0.2740
  146SAPE   H9R16087   1.261   2.812   9.391  1.7891  0.7093  0.8695
  146SAPE  C21016088   1.203   2.590   9.394 -0.0480  0.0270 -0.8894
  146SAPE  H10R16089   1.200   2.506   9.467 -0.3745 -1.0048 -2.0750
  146SAPE  H10S16090   1.286   2.569   9.324  0.6214 -0.2364 -0.0218
  146SAPE  C21116091   1.073   2.605   9.311  0.0143  0.7920  0.0916
  146SAPE  H11R16092   0.984   2.648   9.360  0.9046  1.5512  1.0791
  146SAPE  C21216093   1.057   2.574   9.179 -0.4830 -0.7918 -0.3653
  146SAPE  H12R16094   0.958   2.588   9.134 -1.1218 -0.4373  1.1335
  146SAPE  C21316095   1.152   2.517   9.084 -0.2769  0.0179 -0.1920
  146SAPE  H13R16096   1.220   2.444   9.134 -1.4488 -1.7638 -1.1442
  146SAPE  H13S16097   1.209   2.600   9.037  0.6521  0.1713  1.1889
  146SAPE  C21416098   1.072   2.450   8.974 -0.2258  0.0689 -0.3929
  146SAPE  H14R16099   1.056   2.341   8.984 -1.5356  0.2045 -0.9081
  146SAPE  C21516100   1.035   2.511   8.856 -0.0966 -0.0979  0.9068
  146SAPE  H15R16101   0.980   2.452   8.782 -0.2657  0.6984  0.3936
  146SAPE  C21616102   1.043   2.653   8.819 -0.0806 -0.4199 -0.2164
  146SAPE  H16R16103   1.070   2.716   8.907 -1.5652  1.0964 -0.8409
  146SAPE  H16S16104   0.941   2.684   8.788 -0.0069  0.6396  0.5730
  146SAPE  C21716105   1.164   2.682   8.719  0.5535  0.1514 -0.5333
  146SAPE  H17R16106   1.170   2.792   8.702 -2.0973  0.3961 -0.1111
  146SAPE  H17S16107   1.146   2.633   8.622  1.9831  1.0981 -1.3011
  146SAPE  C21816108   1.304   2.635   8.761  0.8475 -0.4262 -0.2010
  146SAPE  H18R16109   1.302   2.527   8.787 -1.7035 -0.3569  0.0522
  146SAPE  H18S16110   1.323   2.688   8.857 -1.7023  1.9545 -0.9479
  146SAPE  C21916111   1.405   2.679   8.658 -0.4797 -1.0582 -1.1397
  146SAPE  H19R16112   1.397   2.790   8.666  0.9557 -1.1132  1.9771
  146SAPE  H19S16113   1.377   2.643   8.557  1.4940 -2.0961 -1.3340
  146SAPE  C22016114   1.550   2.636   8.693  0.4970 -0.2834  0.3366
  146SAPE  H20R16115   1.617   2.682   8.618 -0.6299  0.1197 -0.4375
  146SAPE  H20S16116   1.565   2.526   8.684 -2.2090 -0.5889 -0.8767
  146SAPE  H20T16117   1.579   2.670   8.795  0.9912 -0.7366  0.3506
  146SAPE   C3316118   1.788   2.643   9.780  0.1727 -0.1903 -0.2311
  146SAPE   H3X16119   1.710   2.719   9.803  0.8293 -0.0923  1.7925
  146SAPE   H3Y16120   1.739   2.549   9.813  1.2322 -0.3913  0.8245
  146SAPE   C3416121   1.829   2.628   9.639 -0.1339 -0.2680  0.5213
  146SAPE   H4X16122   1.737   2.603   9.582 -0.9861  1.3072  1.1981
  146SAPE   H4Y16123   1.892   2.538   9.621 -0.4522 -0.3366 -0.2579
  146SAPE   C3516124   1.893   2.751   9.573  0.2972  0.2697 -0.1447
  146SAPE   H5X16125   1.992   2.777   9.617  2.8151 -1.0507 -4.6344
  146SAPE   H5Y16126   1.826   2.839   9.578 -0.4313 -0.3329  0.7783
  146SAPE   C3616127   1.917   2.718   9.424 -0.2237 -0.0996 -1.5746
  146SAPE   H6X16128   1.856   2.629   9.397 -2.8822  0.5001  2.0708
  146SAPE   H6Y16129   2.016   2.672   9.407  0.6554  0.8114  0.8903
  146SAPE   C3716130   1.915   2.843   9.322  0.8796  0.6059 -0.2681
  146SAPE   H7X16131   1.971   2.930   9.362  1.6905 -0.6841  1.4703
  146SAPE   H7Y16132   1.810   2.880   9.329  0.2961 -0.6595 -1.8844
  146SAPE   C3816133   1.967   2.815   9.180 -0.1977 -1.4460 -0.9367
  146SAPE   H8X16134   2.077   2.794   9.176  0.3348  1.1964 -0.7630
  146SAPE   H8Y16135   1.962   2.908   9.121 -0.2050 -1.8288 -1.5443
  146SAPE   C3916136   1.888   2.713   9.098 -0.0793 -0.1091 -0.2038
  146SAPE   H9X16137   1.779   2.729   9.113 -0.0990 -0.1107 -0.3488
  146SAPE   H9Y16138   1.905   2.612   9.142 -0.6943 -0.1735 -0.1021
  146SAPE  C31016139   1.923   2.693   8.949 -0.3297 -0.1977 -0.0550
  146SAPE  H10X16140   1.887   2.598   8.903 -0.7794 -0.3906  0.6918
  146SAPE  H10Y16141   2.033   2.676   8.947 -0.3410 -0.8552  2.8751
  146SAPE  C31116142   1.883   2.810   8.856  0.3643 -1.0531  0.5381
  146SAPE  H11X16143   1.890   2.909   8.906 -1.3777 -0.8308  0.4064
  146SAPE  H11Y16144   1.777   2.798   8.823  0.6763  0.0596 -0.9355
  146SAPE  C31216145   1.957   2.795   8.722 -0.9226  0.4104  0.1277
  146SAPE  H12X16146   1.955   2.687   8.699  1.0300 -0.4547  3.6726
  146SAPE  H12Y16147   2.064   2.808   8.750 -1.5961  0.9349  2.5372
  146SAPE  C31316148   1.914   2.887   8.608 -0.3829 -0.6923 -0.7144
  146SAPE  H13X16149   1.947   2.986   8.645 -2.3750 -0.7518  1.3661
  146SAPE  H13Y16150   1.806   2.885   8.582 -0.1816 -2.3386 -1.5025
  146SAPE  C31416151   1.995   2.847   8.487  0.0127 -0.3688  0.3080
  146SAPE  H14X16152   1.959   2.745   8.460 -0.4608 -0.1873  0.2568
  146SAPE  H14Y16153   2.102   2.837   8.515  0.3620  0.8412 -0.5272
  146SAPE  C31516154   2.002   2.938   8.360  0.2921  0.5323 -0.0477
  146SAPE  H15X16155   1.894   2.952   8.337 -0.9048  1.0566  5.2190
  146SAPE  H15Y16156   2.039   2.868   8.282  2.0572  0.1701  1.0954
  146SAPE  C31616157   2.069   3.075   8.379 -0.9451  0.1001  0.4042
  146SAPE  H16X16158   2.171   3.056   8.418 -0.8275 -0.3027 -0.0982
  146SAPE  H16Y16159   2.008   3.128   8.455  0.0331 -1.5433  2.3748
  146SAPE  C31716160   2.075   3.141   8.245 -0.4983 -0.1895 -0.0355
  146SAPE  H17X16161   1.974   3.162   8.203 -0.8906 -0.4276  0.7769
  146SAPE  H17Y16162   2.131   3.081   8.171  0.3640  0.9265 -0.3080
  146SAPE  C31816163   2.140   3.276   8.232  0.5465 -0.5754 -0.3213
  146SAPE  H18X16164   2.070   3.354   8.270  2.1622  0.3002  0.9189
  146SAPE  H18Y16165   2.160   3.308   8.128 -0.7887 -0.3515 -0.5234
  146SAPE  H18Z16166   2.237   3.281   8.286 -0.4742 -2.5424  1.7760
  147SAPE     N16167   3.630   5.545  10.632  0.3580  0.2077  0.2089
  147SAPE   HN116168   3.656   5.645  10.639  1.3964 -0.1023  0.8012
  147SAPE   HN216169   3.600   5.520  10.728 -0.3107 -0.2973 -0.1247
  147SAPE   HN316170   3.711   5.484  10.613  0.6258  0.2860  1.0866
  147SAPE   C1216171   3.521   5.517  10.531 -0.2982 -0.0897 -0.6255
  147SAPE  H12A16172   3.566   5.531  10.430 -1.3825  1.0512 -0.9654
  147SAPE  H12B16173   3.450   5.597  10.561  1.2579  0.5561  1.4543
  147SAPE   C1116174   3.453   5.373  10.544 -0.5435  0.4613 -0.5696
  147SAPE  H11A16175   3.509   5.300  10.482  2.1287  1.8703  0.1178
  147SAPE  H11B16176   3.351   5.373  10.498  0.1900  4.5203 -2.4996
  147SAPE     P16177   3.340   5.415  10.776  0.2693  0.0315 -0.2227
  147SAPE   O1316178   3.349   5.345  10.907 -0.9095 -0.3525  0.1133
  147SAPE   O1416179   3.366   5.557  10.783 -0.2469  0.2956 -0.0967
  147SAPE   O1216180   3.443   5.341  10.681  0.7762 -0.5902  0.1541
  147SAPE   O1116181   3.199   5.389  10.710  0.0225 -0.5554 -0.7577
  147SAPE    C116182   3.124   5.274  10.743 -0.0542 -0.7414  0.4166
  147SAPE    HA16183   3.128   5.259  10.853  0.9631 -1.1544  0.3280
  147SAPE    HB16184   3.018   5.294  10.716 -0.5799 -1.7072  1.7065
  147SAPE    C216185   3.165   5.148  10.658 -0.2222 -0.9513  0.4239
  147SAPE    HS16186   3.275   5.138  10.674  0.2507 -1.7856 -3.0314
  147SAPE   O2116187   3.133   5.185  10.519 -0.2472  0.7448  0.4536
  147SAPE   C2116188   3.207   5.119  10.433  0.1100  0.3559  0.0760
  147SAPE   O2216189   3.307   5.057  10.459  0.2249 -0.4472  0.1760
  147SAPE   C2216190   3.158   5.157  10.292 -0.3148  0.1413 -0.2189
  147SAPE   H2R16191   3.051   5.126  10.288 -0.0110 -0.9652 -0.0727
  147SAPE   H2S16192   3.158   5.267  10.301 -0.6698  0.1239  0.0323
  147SAPE    C316193   3.079   5.022  10.701  0.4680 -0.4263  0.4232
  147SAPE    HX16194   2.971   5.039  10.678  0.6624  0.6726  0.2821
  147SAPE    HY16195   3.092   5.009  10.811 -2.4412  2.0154  1.1377
  147SAPE   O3116196   3.133   4.909  10.627 -0.0442 -0.0135 -0.0215
  147SAPE   C3116197   3.056   4.802  10.628  0.0057 -0.6631 -0.0363
  147SAPE   O3216198   2.936   4.811  10.650 -0.3603  0.1955 -0.4187
  147SAPE   C3216199   3.131   4.687  10.584  0.1284  0.1926  0.7309
  147SAPE   H2X16200   3.138   4.619  10.672 -0.2652 -1.0069 -0.1542
  147SAPE   H2Y16201   3.230   4.722  10.547 -0.4119  1.9442  0.9073
  147SAPE   C2316202   3.254   5.113  10.178  0.8261 -0.1479 -0.3787
  147SAPE   H3R16203   3.283   5.011  10.210 -2.4681 -2.1237 -3.3925
  147SAPE   H3S16204   3.342   5.181  10.182  1.3682 -0.8895  0.6042
  147SAPE   C2416205   3.192   5.106  10.036 -0.4973 -0.7593 -0.2220
  147SAPE   H4R16206   3.107   5.034  10.033 -0.1454 -1.1692 -0.3704
  147SAPE   H4S16207   3.268   5.075   9.961  0.6206  0.2442  0.4798
  147SAPE   C2516208   3.132   5.231   9.974  0.4510  0.8070 -0.0373
  147SAPE   H5R16209   3.111   5.310  10.048  0.4989  0.6959  0.0960
  147SAPE   C2616210   3.090   5.242   9.844  0.3932 -0.2010 -0.2063
  147SAPE   H6R16211   3.038   5.336   9.819  0.6820 -0.0850 -0.3739
  147SAPE   C2716212   3.089   5.147   9.732  0.2187  0.0710 -0.8603
  147SAPE   H7R16213   2.993   5.165   9.679  0.4654  2.2795 -0.5973
  147SAPE   H7S16214   3.081   5.045   9.776 -3.2015  0.0514 -1.3790
  147SAPE   C2816215   3.213   5.139   9.654  0.8774  0.6222  0.1407
  147SAPE   H8R16216   3.300   5.105   9.712  0.5809 -1.1789 -0.4460
  147SAPE   C2916217   3.233   5.179   9.526 -0.5490 -0.3473  0.1204
  147SAPE   H9R16218   3.331   5.160   9.481 -0.0078  0.2253  1.0393
  147SAPE  C21016219   3.125   5.221   9.428  0.5954 -0.1862 -0.4056
  147SAPE  H10R16220   3.020   5.207   9.463  1.4829  0.9676  2.8440
  147SAPE  H10S16221   3.138   5.158   9.337  1.0309 -2.1289  0.9517
  147SAPE  C21116222   3.148   5.370   9.406 -0.1477 -0.1911  0.4068
  147SAPE  H11R16223   3.186   5.428   9.491  0.2105 -1.1733  0.9321
  147SAPE  C21216224   3.149   5.443   9.290 -0.1015 -0.1933 -0.0353
  147SAPE  H12R16225   3.172   5.550   9.298 -1.5532  0.2122 -1.0048
  147SAPE  C21316226   3.115   5.383   9.151  0.5096 -0.1590 -0.2810
  147SAPE  H13R16227   3.042   5.459   9.116  2.1886  2.2244  1.2747
  147SAPE  H13S16228   3.055   5.289   9.158 -0.7615  0.6242 -0.4500
  147SAPE  C21416229   3.241   5.364   9.064  0.3203 -0.1620  0.1777
  147SAPE  H14R16230   3.337   5.358   9.118  0.3260 -3.2810 -0.0565
  147SAPE  C21516231   3.247   5.351   8.930 -0.3565  0.0308 -0.4000
  147SAPE  H15R16232   3.339   5.333   8.873  0.2885 -0.7618  0.8692
  147SAPE  C21616233   3.126   5.354   8.846  0.3897  0.0010  0.0129
  147SAPE  H16R16234   3.034   5.352   8.908  0.2415  0.6874 -0.1866
  147SAPE  H16S16235   3.114   5.264   8.783  1.8630  0.0121 -0.2886
  147SAPE  C21716236   3.122   5.471   8.746 -0.5598 -0.3709  0.1829
  147SAPE  H17R16237   3.209   5.457   8.679 -0.3419 -0.8284  0.5578
  147SAPE  H17S16238   3.144   5.564   8.803  1.4524  0.4060 -1.7828
  147SAPE  C21816239   2.993   5.482   8.669 -0.0040  0.1223  0.1799
  147SAPE  H18R16240   2.901   5.456   8.727  1.1354 -0.8098  1.6275
  147SAPE  H18S16241   2.993   5.395   8.600 -0.4988 -0.8080  1.3081
  147SAPE  C21916242   2.969   5.617   8.603  0.1571 -0.1372  0.0906
  147SAPE  H19R16243   2.892   5.605   8.524  0.4636  2.0166 -0.5827
  147SAPE  H19S16244   3.060   5.661   8.557  0.3483  1.9848  2.3775
  147SAPE  C22016245   2.922   5.720   8.702  0.0606 -0.3962 -0.0663
  147SAPE  H20R16246   2.980   5.724   8.796 -1.2315  1.6114  0.6711
  147SAPE  H20S16247   2.817   5.703   8.735 -0.4413  0.7047 -1.0387
  147SAPE  H20T16248   2.937   5.824   8.665  1.5708 -0.6203 -0.1272
  147SAPE   C3316249   3.042   4.617  10.474 -0.4461  0.4955 -0.3877
  147SAPE   H3X16250   2.943   4.588  10.515  0.0137 -1.9018 -0.8683
  147SAPE   H3Y16251   3.084   4.515  10.455  0.2019  0.7875 -0.5217
  147SAPE   C3416252   3.028   4.690  10.337 -0.1100 -0.0399 -0.1291
  147SAPE   H4X16253   3.123   4.683  10.279 -0.9415  0.6357 -1.5827
  147SAPE   H4Y16254   3.010   4.799  10.349  3.8561  0.8789 -1.6723
  147SAPE   C3516255   2.942   4.619  10.230  0.3420 -0.0855  0.5218
  147SAPE   H5X16256   2.836   4.619  10.263 -0.1602 -1.7953 -1.0584
  147SAPE   H5Y16257   2.960   4.512  10.208  0.4027 -0.0651  0.4710
  147SAPE   C3616258   2.956   4.689  10.093 -0.3565 -0.2068 -1.0757
  147SAPE   H6X16259   3.050   4.653  10.047 -0.1675  2.0290 -2.5277
  147SAPE   H6Y16260   2.971   4.797  10.114  0.3380 -0.5373  0.1927
  147SAPE   C3716261   2.833   4.684   9.997 -0.0765  0.3641 -0.0253
  147SAPE   H7X16262   2.750   4.738  10.047 -1.5016 -1.4496 -0.3753
  147SAPE   H7Y16263   2.798   4.579   9.999 -0.9444  0.6166 -1.2863
  147SAPE   C3816264   2.851   4.734   9.855 -0.0759 -0.6720 -0.1434
  147SAPE   H8X16265   2.944   4.690   9.812 -0.5973 -0.5637 -1.4000
  147SAPE   H8Y16266   2.880   4.842   9.857  0.6573 -0.8732  0.4353
  147SAPE   C3916267   2.737   4.707   9.754  0.2850  0.3522 -0.2235
  147SAPE   H9X16268   2.638   4.741   9.793 -0.7172 -1.0340 -1.5086
  147SAPE   H9Y16269   2.724   4.597   9.739  0.1739  0.2457  0.6229
  147SAPE  C31016270   2.764   4.773   9.615 -0.1032  0.5115  0.1121
  147SAPE  H10X16271   2.797   4.877   9.639  3.5223 -0.6369  0.4350
  147SAPE  H10Y16272   2.679   4.766   9.545 -0.5900 -1.6535  0.8771
  147SAPE  C31116273   2.885   4.698   9.554 -0.0942  0.0102 -0.6202
  147SAPE  H11X16274   2.858   4.592   9.571  1.7268 -0.6536 -1.7024
  147SAPE  H11Y16275   2.976   4.727   9.610 -2.0921  0.5183  2.4553
  147SAPE  C31216276   2.909   4.710   9.400 -0.2064 -0.5402 -0.2642
  147SAPE  H12X16277   2.812   4.707   9.347 -1.8030  1.2057  2.4149
  147SAPE  H12Y16278   2.969   4.621   9.372 -0.8570 -1.0188 -0.1477
  147SAPE  C31316279   2.994   4.833   9.366  0.0253 -0.9667 -0.3873
  147SAPE  H13X16280   3.080   4.847   9.435 -0.2867 -1.3959  0.0913
  147SAPE  H13Y16281   2.919   4.914   9.377  0.9845  0.2281 -2.3057
  147SAPE  C31416282   3.036   4.835   9.219 -0.3272 -0.2028  0.3740
  147SAPE  H14X16283   3.115   4.761   9.196 -2.3889 -2.3736  0.0632
  147SAPE  H14Y16284   3.081   4.931   9.185 -0.5418 -0.4998 -0.7464
  147SAPE  C31516285   2.923   4.807   9.116  0.1828 -0.0798 -0.1484
  147SAPE  H15X16286   2.832   4.864   9.146  2.1220  1.7362  2.5914
  147SAPE  H15Y16287   2.892   4.704   9.142 -0.2226 -0.1019 -0.7228
  147SAPE  C31616288   2.971   4.817   8.971  0.7619  0.0669  0.0509
  147SAPE  H16X16289   3.057   4.749   8.953  1.3871  0.6337  0.8502
  147SAPE  H16Y16290   3.002   4.921   8.946 -1.0820  0.3332 -1.1520
  147SAPE  C31716291   2.867   4.794   8.864 -0.0881  0.3133  0.2769
  147SAPE  H17X16292   2.784   4.867   8.873 -0.2453 -0.0059  1.5208
  147SAPE  H17Y16293   2.823   4.694   8.886  0.6616 -0.1131 -0.1218
  147SAPE  C31816294   2.921   4.784   8.723  0.2835 -0.1048 -0.2770
  147SAPE  H18X16295   2.839   4.750   8.656  0.5052  1.7830 -1.5704
  147SAPE  H18Y16296   3.013   4.723   8.715  0.1492 -0.1632 -1.4750
  147SAPE  H18Z16297   2.941   4.888   8.689 -3.4580  0.4964 -0.8057
  148SAPE     N16298   3.852   0.620  10.511 -0.3511 -0.4559  0.8151
  148SAPE   HN116299   3.776   0.556  10.542  0.9453 -1.6462  1.5851
  148SAPE   HN216300   3.937   0.600  10.566  1.6833  2.2347 -1.2300
  148SAPE   HN316301   3.834   0.720  10.536  0.3268 -0.5551  1.7016
  148SAPE   C1216302   3.891   0.610  10.364 -0.2287 -0.6148 -0.0900
  148SAPE  H12A16303   3.809   0.660  10.309  1.1585  1.4063 -0.3661
  148SAPE  H12B16304   3.890   0.504  10.330  0.1869 -0.9445  0.8836
  148SAPE   C1116305   4.022   0.695  10.343 -0.3708 -0.1388  0.2598
  148SAPE  H11A16306   3.990   0.793  10.384  1.6066 -0.1637  1.9983
  148SAPE  H11B16307   4.044   0.697  10.235 -2.6731  0.6594 -0.2162
  148SAPE     P16308   4.265   0.712  10.446 -0.1017 -0.5907 -0.1290
  148SAPE   O1316309   4.287   0.824  10.349 -0.4009 -0.0276  0.3723
  148SAPE   O1416310   4.290   0.734  10.593  0.4788  0.4286 -0.4571
  148SAPE   O1216311   4.126   0.636  10.414 -0.1396  0.2391  0.3086
  148SAPE   O1116312   4.360   0.601  10.406 -0.0603 -0.1761  0.3619
  148SAPE    C116313   4.327   0.461  10.407  0.6204  0.5736 -0.0134
  148SAPE    HA16314   4.387   0.404  10.480  1.0886  0.4554 -0.4888
  148SAPE    HB16315   4.223   0.436  10.437  0.2439  1.2566 -0.7157
  148SAPE    C216316   4.342   0.393  10.265 -0.1881  0.4466 -0.2412
  148SAPE    HS16317   4.317   0.285  10.266 -1.5381  0.7137 -2.0314
  148SAPE   O2116318   4.474   0.412  10.207  0.0209  0.0577 -1.1046
  148SAPE   C2116319   4.572   0.358  10.284 -0.1410 -0.5023 -0.3778
  148SAPE   O2216320   4.551   0.280  10.373 -0.3983  0.7141 -0.6877
  148SAPE   C2216321   4.711   0.398  10.237 -0.1221 -0.7462 -0.0244
  148SAPE   H2R16322   4.697   0.488  10.174 -0.0890 -1.8443 -1.6376
  148SAPE   H2S16323   4.761   0.428  10.330  2.7675 -1.4871 -1.2907
  148SAPE    C316324   4.247   0.459  10.166  0.0766  0.4827 -0.0256
  148SAPE    HX16325   4.264   0.569  10.171 -0.8931  0.6313  0.1857
  148SAPE    HY16326   4.141   0.447  10.197  0.1698  0.5117  0.3033
  148SAPE   O3116327   4.263   0.410  10.029 -0.1373  0.0758  0.2306
  148SAPE   C3116328   4.342   0.475   9.949  0.3604 -0.1726 -0.2942
  148SAPE   O3216329   4.398   0.584   9.964  0.0295  0.4059  0.0184
  148SAPE   C3216330   4.362   0.387   9.821 -0.6034 -0.4714 -0.3008
  148SAPE   H2X16331   4.276   0.319   9.806 -2.9700  2.0767  1.2827
  148SAPE   H2Y16332   4.447   0.317   9.842 -0.8213 -0.7545 -0.3568
  148SAPE   C2316333   4.777   0.284  10.164 -0.4556 -0.6445 -0.0834
  148SAPE   H3R16334   4.770   0.196  10.232  0.5026  2.2636  4.0063
  148SAPE   H3S16335   4.884   0.315  10.162 -0.4211 -0.6802  0.8698
  148SAPE   C2416336   4.730   0.245  10.026 -0.9874  0.2606 -0.6625
  148SAPE   H4R16337   4.624   0.215  10.013 -0.9995 -0.3206  0.6666
  148SAPE   H4S16338   4.797   0.159  10.003 -1.1310  0.6032 -2.4483
  148SAPE   C2516339   4.766   0.353   9.934  0.2252  0.3818  0.0303
  148SAPE   H5R16340   4.727   0.455   9.944 -0.3798  0.2696 -1.1965
  148SAPE   C2616341   4.837   0.339   9.824 -0.2308  0.3906 -0.9333
  148SAPE   H6R16342   4.876   0.425   9.768  0.8011  1.1096  0.8706
  148SAPE   C2716343   4.906   0.210   9.777 -0.4763 -0.3182 -0.7046
  148SAPE   H7R16344   4.829   0.133   9.755 -1.7494  0.3709  1.1434
  148SAPE   H7S16345   4.966   0.164   9.858 -0.8227  1.6596  0.7123
  148SAPE   C2816346   5.006   0.227   9.667 -0.8261  0.2130 -0.3828
  148SAPE   H8R16347   5.110   0.232   9.703  0.6377  0.5063 -4.4483
  148SAPE   C2916348   4.983   0.225   9.541  0.2921  0.0196  0.1133
  148SAPE   H9R16349   5.073   0.239   9.478  0.6649 -0.0085  0.6396
  148SAPE  C21016350   4.849   0.220   9.465 -0.3437  0.4912 -0.3515
  148SAPE  H10R16351   4.769   0.188   9.535 -2.2237  2.4280 -1.5559
  148SAPE  H10S16352   4.856   0.126   9.405  2.1483  0.3755  0.0565
  148SAPE  C21116353   4.802   0.335   9.376  0.0235  0.0595 -0.4983
  148SAPE  H11R16354   4.764   0.428   9.422  1.2136  0.7314 -0.8256
  148SAPE  C21216355   4.819   0.335   9.242 -0.1092 -0.2604  0.2859
  148SAPE  H12R16356   4.795   0.427   9.187  1.9136 -0.4381 -0.9645
  148SAPE  C21316357   4.888   0.229   9.161  0.5641  0.5516  0.3460
  148SAPE  H13R16358   4.963   0.174   9.221  1.4587  1.0718 -0.2747
  148SAPE  H13S16359   4.953   0.272   9.082  1.6435  1.3297  1.6541
  148SAPE  C21416360   4.803   0.114   9.105 -0.4757 -0.2540 -0.5603
  148SAPE  H14R16361   4.734   0.065   9.175  0.8863  2.6814  2.9909
  148SAPE  C21516362   4.792   0.072   8.977 -0.3735  0.4021 -0.0099
  148SAPE  H15R16363   4.721  -0.008   8.954 -1.5117  0.7189  2.3018
  148SAPE  C21616364   4.867   0.139   8.869 -0.5381 -0.6530  0.2503
  148SAPE  H16R16365   4.850   0.083   8.775  2.8473  0.8756 -1.3469
  148SAPE  H16S16366   4.977   0.127   8.880 -0.3932  1.6606  1.7372
  148SAPE  C21716367   4.826   0.289   8.838 -0.3280  1.1360  0.2221
  148SAPE  H17R16368   4.798   0.341   8.932  0.8856  0.4359  0.9913
  148SAPE  H17S16369   4.736   0.280   8.775  1.4949 -3.5485 -1.9749
  148SAPE  C21816370   4.937   0.371   8.775 -0.2227  0.3271 -0.3834
  148SAPE  H18R16371   5.024   0.388   8.841  0.7596  0.1860 -1.6337
  148SAPE  H18S16372   4.892   0.472   8.761  1.4838  1.1514 -0.0156
  148SAPE  C21916373   4.975   0.308   8.644  0.4754  0.1586  0.2003
  148SAPE  H19R16374   4.885   0.277   8.587  1.4516 -0.6391 -0.9465
  148SAPE  H19S16375   5.043   0.221   8.660 -0.6524 -0.3183  2.4902
  148SAPE  C22016376   5.048   0.401   8.541 -0.3682  0.0492 -0.0647
  148SAPE  H20R16377   5.148   0.432   8.577 -0.1062 -2.1140  1.1532
  148SAPE  H20S16378   4.979   0.483   8.513 -0.2066  1.5330  3.6056
  148SAPE  H20T16379   5.069   0.348   8.446  0.8789  2.3306 -1.0932
  148SAPE   C3316380   4.400   0.460   9.689 -0.0880 -0.7257 -0.2709
  148SAPE   H3X16381   4.493   0.521   9.688 -0.1521 -0.5846 -3.1405
  148SAPE   H3Y16382   4.331   0.541   9.656  3.2673  2.1729 -0.4451
  148SAPE   C3416383   4.401   0.358   9.572  0.0626 -1.0997 -0.4711
  148SAPE   H4X16384   4.311   0.294   9.581 -0.8274  0.0395 -1.0491
  148SAPE   H4Y16385   4.490   0.294   9.588  2.6388  2.2190 -0.9611
  148SAPE   C3516386   4.394   0.417   9.428  0.0499 -0.1001  0.0981
  148SAPE   H5X16387   4.479   0.490   9.422  0.6595 -0.6829  1.4544
  148SAPE   H5Y16388   4.302   0.477   9.415  1.0916  1.0836 -2.0563
  148SAPE   C3616389   4.409   0.317   9.312  0.0163 -0.1311 -0.1608
  148SAPE   H6X16390   4.515   0.286   9.319 -0.2541 -0.9211  0.5856
  148SAPE   H6Y16391   4.396   0.362   9.211 -0.9407 -1.4195 -0.6301
  148SAPE   C3716392   4.310   0.207   9.310  0.0337 -0.1347  0.4002
  148SAPE   H7X16393   4.207   0.240   9.284  0.8200  0.2474 -2.4224
  148SAPE   H7Y16394   4.298   0.160   9.410 -0.3501 -2.0496 -0.5198
  148SAPE   C3816395   4.343   0.103   9.203  0.3085 -0.4373  0.6430
  148SAPE   H8X16396   4.290   0.007   9.224  0.8010 -0.4041  2.1500
  148SAPE   H8Y16397   4.453   0.088   9.213  0.1706 -0.2070  2.8234
  148SAPE   C3916398   4.289   0.149   9.068 -0.2933 -1.3037 -0.3825
  148SAPE   H9X16399   4.329   0.251   9.048 -0.1949 -0.8064  2.0670
  148SAPE   H9Y16400   4.181   0.166   9.087 -0.5149 -2.0455 -1.0167
  148SAPE  C31016401   4.311   0.060   8.948  0.1207  0.8131 -0.2537
  148SAPE  H10X16402   4.241  -0.025   8.965 -1.1163  1.5001 -1.7078
  148SAPE  H10Y16403   4.413   0.016   8.950  0.3063  1.2870  0.6933
  148SAPE  C31116404   4.269   0.138   8.822  0.3015  0.3151  0.5670
  148SAPE  H11X16405   4.323   0.234   8.805  0.8460  0.1022  1.0854
  148SAPE  H11Y16406   4.164   0.171   8.842  0.1124  0.0500  0.0034
  148SAPE  C31216407   4.273   0.048   8.699  0.0537 -0.5598  0.3175
  148SAPE  H12X16408   4.211   0.093   8.619  1.2838 -1.6569 -1.2946
  148SAPE  H12Y16409   4.233  -0.055   8.714  1.7850 -1.3863 -0.5925
  148SAPE  C31316410   4.418   0.046   8.641 -0.5638 -0.4030 -0.1367
  148SAPE  H13X16411   4.484  -0.015   8.707 -1.5590 -0.6900  0.6024
  148SAPE  H13Y16412   4.455   0.150   8.643  0.4058 -0.7058 -1.4856
  148SAPE  C31416413   4.425   0.001   8.497  0.1330 -0.7730 -0.3311
  148SAPE  H14X16414   4.358   0.048   8.421 -0.0585 -0.1859  0.1964
  148SAPE  H14Y16415   4.386  -0.103   8.496 -2.4407  0.1492 -0.2103
  148SAPE  C31516416   4.570   0.013   8.440  0.0305 -0.3770  0.4606
  148SAPE  H15X16417   4.610   0.103   8.491  1.5025 -0.4293 -0.5878
  148SAPE  H15Y16418   4.563   0.028   8.330 -0.5623 -2.3360  0.2151
  148SAPE  C31616419   4.651  -0.111   8.469 -0.4098 -0.1808 -0.5621
  148SAPE  H16X16420   4.596  -0.202   8.436 -0.8887 -0.0567 -0.1060
  148SAPE  H16Y16421   4.656  -0.120   8.580  0.4774  1.9892 -0.3994
  148SAPE  C31716422   4.791  -0.098   8.413 -0.8654 -0.3253 -0.2513
  148SAPE  H17X16423   4.830   0.003   8.439 -1.4646 -0.1559  0.0111
  148SAPE  H17Y16424   4.794  -0.106   8.302 -0.0345 -2.0223 -0.1195
  148SAPE  C31816425   4.886  -0.214   8.447 -0.4177  0.2391  0.3499
  148SAPE  H18X16426   4.907  -0.220   8.556  1.5473  2.0113  0.0944
  148SAPE  H18Y16427   4.986  -0.189   8.406 -0.6129  0.8691  0.2511
  148SAPE  H18Z16428   4.852  -0.313   8.412 -2.1985  0.7506  0.5791
  149SAPE     N16429   6.463   2.589  11.016  0.4826 -0.1002 -0.1143
  149SAPE   HN116430   6.544   2.630  11.068 -0.0528 -0.5223  1.0854
  149SAPE   HN216431   6.410   2.676  10.993  0.4879  0.3851  1.5973
  149SAPE   HN316432   6.391   2.550  11.081  1.2888  2.0345  2.1688
  149SAPE   C1216433   6.507   2.521  10.888  0.3773 -0.5194 -0.1431
  149SAPE  H12A16434   6.422   2.515  10.817  0.6751  3.8871 -1.0251
  149SAPE  H12B16435   6.538   2.421  10.926  2.9760  0.6069  0.8248
  149SAPE   C1116436   6.631   2.598  10.828 -0.2767 -0.1316 -0.0940
  149SAPE  H11A16437   6.585   2.689  10.785 -2.5900 -1.1435  0.1984
  149SAPE  H11B16438   6.663   2.550  10.733  1.7680 -0.8119  0.8876
  149SAPE     P16439   6.860   2.556  10.942 -0.3462 -0.0442  0.1249
  149SAPE   O1316440   6.980   2.635  10.909  0.3962 -0.0060  0.6302
  149SAPE   O1416441   6.860   2.475  11.067 -0.2597  0.1944  0.4306
  149SAPE   O1216442   6.730   2.639  10.924 -0.0406  0.5139  0.0205
  149SAPE   O1116443   6.846   2.452  10.824 -0.3920 -0.2721  0.1549
  149SAPE    C116444   6.954   2.430  10.726  0.9278  0.6982 -0.0213
  149SAPE    HA16445   7.051   2.458  10.773  1.6820 -0.5674 -0.7931
  149SAPE    HB16446   6.961   2.320  10.714 -0.3423  0.5402  0.6096
  149SAPE    C216447   6.918   2.492  10.593 -0.4459  0.2223  0.2455
  149SAPE    HS16448   6.886   2.596  10.616  1.6960  0.7845  0.8631
  149SAPE   O2116449   6.812   2.413  10.541 -0.3613  0.2245  0.4776
  149SAPE   C2116450   6.768   2.461  10.424  0.4978  0.2738 -0.3562
  149SAPE   O2216451   6.794   2.568  10.377 -0.0656  0.1711  0.3575
  149SAPE   C2216452   6.668   2.349  10.363  0.2726  0.1046  0.4991
  149SAPE   H2R16453   6.564   2.366  10.399  1.4120 -1.0985  4.6660
  149SAPE   H2S16454   6.681   2.350  10.253  0.3930  0.1024  0.5121
  149SAPE    C316455   7.055   2.493  10.511  0.4484  0.4569 -0.4336
  149SAPE    HX16456   7.130   2.559  10.560 -0.2952  1.2613 -0.3620
  149SAPE    HY16457   7.041   2.541  10.411  0.1691 -0.0758 -0.6560
  149SAPE   O3116458   7.118   2.363  10.503 -0.2530  0.8123  0.0281
  149SAPE   C3116459   7.066   2.288  10.409  0.2619  0.2251 -0.7458
  149SAPE   O3216460   7.000   2.334  10.313  0.0320  0.3485 -0.8154
  149SAPE   C3216461   7.103   2.137  10.420  0.1720  0.2356  0.9925
  149SAPE   H2X16462   7.045   2.103  10.509  0.1897 -1.1947  0.4635
  149SAPE   H2Y16463   7.213   2.130  10.436 -0.2171 -4.9949  2.4000
  149SAPE   C2316464   6.690   2.206  10.427 -0.4175 -0.5696  0.0706
  149SAPE   H3R16465   6.629   2.196  10.519 -0.7139 -1.6481 -0.2321
  149SAPE   H3S16466   6.796   2.182  10.450  0.3024  1.4629 -0.9797
  149SAPE   C2416467   6.658   2.099  10.326 -0.1517 -0.0407  0.2101
  149SAPE   H4R16468   6.723   2.009  10.328  0.4221  0.3726  0.1965
  149SAPE   H4S16469   6.675   2.147  10.227  2.6590  3.9416  2.5121
  149SAPE   C2516470   6.516   2.047  10.320 -0.3979 -0.2880  0.3728
  149SAPE   H5R16471   6.476   2.034  10.421 -0.8120  0.4799  0.3158
  149SAPE   C2616472   6.434   2.028  10.216  0.9219  0.3203  0.0359
  149SAPE   H6R16473   6.331   1.991  10.226  0.1255  2.0901 -1.2688
  149SAPE   C2716474   6.460   2.048  10.070 -0.3069  0.1852 -0.1650
  149SAPE   H7R16475   6.520   2.139  10.046 -1.7876  1.3564  0.5472
  149SAPE   H7S16476   6.361   2.061  10.021 -1.2306 -1.6607  1.1696
  149SAPE   C2816477   6.521   1.930  10.006  0.5547  0.1509 -0.2837
  149SAPE   H8R16478   6.499   1.832  10.052 -0.8936 -0.1236 -1.5003
  149SAPE   C2916479   6.607   1.935   9.904 -0.3257  0.4997  0.6526
  149SAPE   H9R16480   6.660   1.842   9.878 -2.4424 -0.2889 -1.0831
  149SAPE  C21016481   6.661   2.049   9.829 -0.3014 -0.0149  0.0218
  149SAPE  H10R16482   6.570   2.100   9.793  0.0906  0.1178 -0.7961
  149SAPE  H10S16483   6.712   2.003   9.741 -0.8319  2.2053 -1.4770
  149SAPE  C21116484   6.750   2.142   9.913  0.0865  0.2271  0.1383
  149SAPE  H11R16485   6.767   2.121  10.020  1.3899  1.4358  0.1790
  149SAPE  C21216486   6.831   2.242   9.864  0.0992 -0.6002  0.5359
  149SAPE  H12R16487   6.907   2.291   9.926  0.4758  0.0658 -0.4410
  149SAPE  C21316488   6.838   2.290   9.720  0.9472  0.0765  0.1194
  149SAPE  H13R16489   6.818   2.399   9.713  2.0428  0.3238  0.6449
  149SAPE  H13S16490   6.757   2.238   9.665  1.6807 -0.3101 -0.6109
  149SAPE  C21416491   6.966   2.260   9.649  0.0250 -0.2473 -0.5081
  149SAPE  H14R16492   7.043   2.201   9.701 -0.0466 -1.2395 -1.5202
  149SAPE  C21516493   6.987   2.274   9.512  0.8824  0.4299 -0.5140
  149SAPE  H15R16494   7.084   2.241   9.472  0.2133 -1.5129 -0.6073
  149SAPE  C21616495   6.884   2.331   9.413 -0.9582 -0.5360 -0.1917
  149SAPE  H16R16496   6.797   2.375   9.464 -1.0316  0.8073 -1.4181
  149SAPE  H16S16497   6.849   2.263   9.332 -1.8473 -0.6066  0.2588
  149SAPE  C21716498   6.964   2.442   9.333  0.4634  0.6069  0.0238
  149SAPE  H17R16499   6.879   2.508   9.302 -0.8725 -0.3806  1.5030
  149SAPE  H17S16500   7.011   2.400   9.242 -1.8378  0.9656 -1.3670
  149SAPE  C21816501   7.063   2.527   9.413  0.6453  0.1247  0.0242
  149SAPE  H18R16502   7.152   2.467   9.440  0.8664 -0.0507 -1.0649
  149SAPE  H18S16503   7.014   2.558   9.508 -0.2557 -1.5096  0.1139
  149SAPE  C21916504   7.101   2.653   9.337 -0.9034  0.0343  0.0331
  149SAPE  H19R16505   7.012   2.718   9.320 -0.0319  1.2103 -0.1193
  149SAPE  H19S16506   7.134   2.622   9.236 -1.0165  0.4373 -0.1280
  149SAPE  C22016507   7.197   2.747   9.407 -0.3535 -0.1200 -0.2420
  149SAPE  H20R16508   7.164   2.757   9.512 -1.3576 -0.8014 -0.4818
  149SAPE  H20S16509   7.190   2.851   9.366 -0.7231 -0.1213 -0.1873
  149SAPE  H20T16510   7.305   2.725   9.397  0.6635  4.0651  0.5237
  149SAPE   C3316511   7.059   2.057  10.298 -0.4305  0.0321  0.4786
  149SAPE   H3X16512   7.081   2.125  10.213  0.7278  0.0111  0.7650
  149SAPE   H3Y16513   6.948   2.054  10.291 -0.4371 -2.2857  1.2633
  149SAPE   C3416514   7.144   1.932  10.246 -0.0238  0.1878 -0.1966
  149SAPE   H4X16515   7.138   1.853  10.325  0.4742 -0.7121 -1.0531
  149SAPE   H4Y16516   7.252   1.957  10.257 -0.0536 -0.1695  1.1018
  149SAPE   C3516517   7.113   1.861  10.114  0.2036 -0.0002  0.3884
  149SAPE   H5X16518   7.171   1.767  10.104 -0.9845 -0.7634  0.6201
  149SAPE   H5Y16519   7.141   1.912  10.019 -1.6497  0.1667 -0.0795
  149SAPE   C3616520   6.967   1.813  10.096 -0.2987 -0.6966  0.1960
  149SAPE   H6X16521   6.901   1.902  10.083  1.4246  0.7428  1.1190
  149SAPE   H6Y16522   6.936   1.756  10.186  0.0256 -1.4448 -0.1584
  149SAPE   C3716523   6.944   1.731   9.960  0.3045 -1.3049  0.5595
  149SAPE   H7X16524   6.835   1.710   9.963 -0.6023  2.5575 -1.4481
  149SAPE   H7Y16525   7.003   1.637   9.954  0.0843 -1.5139  1.7304
  149SAPE   C3816526   6.966   1.811   9.835  0.0485  0.1211  0.5468
  149SAPE   H8X16527   7.070   1.849   9.824 -0.1776  0.0820 -2.1519
  149SAPE   H8Y16528   6.900   1.899   9.849 -0.0538  0.3815 -1.4068
  149SAPE   C3916529   6.917   1.748   9.704  0.0147  0.7528  0.2030
  149SAPE   H9X16530   6.809   1.728   9.719  0.2964 -0.4396  0.7730
  149SAPE   H9Y16531   6.970   1.654   9.676 -1.2233  0.0146  0.2647
  149SAPE  C31016532   6.937   1.847   9.582  0.2170 -0.2166 -0.8165
  149SAPE  H10X16533   7.045   1.866   9.561  0.8277  0.8410  2.8861
  149SAPE  H10Y16534   6.887   1.943   9.609  3.0898  1.3161 -0.6967
  149SAPE  C31116535   6.884   1.783   9.454  0.0946 -0.8374  0.1737
  149SAPE  H11X16536   6.776   1.755   9.458 -0.5541  1.2578 -1.5663
  149SAPE  H11Y16537   6.944   1.692   9.432  2.0199  0.5732 -0.5084
  149SAPE  C31216538   6.889   1.885   9.335  0.5802  0.0829  0.5614
  149SAPE  H12X16539   6.994   1.894   9.300 -0.1968  1.2368 -1.5424
  149SAPE  H12Y16540   6.857   1.983   9.376  0.2427  0.5320 -0.7641
  149SAPE  C31316541   6.815   1.834   9.204 -0.2677 -0.2178 -0.1879
  149SAPE  H13X16542   6.815   1.915   9.129 -0.2475 -0.3108 -0.2886
  149SAPE  H13Y16543   6.709   1.811   9.226 -1.2236  2.1151 -2.1909
  149SAPE  C31416544   6.890   1.711   9.147  0.0054  0.0695  0.2507
  149SAPE  H14X16545   6.908   1.644   9.234  1.1639  1.8318  1.4133
  149SAPE  H14Y16546   6.981   1.755   9.100 -1.3154  2.1579 -0.4274
  149SAPE  C31516547   6.813   1.645   9.038 -0.2800  0.9688 -0.6091
  149SAPE  H15X16548   6.795   1.718   8.957 -0.8411 -0.8231 -2.1373
  149SAPE  H15Y16549   6.719   1.608   9.084  0.4659 -0.1297  0.0635
  149SAPE  C31616550   6.882   1.524   8.967 -0.0569  0.1649  0.6925
  149SAPE  H16X16551   6.840   1.491   8.869  1.8501  2.4249 -0.9465
  149SAPE  H16Y16552   6.874   1.438   9.035 -1.1709 -0.6148 -0.4004
  149SAPE  C31716553   7.035   1.522   8.937  0.0358 -0.2526 -0.2100
  149SAPE  H17X16554   7.063   1.417   8.914  1.2126 -0.1221  0.5863
  149SAPE  H17Y16555   7.081   1.546   9.036  0.5063  0.2174 -0.5352
  149SAPE  C31816556   7.085   1.609   8.821 -0.3818 -0.1857  0.8696
  149SAPE  H18X16557   7.195   1.617   8.833 -0.3245  0.0521  0.2169
  149SAPE  H18Y16558   7.047   1.714   8.820  3.0662  1.1150 -0.2946
  149SAPE  H18Z16559   7.064   1.560   8.723  0.5540  0.4207  0.3622
  150SAPE     N16560   1.803   2.083  10.524 -0.0687  0.2562  0.0488
  150SAPE   HN116561   1.829   1.982  10.522 -1.3176 -0.0494 -1.2144
  150SAPE   HN216562   1.787   2.119  10.428 -1.4347  0.3786  0.3141
  150SAPE   HN316563   1.889   2.134  10.555  0.2437 -1.1935  1.6066
  150SAPE   C1216564   1.689   2.112  10.630 -0.5627 -0.4888 -0.2078
  150SAPE  H12A16565   1.591   2.110  10.578 -0.5800 -0.0167 -0.1963
  150SAPE  H12B16566   1.694   2.218  10.662 -1.3134 -0.5988  0.2873
  150SAPE   C1116567   1.684   2.024  10.758  0.5144 -0.2162  0.9365
  150SAPE  H11A16568   1.683   1.923  10.713 -0.2580 -0.5655  1.7153
  150SAPE  H11B16569   1.592   2.043  10.818 -0.7460 -0.6901 -0.8299
  150SAPE     P16570   1.923   1.941  10.834  0.2499 -0.1949 -0.1798
  150SAPE   O1316571   2.042   2.012  10.887  0.3134 -0.6201 -0.3227
  150SAPE   O1416572   1.879   1.825  10.907 -0.5696  0.3771  0.4692
  150SAPE   O1216573   1.803   2.046  10.835 -0.2741  0.0331 -0.2801
  150SAPE   O1116574   1.940   1.911  10.675  0.1201  0.6701 -0.6244
  150SAPE    C116575   2.070   1.870  10.643  0.2199 -0.2013  0.5563
  150SAPE    HA16576   2.145   1.929  10.700 -0.4560  0.2611  0.9672
  150SAPE    HB16577   2.087   1.763  10.664  0.8213 -0.3769 -0.7738
  150SAPE    C216578   2.108   1.894  10.488 -0.0195 -0.0466 -0.2189
  150SAPE    HS16579   2.051   1.983  10.453 -0.3985 -0.1911  0.0211
  150SAPE   O2116580   2.084   1.782  10.393 -0.2121 -0.5923  0.0517
  150SAPE   C2116581   1.960   1.776  10.359  0.2140 -0.4673 -0.1984
  150SAPE   O2216582   1.866   1.840  10.405 -0.1472 -0.4017  0.0493
  150SAPE   C2216583   1.955   1.665  10.265 -0.1436  0.2354  0.6354
  150SAPE   H2R16584   2.038   1.676  10.192  0.3371 -1.7940  0.8485
  150SAPE   H2S16585   1.979   1.582  10.335 -0.7353  1.4608  2.3124
  150SAPE    C316586   2.264   1.924  10.491  0.5447 -0.1385 -0.3029
  150SAPE    HX16587   2.315   1.864  10.569 -1.2586 -2.0238 -0.5407
  150SAPE    HY16588   2.285   2.024  10.534 -2.0136  0.1927  0.2288
  150SAPE   O3116589   2.327   1.894  10.363 -0.6236  0.4061  0.1365
  150SAPE   C3116590   2.462   1.879  10.374 -0.1285  0.8969  1.1277
  150SAPE   O3216591   2.525   1.874  10.477 -0.4295 -0.0921  0.2375
  150SAPE   C3216592   2.515   1.845  10.237 -0.4471  0.4428 -0.3937
  150SAPE   H2X16593   2.437   1.878  10.164 -1.2572  1.6629  0.9921
  150SAPE   H2Y16594   2.527   1.735  10.231  0.3154  0.4303  1.1487
  150SAPE   C2316595   1.813   1.638  10.209 -0.6686 -0.1513 -0.4225
  150SAPE   H3R16596   1.733   1.700  10.254  2.1349  2.9353  0.4620
  150SAPE   H3S16597   1.786   1.533  10.234  0.9820 -0.7349 -1.0275
  150SAPE   C2416598   1.807   1.643  10.051  0.1315  0.0665 -0.5811
  150SAPE   H4R16599   1.898   1.592  10.012 -0.3768 -1.3754  0.0972
  150SAPE   H4S16600   1.827   1.749  10.024 -0.9628  0.8536  1.5328
  150SAPE   C2516601   1.686   1.576   9.997  0.6561  0.0641  0.5913
  150SAPE   H5R16602   1.620   1.525  10.069  2.1545 -2.8848 -0.0420
  150SAPE   C2616603   1.637   1.596   9.879 -0.0397 -1.0650  0.2690
  150SAPE   H6R16604   1.540   1.551   9.855 -1.3525  1.2810  0.9309
  150SAPE   C2716605   1.705   1.673   9.765  0.3404  0.2870  0.7605
  150SAPE   H7R16606   1.806   1.712   9.788  0.8147 -0.7599  0.4408
  150SAPE   H7S16607   1.634   1.758   9.752 -3.0164 -1.9588  3.3683
  150SAPE   C2816608   1.710   1.583   9.642  0.4113  0.9618  0.0632
  150SAPE   H8R16609   1.720   1.476   9.668 -0.9593  0.5571 -0.9875
  150SAPE   C2916610   1.688   1.611   9.510  0.0185 -0.9567  0.1093
  150SAPE   H9R16611   1.702   1.527   9.441 -1.7723 -1.2031  0.0133
  150SAPE  C21016612   1.662   1.753   9.446 -0.0562  0.3100 -0.1332
  150SAPE  H10R16613   1.676   1.827   9.527 -0.9323  1.6747 -1.2082
  150SAPE  H10S16614   1.557   1.753   9.409  0.9490  1.0457 -3.1659
  150SAPE  C21116615   1.754   1.769   9.323  0.1230  0.2064  0.1196
  150SAPE  H11R16616   1.859   1.742   9.344  0.4938  0.8098 -0.9553
  150SAPE  C21216617   1.721   1.827   9.206 -0.5328 -0.3116  0.0570
  150SAPE  H12R16618   1.796   1.834   9.126 -0.4711 -2.3978 -0.0838
  150SAPE  C21316619   1.589   1.882   9.172 -0.1817 -0.3152  0.0512
  150SAPE  H13R16620   1.605   1.953   9.088 -1.0797 -1.5154 -1.1669
  150SAPE  H13S16621   1.550   1.938   9.260 -0.5853  1.2729 -1.1224
  150SAPE  C21416622   1.490   1.777   9.123  0.9100  0.0508 -0.1079
  150SAPE  H14R16623   1.493   1.681   9.178  0.3536 -0.2989 -0.6708
  150SAPE  C21516624   1.414   1.790   9.013 -0.2608 -0.3237  0.9607
  150SAPE  H15R16625   1.346   1.712   8.975 -1.5632  0.8907  0.7529
  150SAPE  C21616626   1.411   1.912   8.916 -0.5062  0.3067 -0.5035
  150SAPE  H16R16627   1.389   1.876   8.813 -0.3993 -1.3400  0.0257
  150SAPE  H16S16628   1.510   1.962   8.909 -0.4494  0.2546 -0.0655
  150SAPE  C21716629   1.306   2.024   8.946  0.1071 -0.1591 -0.0483
  150SAPE  H17R16630   1.322   2.113   8.881  0.0202  0.8614  1.3033
  150SAPE  H17S16631   1.334   2.063   9.046 -1.5872 -0.1956  0.4611
  150SAPE  C21816632   1.158   1.976   8.945 -0.8856  0.1952  0.3031
  150SAPE  H18R16633   1.090   2.055   8.985 -1.1810  0.0445  0.1002
  150SAPE  H18S16634   1.143   1.881   9.000 -0.2362 -1.4799 -2.3369
  150SAPE  C21916635   1.103   1.938   8.804  0.5768 -0.1219 -0.1549
  150SAPE  H19R16636   1.149   1.845   8.765 -0.5407 -0.6224 -0.2759
  150SAPE  H19S16637   1.130   2.035   8.757  1.6541 -0.0772  0.5350
  150SAPE  C22016638   0.953   1.918   8.799 -1.1086 -0.0571  0.3922
  150SAPE  H20R16639   0.925   1.860   8.709  0.7095  0.8278 -0.7557
  150SAPE  H20S16640   0.901   2.014   8.819  3.1120  2.6085 -0.9008
  150SAPE  H20T16641   0.929   1.841   8.876  0.4599 -0.2468  0.7150
  150SAPE   C3316642   2.646   1.906  10.201 -0.9186 -0.5059 -0.4000
  150SAPE   H3X16643   2.722   1.898  10.282 -1.1502  1.1597 -0.0114
  150SAPE   H3Y16644   2.622   2.012  10.181 -0.6197 -0.4802 -0.6206
  150SAPE   C3416645   2.717   1.856  10.079  0.1022  0.3343 -0.0252
  150SAPE   H4X16646   2.720   1.745  10.086 -1.4316 -0.0223 -3.9570
  150SAPE   H4Y16647   2.817   1.904  10.084 -1.1395  3.0438 -0.3477
  150SAPE   C3516648   2.641   1.880   9.949 -0.7497  0.3936 -0.0378
  150SAPE   H5X16649   2.637   1.990   9.935  2.0884  1.0204  3.2754
  150SAPE   H5Y16650   2.542   1.832   9.956 -0.8762  0.6612  0.0068
  150SAPE   C3616651   2.715   1.828   9.820  0.4879 -0.6418  0.4606
  150SAPE   H6X16652   2.726   1.718   9.831 -3.4829 -1.1466 -0.0335
  150SAPE   H6Y16653   2.816   1.876   9.813 -0.0661  0.5986  0.7387
  150SAPE   C3716654   2.624   1.843   9.694  0.2878 -0.5235  0.0066
  150SAPE   H7X16655   2.593   1.949   9.685  1.0334 -0.3453 -0.5499
  150SAPE   H7Y16656   2.528   1.788   9.704  0.3330 -0.6733 -0.3880
  150SAPE   C3816657   2.706   1.796   9.578 -0.6996  0.3363 -0.3444
  150SAPE   H8X16658   2.740   1.691   9.592  0.7802  0.6631 -1.3652
  150SAPE   H8Y16659   2.791   1.868   9.589 -1.0409  0.5444  1.1163
  150SAPE   C3916660   2.647   1.823   9.440 -0.5494 -0.0238  0.6875
  150SAPE   H9X16661   2.624   1.931   9.430 -0.1917 -0.0431 -0.4728
  150SAPE   H9Y16662   2.559   1.756   9.441 -1.8375  1.6679  2.2027
  150SAPE  C31016663   2.737   1.787   9.319 -0.2153 -0.1967  0.3972
  150SAPE  H10X16664   2.681   1.816   9.227 -0.8045 -2.9467 -0.1465
  150SAPE  H10Y16665   2.757   1.678   9.312  1.8519  0.2140 -0.3257
  150SAPE  C31116666   2.863   1.870   9.310  0.0334 -0.1518 -0.5206
  150SAPE  H11X16667   2.948   1.840   9.376  0.8465  0.3894 -1.3126
  150SAPE  H11Y16668   2.839   1.976   9.334 -1.3923 -0.6731  0.3648
  150SAPE  C31216669   2.917   1.862   9.167  0.3891 -0.5508 -0.2173
  150SAPE  H12X16670   2.842   1.894   9.091  0.8618 -0.3860 -0.6187
  150SAPE  H12Y16671   2.952   1.758   9.148 -0.4000 -0.8630 -0.0086
  150SAPE  C31316672   3.040   1.947   9.138 -0.0025 -0.1007 -0.2345
  150SAPE  H13X16673   3.121   1.951   9.214 -1.8161 -1.0580  1.7727
  150SAPE  H13Y16674   3.018   2.056   9.133 -1.5861 -0.3952  0.2269
  150SAPE  C31416675   3.094   1.905   8.998 -0.2585 -0.2720 -0.3341
  150SAPE  H14X16676   3.011   1.902   8.923  0.4034 -1.4084 -1.0375
  150SAPE  H14Y16677   3.123   1.799   9.017 -1.6346 -0.5458  0.2714
  150SAPE  C31516678   3.214   1.991   8.949 -0.1899  1.2537 -0.8691
  150SAPE  H15X16679   3.300   1.973   9.017  0.4527 -1.5420 -2.3610
  150SAPE  H15Y16680   3.171   2.092   8.965 -2.0590  0.2505  0.7147
  150SAPE  C31616681   3.255   1.962   8.802 -0.5026 -0.2118 -0.4922
  150SAPE  H16X16682   3.272   1.854   8.785 -0.7648 -0.7391  2.2718
  150SAPE  H16Y16683   3.347   2.024   8.796 -2.7205  3.5202  1.7878
  150SAPE  C31716684   3.156   2.018   8.697  0.1660  0.6188 -0.3919
  150SAPE  H17X16685   3.125   2.114   8.745  0.6393  0.2161  0.7311
  150SAPE  H17Y16686   3.065   1.955   8.698 -0.1833  1.1227  0.0727
  150SAPE  C31816687   3.220   2.052   8.565 -0.2897 -0.9131  0.3200
  150SAPE  H18X16688   3.165   2.134   8.513 -0.5483 -0.8367  0.7148
  150SAPE  H18Y16689   3.251   1.968   8.498  1.5055 -0.7818  0.9481
  150SAPE  H18Z16690   3.321   2.093   8.588  0.4393 -2.2159 -0.4975
  151SAPE     N16691   6.233   5.407  10.508  0.2275 -0.8048  0.2003
  151SAPE   HN116692   6.329   5.442  10.530  0.8922 -2.5515  0.1006
  151SAPE   HN216693   6.227   5.305  10.526  0.6239 -0.6040  1.5503
  151SAPE   HN316694   6.237   5.442  10.410  1.7606 -1.0825  0.1443
  151SAPE   C1216695   6.109   5.472  10.576 -0.0099 -0.1305 -0.0652
  151SAPE  H12A16696   6.113   5.466  10.687 -3.1551 -0.2803  0.0829
  151SAPE  H12B16697   6.022   5.421  10.530  0.4565  0.2549 -1.4130
  151SAPE   C1116698   6.089   5.619  10.548 -0.6821  0.0319 -0.1271
  151SAPE  H11A16699   6.004   5.671  10.597  0.3754  0.0244  1.7234
  151SAPE  H11B16700   6.056   5.626  10.442 -0.7811  0.4063 -0.0740
  151SAPE     P16701   6.212   5.842  10.604 -0.0551 -0.1543 -0.3669
  151SAPE   O1316702   6.127   5.859  10.726 -0.5983  0.3162  0.2878
  151SAPE   O1416703   6.351   5.890  10.626  0.5860  0.0798  0.1134
  151SAPE   O1216704   6.214   5.692  10.569 -0.1536 -0.1082  0.5500
  151SAPE   O1116705   6.134   5.917  10.488  0.5808 -0.2439  0.0876
  151SAPE    C116706   6.168   5.908  10.352  0.1983  0.0430  0.0840
  151SAPE    HA16707   6.215   6.005  10.323  0.4862  0.5716  2.2266
  151SAPE    HB16708   6.234   5.824  10.323  1.3867  1.3116 -0.9446
  151SAPE    C216709   6.032   5.887  10.274 -0.2190 -0.2432 -0.1164
  151SAPE    HS16710   5.961   5.930  10.348 -0.1960 -0.1355 -0.1567
  151SAPE   O2116711   6.018   5.750  10.249 -0.8054 -0.3399  0.7042
  151SAPE   C2116712   5.883   5.718  10.250  0.6270 -0.8593 -0.2129
  151SAPE   O2216713   5.798   5.801  10.288 -0.2331  0.1758  0.1960
  151SAPE   C2216714   5.870   5.576  10.197 -0.1131 -0.2005 -0.1565
  151SAPE   H2R16715   5.962   5.543  10.145 -0.0312  1.0628 -0.8256
  151SAPE   H2S16716   5.874   5.507  10.284 -1.1111  1.7864  1.5156
  151SAPE    C316717   6.038   5.963  10.136  0.1331  0.2828  0.3794
  151SAPE    HX16718   6.018   6.072  10.147  0.9317  0.4064  0.6203
  151SAPE    HY16719   5.946   5.921  10.089 -0.1707  2.0819 -0.7255
  151SAPE   O3116720   6.161   5.944  10.057  0.1050 -0.2513 -0.1667
  151SAPE   C3116721   6.166   5.849   9.974  0.5679 -0.1600  1.0644
  151SAPE   O3216722   6.076   5.766   9.947 -0.0460 -0.5801  0.1834
  151SAPE   C3216723   6.312   5.851   9.924 -0.7909  0.1292 -0.3053
  151SAPE   H2X16724   6.368   5.786   9.995 -0.9922  0.0155 -0.2493
  151SAPE   H2Y16725   6.355   5.953   9.930 -1.3490  0.3177  0.6774
  151SAPE   C2316726   5.755   5.537  10.102 -0.3157 -0.1154 -0.7312
  151SAPE   H3R16727   5.660   5.583  10.135  0.1490 -0.1634  0.7172
  151SAPE   H3S16728   5.741   5.428  10.113  1.6179 -0.2572  0.6891
  151SAPE   C2416729   5.784   5.560   9.953 -0.2293  0.6081  0.0142
  151SAPE   H4R16730   5.876   5.506   9.921 -0.2662  0.5908 -0.0616
  151SAPE   H4S16731   5.827   5.662   9.950  0.4768  0.2852 -0.9773
  151SAPE   C2516732   5.669   5.533   9.862 -0.0683  0.4949  0.0377
  151SAPE   H5R16733   5.586   5.605   9.855 -1.4211 -0.9994  0.3622
  151SAPE   C2616734   5.655   5.419   9.792  0.5999 -0.0658  0.2453
  151SAPE   H6R16735   5.565   5.407   9.729 -0.1690 -1.3520  1.5587
  151SAPE   C2716736   5.746   5.297   9.801  0.6561 -1.3271 -0.3669
  151SAPE   H7R16737   5.745   5.263   9.906  0.1664 -1.2918 -0.3582
  151SAPE   H7S16738   5.850   5.325   9.777  0.5607 -1.6289 -1.1427
  151SAPE   C2816739   5.713   5.181   9.718 -0.1032  0.1165 -0.3620
  151SAPE   H8R16740   5.674   5.094   9.772  3.6641 -0.0660  2.3129
  151SAPE   C2916741   5.707   5.185   9.584  0.3346 -0.6754  0.2482
  151SAPE   H9R16742   5.681   5.100   9.519  1.7475  1.5944 -3.4800
  151SAPE  C21016743   5.735   5.311   9.495 -1.5620 -0.5027 -0.5382
  151SAPE  H10R16744   5.718   5.405   9.551  3.7367  0.4606 -0.2492
  151SAPE  H10S16745   5.653   5.307   9.420 -2.2204 -3.2124  0.2868
  151SAPE  C21116746   5.872   5.324   9.438  0.4846 -0.5796 -0.3435
  151SAPE  H11R16747   5.951   5.290   9.506 -0.1208  0.6257  0.9838
  151SAPE  C21216748   5.895   5.363   9.313 -0.3365 -0.7525 -0.3285
  151SAPE  H12R16749   6.000   5.352   9.280  0.4237 -0.4795  1.9621
  151SAPE  C21316750   5.800   5.418   9.210  0.1124 -0.5537 -0.4416
  151SAPE  H13R16751   5.854   5.489   9.145  0.8252 -2.2564 -1.7464
  151SAPE  H13S16752   5.732   5.487   9.265  1.5731 -0.0760  0.8037
  151SAPE  C21416753   5.733   5.318   9.127  0.7358  0.0075 -0.0063
  151SAPE  H14R16754   5.667   5.246   9.177  1.3008  0.6739  1.7645
  151SAPE  C21516755   5.746   5.298   8.996  0.5917 -0.7004  0.1969
  151SAPE  H15R16756   5.695   5.218   8.940  0.0844  1.5139 -2.6770
  151SAPE  C21616757   5.833   5.375   8.899  0.6222  0.3599  0.4472
  151SAPE  H16R16758   5.938   5.340   8.902  0.0120 -1.5818  0.3493
  151SAPE  H16S16759   5.824   5.478   8.941  0.0936  0.5985 -0.2531
  151SAPE  C21716760   5.786   5.376   8.759 -0.1242 -0.6666  0.3958
  151SAPE  H17R16761   5.679   5.406   8.761  0.0098 -0.2962  3.4277
  151SAPE  H17S16762   5.790   5.271   8.721  0.5102 -0.7691  0.7393
  151SAPE  C21816763   5.868   5.476   8.669  0.0793  0.9182 -0.0812
  151SAPE  H18R16764   5.972   5.434   8.666 -1.9666 -4.6601  0.6146
  151SAPE  H18S16765   5.865   5.580   8.708  0.4107  0.6450  0.6764
  151SAPE  C21916766   5.823   5.474   8.522  0.0581  0.2996 -0.1777
  151SAPE  H19R16767   5.714   5.492   8.509 -0.0148 -0.1104 -0.1385
  151SAPE  H19S16768   5.824   5.379   8.466 -3.6157  0.1109 -0.0201
  151SAPE  C22016769   5.897   5.584   8.440  0.7137  0.0727 -0.4588
  151SAPE  H20R16770   6.004   5.578   8.469  0.1904 -0.6411  1.4234
  151SAPE  H20S16771   5.872   5.691   8.460  2.2292  0.2573  0.6294
  151SAPE  H20T16772   5.881   5.561   8.333 -1.2158  1.6235 -0.5238
  151SAPE   C3316773   6.318   5.795   9.777 -0.2133  0.0030 -0.4085
  151SAPE   H3X16774   6.270   5.695   9.771 -2.1483  1.0271 -2.5646
  151SAPE   H3Y16775   6.423   5.782   9.742  0.1381  2.1729 -0.2179
  151SAPE   C3416776   6.245   5.886   9.680 -0.3228  0.3827 -0.4951
  151SAPE   H4X16777   6.298   5.984   9.680  0.9106 -0.2766 -0.9857
  151SAPE   H4Y16778   6.140   5.897   9.715 -0.3232  3.1272 -1.2338
  151SAPE   C3516779   6.259   5.818   9.544 -0.5924 -0.3297  1.0657
  151SAPE   H5X16780   6.203   5.723   9.556  0.1877 -0.9321 -0.0085
  151SAPE   H5Y16781   6.363   5.795   9.514 -0.2360  0.4008  1.7149
  151SAPE   C3616782   6.204   5.918   9.438 -0.2472 -0.1005  0.4362
  151SAPE   H6X16783   6.277   6.002   9.436 -0.3703 -0.0137 -0.5946
  151SAPE   H6Y16784   6.104   5.961   9.460 -0.1955  0.6402 -0.7733
  151SAPE   C3716785   6.195   5.854   9.299  0.3483 -0.1484 -0.0940
  151SAPE   H7X16786   6.144   5.756   9.309 -1.8487  1.1265  1.4986
  151SAPE   H7Y16787   6.294   5.820   9.262  1.9118  0.8833  2.9976
  151SAPE   C3816788   6.142   5.950   9.199 -0.2393  0.7965  1.0110
  151SAPE   H8X16789   6.195   6.047   9.204  0.2996  0.6303 -0.9771
  151SAPE   H8Y16790   6.032   5.958   9.218 -0.8713  1.2851 -2.4724
  151SAPE   C3916791   6.164   5.888   9.061 -0.4520 -0.3033  0.0043
  151SAPE   H9X16792   6.123   5.786   9.050  2.3114 -1.4030 -0.4181
  151SAPE   H9Y16793   6.272   5.878   9.038 -0.3712  1.2866 -0.3530
  151SAPE  C31016794   6.108   5.981   8.955  0.4499  0.6634  0.2029
  151SAPE  H10X16795   6.148   6.085   8.955  1.0941  0.4202 -0.1857
  151SAPE  H10Y16796   5.999   5.983   8.976  0.2930  0.4758 -0.5900
  151SAPE  C31116797   6.125   5.927   8.806  0.3254 -0.2509  0.6086
  151SAPE  H11X16798   6.085   5.823   8.799  0.2472 -0.0508 -2.1737
  151SAPE  H11Y16799   6.231   5.932   8.775  0.3620  1.1926  0.9483
  151SAPE  C31216800   6.039   6.012   8.707 -0.7244 -0.9490  0.1072
  151SAPE  H12X16801   5.935   6.008   8.747 -0.9551 -1.1698 -0.5115
  151SAPE  H12Y16802   6.047   5.964   8.607  0.0045  0.6190 -0.6017
  151SAPE  C31316803   6.089   6.154   8.673  0.1001 -0.2126  0.2220
  151SAPE  H13X16804   6.099   6.207   8.769 -1.4060 -0.2877  0.4401
  151SAPE  H13Y16805   6.022   6.215   8.608 -1.5030  0.8439  2.7909
  151SAPE  C31416806   6.230   6.170   8.610  0.0253  0.3679  0.0046
  151SAPE  H14X16807   6.245   6.096   8.529 -1.4001  2.0623 -1.8753
  151SAPE  H14Y16808   6.303   6.152   8.691 -0.0420  1.1987  0.2608
  151SAPE  C31516809   6.260   6.315   8.558  0.0152 -0.5074 -0.2161
  151SAPE  H15X16810   6.370   6.316   8.541 -0.0316  0.4253 -0.4746
  151SAPE  H15Y16811   6.234   6.388   8.637  1.4277  0.5713 -0.7207
  151SAPE  C31616812   6.183   6.372   8.434  0.4372 -0.8843 -0.4119
  151SAPE  H16X16813   6.222   6.471   8.402  0.5334 -1.1782 -1.2167
  151SAPE  H16Y16814   6.077   6.391   8.460  0.6042 -0.1260 -0.2735
  151SAPE  C31716815   6.202   6.283   8.311 -0.1178 -0.1694 -0.8721
  151SAPE  H17X16816   6.149   6.186   8.321  1.0785 -0.9404 -1.8323
  151SAPE  H17Y16817   6.307   6.247   8.305 -0.1089 -0.0795 -1.2460
  151SAPE  C31816818   6.157   6.345   8.183 -0.8837 -0.1191 -0.5476
  151SAPE  H18X16819   6.203   6.435   8.136 -1.1149 -0.2514 -1.0372
  151SAPE  H18Y16820   6.050   6.366   8.199 -0.9490 -1.0564  0.2840
  151SAPE  H18Z16821   6.154   6.271   8.100 -0.3380  0.6869 -1.2938
  152SAPE     N16822   0.742   4.705  10.841 -0.3737  0.4201  0.5074
  152SAPE   HN116823   0.822   4.705  10.907 -0.0104 -0.0356  0.0674
  152SAPE   HN216824   0.656   4.688  10.897  0.2587  0.2904  1.4653
  152SAPE   HN316825   0.766   4.632  10.771 -1.7514  0.9802 -0.5755
  152SAPE   C1216826   0.735   4.844  10.790  0.0671  0.0947  1.5148
  152SAPE  H12A16827   0.835   4.874  10.754  0.3662 -2.2173  0.3385
  152SAPE  H12B16828   0.720   4.907  10.881 -3.2142 -2.2207  2.6800
  152SAPE   C1116829   0.628   4.853  10.686  0.0670 -0.1564  0.2570
  152SAPE  H11A16830   0.634   4.792  10.593 -0.5224  2.2973 -1.4234
  152SAPE  H11B16831   0.638   4.959  10.654 -1.3537 -0.6492 -1.9483
  152SAPE     P16832   0.403   4.740  10.708  0.3320  0.1025  0.1653
  152SAPE   O1316833   0.466   4.621  10.768  0.3668  0.1993  0.2705
  152SAPE   O1416834   0.266   4.769  10.748 -0.0048 -0.3834  0.4159
  152SAPE   O1216835   0.493   4.859  10.740  0.0078  0.3027 -0.5790
  152SAPE   O1116836   0.401   4.720  10.553 -0.8939 -0.3199 -0.2276
  152SAPE    C116837   0.430   4.594  10.492 -0.1693  0.5783 -0.9151
  152SAPE    HA16838   0.522   4.554  10.540  0.8657  2.0224 -1.6519
  152SAPE    HB16839   0.355   4.521  10.528 -0.3080  0.7433 -0.8695
  152SAPE    C216840   0.430   4.601  10.341 -0.1069  0.4019 -0.0965
  152SAPE    HS16841   0.524   4.652  10.311  0.5864 -1.4299 -1.1336
  152SAPE   O2116842   0.316   4.678  10.285  0.6161 -0.2801 -0.7831
  152SAPE   C2116843   0.327   4.749  10.176 -0.5634 -0.0070  0.5762
  152SAPE   O2216844   0.423   4.754  10.102 -0.0334  0.2519 -0.2598
  152SAPE   C2216845   0.184   4.799  10.135  0.3585  0.0455  0.4215
  152SAPE   H2R16846   0.168   4.782  10.026 -2.7091 -1.8043  1.0907
  152SAPE   H2S16847   0.119   4.730  10.194 -0.1595 -0.3734 -0.6089
  152SAPE    C316848   0.433   4.449  10.284  0.0430  0.6166 -0.4635
  152SAPE    HX16849   0.361   4.380  10.334  0.9527  0.5948  0.8300
  152SAPE    HY16850   0.535   4.424  10.321  0.6354  1.1805 -1.6774
  152SAPE   O3116851   0.438   4.438  10.138 -1.1722 -0.0154 -0.3397
  152SAPE   C3116852   0.557   4.453  10.077  0.4839 -0.3381 -0.4572
  152SAPE   O3216853   0.667   4.476  10.127  0.2552 -0.3213 -0.7302
  152SAPE   C3216854   0.546   4.421   9.928  0.6098  0.2118 -0.2258
  152SAPE   H2X16855   0.463   4.484   9.887  0.9089 -0.4712 -1.8979
  152SAPE   H2Y16856   0.511   4.317   9.909  0.8398 -0.1471  1.2384
  152SAPE   C2316857   0.164   4.952  10.147 -0.6066 -0.2974 -0.2314
  152SAPE   H3R16858   0.209   4.990  10.241 -0.6796 -1.2881  0.2110
  152SAPE   H3S16859   0.054   4.968  10.151 -0.2846  1.6756  1.8669
  152SAPE   C2416860   0.231   5.030  10.023 -0.5975 -0.7259  0.3937
  152SAPE   H4R16861   0.188   4.978   9.935  0.4948 -1.9470  0.5701
  152SAPE   H4S16862   0.340   5.012  10.028 -0.2203  1.2953 -0.1754
  152SAPE   C2516863   0.209   5.183  10.018  0.2803 -0.0010 -0.3924
  152SAPE   H5R16864   0.197   5.236  10.114  1.2214  0.1193 -0.3388
  152SAPE   C2616865   0.238   5.255   9.907 -1.0922  0.3344  1.2042
  152SAPE   H6R16866   0.222   5.363   9.913  1.7357  0.7342  2.6928
  152SAPE   C2716867   0.296   5.209   9.778  0.3051  0.5306  0.3293
  152SAPE   H7R16868   0.281   5.100   9.766  0.3090  0.6659 -1.0920
  152SAPE   H7S16869   0.404   5.223   9.800  0.6198 -1.8064  0.3761
  152SAPE   C2816870   0.249   5.299   9.670  0.8083 -0.1221 -0.2009
  152SAPE   H8R16871   0.196   5.388   9.707  2.2418 -0.2033  2.1106
  152SAPE   C2916872   0.266   5.285   9.536 -0.4442  0.6008  0.5647
  152SAPE   H9R16873   0.223   5.368   9.478  0.7577 -0.1910 -1.5345
  152SAPE  C21016874   0.329   5.166   9.461 -0.3362 -0.0351  0.3445
  152SAPE  H10R16875   0.347   5.084   9.534  0.4504 -0.6354 -0.5070
  152SAPE  H10S16876   0.435   5.195   9.448 -0.3132 -0.6694 -0.9590
  152SAPE  C21116877   0.262   5.132   9.334 -0.0193  0.5139  0.8775
  152SAPE  H11R16878   0.198   5.042   9.337  1.6483 -0.6683  1.4240
  152SAPE  C21216879   0.288   5.182   9.212  0.2894 -0.3110 -0.3553
  152SAPE  H12R16880   0.220   5.158   9.130  1.1920 -0.8002 -0.9705
  152SAPE  C21316881   0.382   5.295   9.183  0.3307  0.3149  0.5576
  152SAPE  H13R16882   0.449   5.315   9.269 -0.4879  1.5375  0.9222
  152SAPE  H13S16883   0.329   5.390   9.162  0.7540  0.4977  0.3096
  152SAPE  C21416884   0.469   5.248   9.064  0.8140  0.6816 -0.3827
  152SAPE  H14R16885   0.570   5.218   9.096  0.6224  1.6618  1.1821
  152SAPE  C21516886   0.436   5.236   8.935  0.2351 -0.5701 -0.1654
  152SAPE  H15R16887   0.519   5.211   8.866  1.1250 -1.1290  1.0925
  152SAPE  C21616888   0.305   5.273   8.869 -0.3319 -0.0780 -0.4461
  152SAPE  H16R16889   0.326   5.348   8.790 -1.2196  0.2196 -0.4016
  152SAPE  H16S16890   0.230   5.312   8.941  2.0941  2.8986  0.5836
  152SAPE  C21716891   0.237   5.151   8.809  0.2314 -0.1174  0.1395
  152SAPE  H17R16892   0.137   5.193   8.787 -0.8961 -1.4743  2.4168
  152SAPE  H17S16893   0.228   5.071   8.886  0.8181  0.1445  0.4857
  152SAPE  C21816894   0.282   5.090   8.676 -0.3864 -0.3516 -0.0216
  152SAPE  H18R16895   0.384   5.050   8.697  0.1650  0.5730 -0.8911
  152SAPE  H18S16896   0.299   5.162   8.593  0.2048 -1.6873 -1.0816
  152SAPE  C21916897   0.201   4.970   8.625 -0.1219 -0.4353 -0.5787
  152SAPE  H19R16898   0.106   5.005   8.581  0.8695  0.0588 -2.3914
  152SAPE  H19S16899   0.173   4.907   8.712 -0.2732 -0.6100 -0.7571
  152SAPE  C22016900   0.285   4.872   8.534  0.6178  0.4570  0.4131
  152SAPE  H20R16901   0.370   4.820   8.583  1.8344  1.9561 -0.0436
  152SAPE  H20S16902   0.331   4.932   8.452  0.2579 -1.1761 -0.9964
  152SAPE  H20T16903   0.228   4.800   8.472 -1.3159  3.1991 -1.1232
  152SAPE   C3316904   0.671   4.452   9.838  0.1909 -0.6587  0.3578
  152SAPE   H3X16905   0.740   4.365   9.831 -1.3464 -1.8843  0.0606
  152SAPE   H3Y16906   0.733   4.536   9.875 -0.7170  0.4834 -0.6811
  152SAPE   C3416907   0.626   4.489   9.701  0.3750 -0.1034 -0.3279
  152SAPE   H4X16908   0.707   4.549   9.656 -0.2822  0.8096 -0.2973
  152SAPE   H4Y16909   0.534   4.552   9.700 -0.2753 -1.0160  0.3199
  152SAPE   C3516910   0.588   4.363   9.613 -0.5767  0.1689 -0.3282
  152SAPE   H5X16911   0.529   4.292   9.675  0.0007  0.8167  0.9729
  152SAPE   H5Y16912   0.683   4.315   9.583  0.9613  2.8724  0.0677
  152SAPE   C3616913   0.516   4.410   9.478 -0.2744  0.3272 -0.3125
  152SAPE   H6X16914   0.582   4.480   9.423  0.6912 -2.1782 -2.4082
  152SAPE   H6Y16915   0.422   4.458   9.512  0.3655  1.8876 -0.6759
  152SAPE   C3716916   0.505   4.293   9.379 -0.4048  0.0832  0.2084
  152SAPE   H7X16917   0.445   4.224   9.443 -0.9659  0.4189  0.0388
  152SAPE   H7Y16918   0.603   4.240   9.370 -0.2120  0.6518 -1.1207
  152SAPE   C3816919   0.467   4.330   9.238  0.1209  0.6601  0.1514
  152SAPE   H8X16920   0.383   4.403   9.240  0.4858  1.0944 -0.2566
  152SAPE   H8Y16921   0.405   4.248   9.196  0.7484  0.7799 -1.0309
  152SAPE   C3916922   0.582   4.352   9.137 -0.7300  0.3938  0.0919
  152SAPE   H9X16923   0.620   4.254   9.101  1.5641  1.0891  0.5110
  152SAPE   H9Y16924   0.674   4.400   9.177 -0.6829 -0.0153  0.4725
  152SAPE  C31016925   0.553   4.448   9.023 -0.0714  0.6613 -0.3348
  152SAPE  H10X16926   0.643   4.468   8.962 -0.2874 -0.8735 -1.1583
  152SAPE  H10Y16927   0.521   4.545   9.067  0.4823  0.8637 -0.3816
  152SAPE  C31116928   0.452   4.388   8.919 -0.2606  0.3072  0.9549
  152SAPE  H11X16929   0.353   4.391   8.969 -0.0553 -2.7548  1.6241
  152SAPE  H11Y16930   0.477   4.285   8.887 -0.9756  0.3176  0.3576
  152SAPE  C31216931   0.434   4.473   8.785 -0.6305 -0.0767 -0.0662
  152SAPE  H12X16932   0.533   4.477   8.735 -0.8410 -0.9812 -0.5576
  152SAPE  H12Y16933   0.405   4.579   8.803 -1.2156  0.2326 -2.6124
  152SAPE  C31316934   0.329   4.420   8.680  0.0970 -0.6223 -0.4676
  152SAPE  H13X16935   0.279   4.492   8.612  0.5226  0.6661  0.5529
  152SAPE  H13Y16936   0.244   4.397   8.748  1.9053 -1.7985  1.4516
  152SAPE  C31416937   0.368   4.302   8.591  0.1259 -0.3928  0.1010
  152SAPE  H14X16938   0.409   4.217   8.651  3.4986  1.1457  0.0868
  152SAPE  H14Y16939   0.459   4.327   8.533 -0.0694 -0.4106 -0.2177
  152SAPE  C31516940   0.246   4.251   8.501 -0.5272  0.0097 -0.1706
  152SAPE  H15X16941   0.275   4.151   8.461 -1.8280  0.0852 -1.3539
  152SAPE  H15Y16942   0.224   4.315   8.413 -1.4109 -0.0348  0.0159
  152SAPE  C31616943   0.117   4.228   8.583  0.0872  0.1379 -0.1798
  152SAPE  H16X16944   0.078   4.315   8.639 -1.1980 -2.2525  2.8035
  152SAPE  H16Y16945   0.143   4.157   8.664  0.0581 -0.8578 -1.0202
  152SAPE  C31716946  -0.001   4.177   8.510 -0.3615 -0.2642  0.0486
  152SAPE  H17X16947   0.020   4.187   8.401 -1.1281 -2.1854 -0.3019
  152SAPE  H17Y16948  -0.094   4.232   8.535 -0.8905 -0.0511 -2.2419
  152SAPE  C31816949  -0.037   4.036   8.537 -0.0379 -0.1188 -0.1396
  152SAPE  H18X16950  -0.066   4.025   8.644 -0.2920  0.0844 -0.1870
  152SAPE  H18Y16951   0.039   3.963   8.504  1.7924  0.5734  2.3784
  152SAPE  H18Z16952  -0.133   4.020   8.484  0.9526 -0.1864 -1.9531
  153SAPE     N16953   0.481   6.707  11.111  0.4773  0.7937 -0.2422
  153SAPE   HN116954   0.481   6.803  11.070 -0.9531  1.0637  0.3514
  153SAPE   HN216955   0.394   6.704  11.168  1.5368 -0.2110  1.3741
  153SAPE   HN316956   0.561   6.702  11.178 -0.6230 -0.5226  0.9892
  153SAPE   C1216957   0.491   6.614  10.996  0.2022 -0.2704  0.0875
  153SAPE  H12A16958   0.391   6.594  10.952  0.8084  1.4741 -2.1691
  153SAPE  H12B16959   0.532   6.516  11.028  0.4205 -0.1065  0.3139
  153SAPE   C1116960   0.578   6.670  10.880  0.2028  0.1538 -0.2001
  153SAPE  H11A16961   0.591   6.589  10.804  0.2276 -1.6823  1.7172
  153SAPE  H11B16962   0.676   6.684  10.930  0.0014 -0.6404  0.4326
  153SAPE     P16963   0.590   6.875  10.723  0.2580 -0.0784  0.2897
  153SAPE   O1316964   0.510   6.998  10.708 -0.4361  0.5428  0.6990
  153SAPE   O1416965   0.730   6.896  10.757 -0.1427 -0.0767  0.5560
  153SAPE   O1216966   0.515   6.786  10.833  0.1622 -0.2814 -0.3257
  153SAPE   O1116967   0.594   6.783  10.594  0.0047  0.6433  0.3999
  153SAPE    C116968   0.475   6.708  10.552  0.7795  0.0851  0.0999
  153SAPE    HA16969   0.465   6.610  10.604  2.0477  0.8970  1.9138
  153SAPE    HB16970   0.383   6.769  10.565  0.6278  0.1264 -1.1200
  153SAPE    C216971   0.480   6.661  10.401 -0.5405 -0.4750 -0.4456
  153SAPE    HS16972   0.557   6.581  10.389 -0.1168 -0.3768  1.5527
  153SAPE   O2116973   0.490   6.771  10.314 -0.1647  0.5815  0.2214
  153SAPE   C2116974   0.618   6.813  10.290 -0.3647  0.0055  0.3086
  153SAPE   O2216975   0.715   6.749  10.321 -0.0129 -0.7544 -0.0467
  153SAPE   C2216976   0.616   6.953  10.229  0.1575  0.3258 -0.1008
  153SAPE   H2R16977   0.536   6.959  10.153  1.2543 -1.2346 -1.4046
  153SAPE   H2S16978   0.596   7.035  10.302  1.1110 -1.0585  1.7784
  153SAPE    C316979   0.347   6.585  10.357  0.0564  0.3682  0.1053
  153SAPE    HX16980   0.265   6.653  10.388  1.2715  2.1851 -0.5939
  153SAPE    HY16981   0.334   6.490  10.413  1.6177  0.4227  0.5756
  153SAPE   O3116982   0.354   6.558  10.215  0.0702 -0.3216 -0.0769
  153SAPE   C3116983   0.280   6.636  10.135  0.9944 -0.4539 -0.0744
  153SAPE   O3216984   0.202   6.723  10.167  0.6064 -0.2403 -0.2372
  153SAPE   C3216985   0.309   6.597   9.990 -0.0081 -0.2942  0.2371
  153SAPE   H2X16986   0.294   6.487   9.981  0.0115 -0.0694 -3.6363
  153SAPE   H2Y16987   0.414   6.630   9.980  0.8915 -2.5535  1.7622
  153SAPE   C2316988   0.750   6.979  10.155  0.3736  0.3481  1.0788
  153SAPE   H3R16989   0.734   6.981  10.045  0.5557  2.2226  1.0812
  153SAPE   H3S16990   0.823   6.898  10.175  0.2472  0.0921  0.5224
  153SAPE   C2416991   0.811   7.116  10.195  0.5382  0.5049 -0.2625
  153SAPE   H4R16992   0.850   7.111  10.299 -1.7112 -0.3145  0.5708
  153SAPE   H4S16993   0.736   7.198  10.201  2.4245  2.2900 -0.4759
  153SAPE   C2516994   0.933   7.152  10.118  0.0001  0.7334  0.2669
  153SAPE   H5R16995   1.024   7.154  10.179  0.4994  0.4957 -0.4635
  153SAPE   C2616996   0.941   7.165   9.982 -0.3851 -0.6475  0.7541
  153SAPE   H6R16997   1.040   7.187   9.939  0.0777  0.1909  2.2048
  153SAPE   C2716998   0.828   7.167   9.884  0.2213 -0.5323 -0.1408
  153SAPE   H7R16999   0.774   7.264   9.893 -0.2942 -0.6484 -1.8498
  153SAPE   H7S17000   0.754   7.084   9.875 -2.1616  1.7070 -2.0602
  153SAPE   C2817001   0.887   7.175   9.740 -0.4587 -0.0934  0.3241
  153SAPE   H8R17002   0.904   7.278   9.706 -0.2257  0.1564  1.1749
  153SAPE   C2917003   0.928   7.076   9.660  0.3597  0.1856 -0.2342
  153SAPE   H9R17004   0.972   7.103   9.563 -1.5776 -2.0619 -1.8149
  153SAPE  C21017005   0.917   6.932   9.696 -0.3108  0.4591  0.8025
  153SAPE  H10R17006   0.821   6.889   9.662  1.2090 -1.3918 -1.3178
  153SAPE  H10S17007   0.930   6.937   9.807  0.8609  4.0191  0.5948
  153SAPE  C21117008   1.030   6.850   9.639  0.3403 -0.7825 -0.4567
  153SAPE  H11R17009   1.107   6.835   9.716  0.7591  0.9724 -0.5230
  153SAPE  C21217010   1.045   6.795   9.515  0.2482 -0.6311  0.2592
  153SAPE  H12R17011   1.131   6.728   9.504  1.5859  0.9862  0.5907
  153SAPE  C21317012   0.941   6.800   9.407  0.0801 -0.9077  0.1602
  153SAPE  H13R17013   0.921   6.907   9.386  0.4469 -0.7881  0.4217
  153SAPE  H13S17014   0.839   6.762   9.430 -1.7410  3.6722  0.2899
  153SAPE  C21417015   0.983   6.747   9.270  0.7998  0.2141 -0.0442
  153SAPE  H14R17016   1.071   6.680   9.277  2.4739  2.3058 -0.5415
  153SAPE  C21517017   0.933   6.771   9.150  0.4135 -0.1360  0.3072
  153SAPE  H15R17018   0.969   6.707   9.067 -0.2437 -0.8505  0.5651
  153SAPE  C21617019   0.817   6.850   9.115 -0.0471  0.8654 -0.0834
  153SAPE  H16R17020   0.775   6.911   9.198 -0.5821 -0.5759  0.7250
  153SAPE  H16S17021   0.729   6.797   9.073 -0.3318  0.4111  1.0734
  153SAPE  C21717022   0.855   6.956   9.005 -0.4360 -0.6576  0.0504
  153SAPE  H17R17023   0.943   7.013   9.040 -0.4489 -1.3298  1.1902
  153SAPE  H17S17024   0.769   7.021   8.980  0.6329  0.4326 -0.8740
  153SAPE  C21817025   0.897   6.891   8.871 -0.7042 -0.4494  0.1142
  153SAPE  H18R17026   0.806   6.842   8.830 -1.7127  0.2110  1.4989
  153SAPE  H18S17027   0.971   6.809   8.886 -0.6949  0.1060  3.6587
  153SAPE  C21917028   0.948   6.994   8.769  0.2056  1.1717 -0.3174
  153SAPE  H19R17029   0.986   6.944   8.677  0.0020 -0.1268  0.2871
  153SAPE  H19S17030   1.034   7.045   8.816  1.1744  1.2050 -2.0831
  153SAPE  C22017031   0.839   7.100   8.736 -0.4526 -0.6453  0.8029
  153SAPE  H20R17032   0.877   7.174   8.662  0.4661 -0.9523  0.9632
  153SAPE  H20S17033   0.830   7.160   8.830  2.0530  1.6336 -0.3554
  153SAPE  H20T17034   0.744   7.048   8.713 -1.3704  0.9349  0.9125
  153SAPE   C3317035   0.239   6.680   9.876  0.6926  0.1660  0.5364
  153SAPE   H3X17036   0.239   6.789   9.900  2.9678  0.0203  1.3624
  153SAPE   H3Y17037   0.133   6.653   9.863  0.3185  1.6430  0.3544
  153SAPE   C3417038   0.315   6.664   9.743  0.0249  0.3083  0.8328
  153SAPE   H4X17039   0.247   6.710   9.669  0.9149 -2.0652 -1.5235
  153SAPE   H4Y17040   0.329   6.557   9.717 -0.3658  0.8189 -1.5325
  153SAPE   C3517041   0.448   6.740   9.732  0.6013 -0.3587  0.9354
  153SAPE   H5X17042   0.525   6.701   9.803  1.7155  0.6828  0.3336
  153SAPE   H5Y17043   0.433   6.849   9.748  0.3932  0.0305 -1.7458
  153SAPE   C3617044   0.511   6.722   9.590  0.4617  0.0420  0.1272
  153SAPE   H6X17045   0.484   6.620   9.555 -1.2913 -0.1139  1.8481
  153SAPE   H6Y17046   0.620   6.730   9.572  0.6381 -0.1027  1.1135
  153SAPE   C3717047   0.454   6.827   9.495 -0.1943  0.2736 -0.3296
  153SAPE   H7X17048   0.526   6.911   9.496 -0.4140  0.4594  0.1381
  153SAPE   H7Y17049   0.357   6.871   9.528  0.4925  1.0943  0.6170
  153SAPE   C3817050   0.448   6.788   9.347  0.1808 -0.2881 -0.5607
  153SAPE   H8X17051   0.366   6.714   9.335  0.4689 -0.5899 -0.6755
  153SAPE   H8Y17052   0.546   6.744   9.316  0.0753 -0.0384 -1.2676
  153SAPE   C3917053   0.407   6.900   9.255  0.3407  0.5161 -0.1686
  153SAPE   H9X17054   0.485   6.978   9.263  0.3875  0.3770  0.8831
  153SAPE   H9Y17055   0.315   6.949   9.294 -1.2720 -0.0307 -3.1406
  153SAPE  C31017056   0.401   6.872   9.105 -1.5905 -0.3914  1.1545
  153SAPE  H10X17057   0.326   6.791   9.097 -0.4039 -1.4455  0.3954
  153SAPE  H10Y17058   0.503   6.832   9.084 -0.9391  0.9831  1.6615
  153SAPE  C31117059   0.392   6.990   9.013 -0.6844  0.1959 -0.0474
  153SAPE  H11X17060   0.464   7.066   9.048  0.3821 -1.1829  0.8251
  153SAPE  H11Y17061   0.298   7.046   9.033  0.2591  3.3418 -3.9361
  153SAPE  C31217062   0.413   6.965   8.865  0.1742  0.8269  0.2830
  153SAPE  H12X17063   0.327   6.904   8.833  1.5409 -1.4129  0.7500
  153SAPE  H12Y17064   0.500   6.897   8.852 -1.2983 -1.3807  1.6208
  153SAPE  C31317065   0.432   7.092   8.772  0.5588  0.5520 -0.0295
  153SAPE  H13X17066   0.526   7.145   8.800  0.6674  1.2725 -1.6990
  153SAPE  H13Y17067   0.335   7.145   8.775  0.0818 -0.3144  0.0096
  153SAPE  C31417068   0.461   7.056   8.628 -0.5710 -0.0725 -0.1046
  153SAPE  H14X17069   0.391   6.978   8.589 -1.1060 -0.1026  0.9132
  153SAPE  H14Y17070   0.556   6.999   8.618  0.1988  1.5216 -2.2088
  153SAPE  C31517071   0.440   7.171   8.531 -0.1448 -1.4154 -0.0844
  153SAPE  H15X17072   0.504   7.157   8.441  0.2105  4.0476 -0.8495
  153SAPE  H15Y17073   0.488   7.255   8.586 -2.8769 -1.4753  2.5546
  153SAPE  C31617074   0.292   7.216   8.502  0.1024  0.2277 -0.6475
  153SAPE  H16X17075   0.300   7.293   8.422 -2.1631  0.1890 -0.9356
  153SAPE  H16Y17076   0.239   7.254   8.592  0.0729 -0.7318 -0.2553
  153SAPE  C31717077   0.201   7.109   8.439 -0.3306 -0.7195 -1.2136
  153SAPE  H17X17078   0.263   7.040   8.378 -2.1951 -2.9918 -0.6541
  153SAPE  H17Y17079   0.126   7.172   8.386 -0.5561  0.5642  0.5687
  153SAPE  C31817080   0.129   7.030   8.548 -0.4044  0.0038  0.3591
  153SAPE  H18X17081   0.082   7.098   8.622  2.8660  1.8762  0.8108
  153SAPE  H18Y17082   0.181   6.950   8.604 -0.9289 -0.8339 -0.3394
  153SAPE  H18Z17083   0.044   6.977   8.499 -1.9273  0.8153  2.0746
  154SAPE     N17084   1.414   6.098  10.639 -0.9373 -0.2783 -0.0418
  154SAPE   HN117085   1.505   6.075  10.593 -0.3539 -1.3158  1.5477
  154SAPE   HN217086   1.334   6.076  10.576  0.3744 -1.3262 -1.3699
  154SAPE   HN317087   1.404   6.199  10.658 -3.1782 -0.1653 -1.5786
  154SAPE   C1217088   1.409   6.026  10.774  0.0253  0.2555  0.2336
  154SAPE  H12A17089   1.320   6.063  10.829  0.2511  0.7272  0.2848
  154SAPE  H12B17090   1.502   6.040  10.834 -0.7940  2.5691  1.0555
  154SAPE   C1117091   1.406   5.875  10.766  0.3275 -0.7089  0.1898
  154SAPE  H11A17092   1.410   5.829  10.867  3.4071 -0.1480  0.3939
  154SAPE  H11B17093   1.496   5.831  10.718  0.4916 -1.4372  1.1639
  154SAPE     P17094   1.154   5.812  10.766 -0.0423 -0.1906 -0.0333
  154SAPE   O1317095   1.147   5.666  10.789  0.3727  0.1241 -0.5952
  154SAPE   O1417096   1.131   5.911  10.878 -0.6125 -0.6650  0.2954
  154SAPE   O1217097   1.289   5.839  10.689 -0.6998  0.3034 -0.1203
  154SAPE   O1117098   1.049   5.849  10.654  0.0875  0.7743  0.4064
  154SAPE    C117099   1.023   5.776  10.535 -0.3353  0.8404  0.4145
  154SAPE    HA17100   1.067   5.675  10.546  0.8461  1.3492  0.4383
  154SAPE    HB17101   0.916   5.746  10.527  0.5678 -2.1875 -0.8284
  154SAPE    C217102   1.090   5.838  10.407 -0.2967 -0.0842 -0.0405
  154SAPE    HS17103   1.199   5.853  10.421 -0.0647 -1.3973 -0.3893
  154SAPE   O2117104   1.018   5.967  10.383 -0.5770  0.0470 -0.3365
  154SAPE   C2117105   1.086   6.070  10.441  0.4215  0.3145 -0.1306
  154SAPE   O2217106   1.200   6.068  10.485 -0.5937 -0.3280 -0.3767
  154SAPE   C2217107   0.998   6.199  10.457 -0.2058  0.2580  0.7949
  154SAPE   H2R17108   0.974   6.214  10.564  0.3623  0.6467  0.8728
  154SAPE   H2S17109   1.058   6.286  10.423  0.8054 -1.4875 -2.1416
  154SAPE    C317110   1.081   5.752  10.272  0.2118  0.4377  0.1648
  154SAPE    HX17111   0.973   5.732  10.258  0.1553  1.4617 -0.9232
  154SAPE    HY17112   1.148   5.668  10.300  3.6389  2.6859 -0.9892
  154SAPE   O3117113   1.135   5.823  10.155 -0.3142 -0.2157 -0.1520
  154SAPE   C3117114   1.047   5.878  10.076  0.3152 -0.3903  0.2020
  154SAPE   O3217115   0.926   5.895  10.099  0.3145  0.6252  0.2140
  154SAPE   C3217116   1.112   5.928   9.939  0.7486  0.2417  0.0203
  154SAPE   H2X17117   1.191   5.858   9.906 -1.4678 -1.8202 -1.0449
  154SAPE   H2Y17118   1.139   6.035   9.951  0.3938  0.5606 -1.7421
  154SAPE   C2317119   0.866   6.189  10.377 -0.0593 -0.5188  0.5996
  154SAPE   H3R17120   0.790   6.116  10.413  0.6399 -0.5720  1.9928
  154SAPE   H3S17121   0.884   6.167  10.270  2.5323  1.3117  0.6004
  154SAPE   C2417122   0.791   6.322  10.380 -0.0164 -0.2188  0.2992
  154SAPE   H4R17123   0.866   6.394  10.341  0.0751 -0.9704 -0.9302
  154SAPE   H4S17124   0.771   6.357  10.483 -1.0611  0.7308 -0.2162
  154SAPE   C2517125   0.664   6.314  10.301 -0.1782  0.6077  0.2509
  154SAPE   H5R17126   0.586   6.269  10.364  0.0742  1.5577  1.2387
  154SAPE   C2617127   0.639   6.356  10.171 -0.0594 -0.2380 -0.2188
  154SAPE   H6R17128   0.535   6.349  10.136 -0.1264 -0.5001  0.0316
  154SAPE   C2717129   0.736   6.411  10.073  0.2880  0.3748 -0.4793
  154SAPE   H7R17130   0.810   6.485  10.110 -2.2728  2.2380  1.0333
  154SAPE   H7S17131   0.670   6.472  10.008 -1.0501 -0.8568 -0.2850
  154SAPE   C2817132   0.814   6.306   9.997 -1.1573  0.2455 -0.0833
  154SAPE   H8R17133   0.899   6.254  10.045 -1.9036 -0.2194  0.7562
  154SAPE   C2917134   0.805   6.293   9.860 -0.5965 -0.0006 -0.2633
  154SAPE   H9R17135   0.872   6.223   9.807  1.3479  0.6802  1.2566
  154SAPE  C21017136   0.708   6.368   9.762 -0.5334 -1.0536 -0.2921
  154SAPE  H10R17137   0.620   6.411   9.814  0.5049  1.3033 -0.4008
  154SAPE  H10S17138   0.665   6.295   9.691 -1.0683  0.7576 -1.8722
  154SAPE  C21117139   0.783   6.475   9.679 -0.4243 -0.4569  0.3666
  154SAPE  H11R17140   0.826   6.564   9.728  0.7680 -1.2996  0.8892
  154SAPE  C21217141   0.814   6.461   9.545  0.5218  0.8523 -0.1709
  154SAPE  H12R17142   0.843   6.556   9.500 -1.9842  1.5238 -0.4299
  154SAPE  C21317143   0.783   6.339   9.458  0.1389 -0.2774 -0.3554
  154SAPE  H13R17144   0.673   6.330   9.446  0.1187 -0.2915 -0.1706
  154SAPE  H13S17145   0.812   6.250   9.518 -0.8127 -0.3078  0.0627
  154SAPE  C21417146   0.862   6.351   9.331 -0.5230  0.2234  0.5869
  154SAPE  H14R17147   0.953   6.290   9.321 -0.5347 -0.2016  2.7774
  154SAPE  C21517148   0.819   6.425   9.223 -0.1984 -0.7646 -0.2125
  154SAPE  H15R17149   0.880   6.430   9.132  1.1044  0.0814  0.6903
  154SAPE  C21617150   0.686   6.501   9.217  0.2468  0.0890  0.9013
  154SAPE  H16R17151   0.692   6.609   9.188  1.2138 -0.6039 -1.6273
  154SAPE  H16S17152   0.638   6.499   9.317 -0.3068 -1.0808  0.6194
  154SAPE  C21717153   0.580   6.422   9.129  0.0331  0.2905 -0.0917
  154SAPE  H17R17154   0.485   6.473   9.155  0.4779 -0.1547  2.5635
  154SAPE  H17S17155   0.585   6.321   9.175  0.0988  0.0367 -0.6547
  154SAPE  C21817156   0.608   6.415   8.982 -0.2251  0.5580 -0.9171
  154SAPE  H18R17157   0.520   6.359   8.944 -0.4382  0.0885  0.2265
  154SAPE  H18S17158   0.694   6.349   8.960 -1.0233 -0.9878  0.4868
  154SAPE  C21917159   0.619   6.554   8.921  0.4322  0.3562 -0.3970
  154SAPE  H19R17160   0.723   6.588   8.937  1.6653 -4.2648  2.6053
  154SAPE  H19S17161   0.555   6.616   8.987 -2.7600 -4.6931  1.6249
  154SAPE  C22017162   0.569   6.561   8.776  0.1634  0.3522 -0.1943
  154SAPE  H20R17163   0.470   6.511   8.772 -0.3512  1.2430  0.9445
  154SAPE  H20S17164   0.639   6.505   8.712  1.3504  2.3695 -0.6845
  154SAPE  H20T17165   0.549   6.665   8.744  0.5003  0.0572 -1.3501
  154SAPE   C3317166   0.988   5.934   9.835  0.3933 -0.0468 -0.6980
  154SAPE   H3X17167   0.920   6.015   9.871  0.4073 -1.6053  3.1236
  154SAPE   H3Y17168   0.935   5.836   9.841 -1.1536  0.8997  3.4706
  154SAPE   C3417169   1.035   5.965   9.696 -0.0635  0.3878 -0.7568
  154SAPE   H4X17170   1.109   5.888   9.667  1.4478  1.6398 -0.2730
  154SAPE   H4Y17171   1.072   6.070   9.700 -2.4018  1.2105  0.0940
  154SAPE   C3517172   0.919   5.959   9.594  0.5219  0.0066  0.0025
  154SAPE   H5X17173   0.859   6.048   9.624  1.6585  1.1850 -1.1767
  154SAPE   H5Y17174   0.856   5.867   9.599 -1.0572  1.0678  0.0547
  154SAPE   C3617175   0.964   5.977   9.452  1.0521 -0.9015  0.2204
  154SAPE   H6X17176   1.047   5.904   9.438  1.7491 -0.1274  0.3115
  154SAPE   H6Y17177   1.011   6.076   9.434 -2.8684  0.6437 -2.1248
  154SAPE   C3717178   0.853   5.969   9.344 -0.8039 -0.0581 -0.1055
  154SAPE   H7X17179   0.784   6.054   9.364  0.4757  1.0315 -0.2709
  154SAPE   H7Y17180   0.794   5.875   9.354  0.4994 -0.7894  0.9234
  154SAPE   C3817181   0.907   5.990   9.196  0.0365 -0.2048  0.2574
  154SAPE   H8X17182   0.996   5.925   9.179 -0.7324 -1.0782 -0.4792
  154SAPE   H8Y17183   0.943   6.095   9.187  1.5571 -0.5884  1.5430
  154SAPE   C3917184   0.813   5.964   9.087  0.3070 -0.4555  0.6963
  154SAPE   H9X17185   0.733   6.040   9.096  0.2063 -0.8398  3.4751
  154SAPE   H9Y17186   0.760   5.866   9.094 -0.5576 -0.0295  0.2134
  154SAPE  C31017187   0.865   5.969   8.943  0.7561 -0.1132  0.2891
  154SAPE  H10X17188   0.940   5.888   8.930  0.1906 -0.4139 -1.3139
  154SAPE  H10Y17189   0.929   6.057   8.922  3.0802 -2.2021 -1.6314
  154SAPE  C31117190   0.768   5.946   8.829 -0.0056 -0.7487 -0.3674
  154SAPE  H11X17191   0.733   6.044   8.791  0.3270 -0.8355 -0.9100
  154SAPE  H11Y17192   0.675   5.898   8.868 -2.0559  3.0414 -0.3872
  154SAPE  C31217193   0.831   5.867   8.718 -0.1188 -0.6728  0.8770
  154SAPE  H12X17194   0.838   5.759   8.743 -0.2486 -1.4725 -2.2995
  154SAPE  H12Y17195   0.933   5.903   8.695 -0.3272 -1.6973 -1.8495
  154SAPE  C31317196   0.749   5.890   8.587  0.0861 -0.7462  0.4440
  154SAPE  H13X17197   0.781   5.983   8.534 -0.1862 -0.9643 -0.1178
  154SAPE  H13Y17198   0.646   5.910   8.625  0.3820  2.3488 -0.2309
  154SAPE  C31417199   0.763   5.779   8.482 -0.0920  0.3249 -0.1059
  154SAPE  H14X17200   0.745   5.678   8.526 -0.5059 -1.3042 -3.8078
  154SAPE  H14Y17201   0.862   5.792   8.432  0.6582  1.5148  1.6319
  154SAPE  C31517202   0.654   5.791   8.373 -0.1074 -0.3234 -0.1662
  154SAPE  H15X17203   0.555   5.803   8.421 -1.4951 -1.4591 -2.5888
  154SAPE  H15Y17204   0.660   5.691   8.323  1.9240 -1.2117  1.7844
  154SAPE  C31617205   0.687   5.897   8.269  0.9586 -0.1522 -0.3555
  154SAPE  H16X17206   0.781   5.870   8.217 -0.1045  0.4225 -2.6473
  154SAPE  H16Y17207   0.709   5.993   8.320 -1.0880  1.1646 -1.9075
  154SAPE  C31717208   0.561   5.932   8.187 -0.4033 -0.2871  0.1277
  154SAPE  H17X17209   0.576   6.037   8.155 -2.6546 -0.5725 -2.0362
  154SAPE  H17Y17210   0.481   5.934   8.264  0.6771  0.5828  1.2521
  154SAPE  C31817211   0.524   5.838   8.075 -0.5126  0.5781  0.3523
  154SAPE  H18X17212   0.536   5.734   8.112  0.8821  1.0694  1.2929
  154SAPE  H18Y17213   0.597   5.859   7.995 -0.1101 -1.3257  0.2032
  154SAPE  H18Z17214   0.418   5.845   8.041 -0.8107  1.6806  1.4644
  155SAPE     N17215   1.879   0.211  10.900 -0.3949  0.5763  0.6610
  155SAPE   HN117216   1.827   0.222  10.989 -1.4901 -0.9099  0.2217
  155SAPE   HN217217   1.830   0.253  10.819 -0.6701 -0.2709  0.3910
  155SAPE   HN317218   1.867   0.109  10.885  0.9267  0.4564  0.3276
  155SAPE   C1217219   2.028   0.246  10.919 -0.5299 -0.2083  0.0058
  155SAPE  H12A17220   2.076   0.227  10.821 -0.1874 -0.3918  0.2052
  155SAPE  H12B17221   2.067   0.183  11.003  0.4337  1.2393  0.6806
  155SAPE   C1117222   2.041   0.392  10.962  0.3615 -1.2681  0.2799
  155SAPE  H11A17223   2.145   0.426  10.982 -0.4055  0.1397  1.9968
  155SAPE  H11B17224   1.985   0.408  11.057  0.0408  0.0987 -0.1399
  155SAPE     P17225   2.069   0.563  10.778  0.9948  0.1237  0.0680
  155SAPE   O1317226   1.979   0.679  10.752 -0.4547  0.9225  0.0883
  155SAPE   O1417227   2.197   0.600  10.843  0.1584  0.6146  0.5724
  155SAPE   O1217228   1.976   0.476  10.864 -0.1307  0.2908  0.4107
  155SAPE   O1117229   2.096   0.477  10.641 -0.6160 -0.0257 -0.3178
  155SAPE    C117230   1.983   0.408  10.586  0.3486 -0.2590  0.3141
  155SAPE    HA17231   2.002   0.302  10.614 -0.1177 -0.1352  1.1089
  155SAPE    HB17232   1.881   0.433  10.624 -1.0295 -1.9888 -2.0574
  155SAPE    C217233   1.982   0.401  10.433  0.0248 -0.0734 -0.3149
  155SAPE    HS17234   2.074   0.346  10.405  0.9036  1.3700 -0.2976
  155SAPE   O2117235   1.978   0.541  10.388  0.2346  0.4403 -0.5585
  155SAPE   C2117236   2.098   0.596  10.377 -0.1075 -0.1997 -0.3865
  155SAPE   O2217237   2.206   0.547  10.387 -0.3814  0.3062  0.1985
  155SAPE   C2217238   2.086   0.746  10.351  0.3071 -0.2794  0.2608
  155SAPE   H2R17239   2.006   0.766  10.276  1.5289  0.9980 -0.7151
  155SAPE   H2S17240   2.054   0.795  10.446  1.8051 -1.3077  1.3294
  155SAPE    C317241   1.864   0.315  10.376  0.4592  0.4999 -0.8287
  155SAPE    HX17242   1.766   0.364  10.396  0.5085 -0.0945  0.9661
  155SAPE    HY17243   1.861   0.215  10.425 -1.9669  1.4989  1.1727
  155SAPE   O3117244   1.883   0.270  10.244 -0.1109 -0.6584 -0.1111
  155SAPE   C3117245   1.847   0.355  10.143 -0.6252 -0.6152 -0.4082
  155SAPE   O3217246   1.790   0.464  10.157 -0.4851  0.0942 -0.9118
  155SAPE   C3217247   1.876   0.300  10.010  0.9206  0.0179  0.5174
  155SAPE   H2X17248   1.833   0.197  10.014 -0.7380  0.7121  1.2763
  155SAPE   H2Y17249   1.985   0.296   9.992  0.9786  1.9803  0.4206
  155SAPE   C2317250   2.211   0.818  10.309 -0.7376 -0.1224  0.8107
  155SAPE   H3R17251   2.291   0.782  10.378  0.5041 -0.7811 -0.9253
  155SAPE   H3S17252   2.185   0.923  10.333  1.9277  0.6358  0.5569
  155SAPE   C2417253   2.241   0.786  10.163  0.4934 -0.6757  0.1138
  155SAPE   H4R17254   2.247   0.677  10.141 -0.5571 -0.9230  1.0396
  155SAPE   H4S17255   2.347   0.816  10.146 -0.5959  3.6379  0.4687
  155SAPE   C2517256   2.156   0.840  10.050  0.5828  0.6645  0.3646
  155SAPE   H5R17257   2.047   0.837  10.064 -0.0353 -1.3840 -3.8895
  155SAPE   C2617258   2.199   0.900   9.935 -0.1078 -0.5075  0.1366
  155SAPE   H6R17259   2.121   0.946   9.873 -0.1523 -1.6854 -0.6864
  155SAPE   C2717260   2.344   0.920   9.885 -0.0634  0.4034  0.1261
  155SAPE   H7R17261   2.390   0.819   9.895 -1.1198 -0.1025 -0.0270
  155SAPE   H7S17262   2.395   0.993   9.951 -3.0942  1.8362  0.9714
  155SAPE   C2817263   2.362   0.967   9.738 -0.0796  0.6968 -0.1878
  155SAPE   H8R17264   2.391   1.071   9.720  1.0041  0.7096  1.5065
  155SAPE   C2917265   2.340   0.888   9.627 -1.0432  0.4067  0.1558
  155SAPE   H9R17266   2.385   0.918   9.531 -0.5346 -0.5392  0.0961
  155SAPE  C21017267   2.285   0.748   9.634 -0.4717  0.6396 -0.5953
  155SAPE  H10R17268   2.261   0.719   9.739 -1.5784 -0.1813 -1.0709
  155SAPE  H10S17269   2.343   0.668   9.583 -0.2062  0.6208 -0.2707
  155SAPE  C21117270   2.151   0.736   9.572  0.0074  0.2040 -0.5832
  155SAPE  H11R17271   2.075   0.761   9.647  2.7094  2.9892  1.3612
  155SAPE  C21217272   2.116   0.697   9.449  1.1212 -0.5770 -0.8622
  155SAPE  H12R17273   2.010   0.688   9.421  1.4734  0.0005 -2.4684
  155SAPE  C21317274   2.211   0.658   9.345 -0.7957  0.5985  0.6711
  155SAPE  H13R17275   2.316   0.666   9.381 -1.4801 -1.3064  3.2915
  155SAPE  H13S17276   2.197   0.721   9.255 -0.3863 -1.1880 -0.6847
  155SAPE  C21417277   2.185   0.512   9.318  0.1465 -0.0571 -0.3704
  155SAPE  H14R17278   2.212   0.444   9.401  1.6749 -0.6768 -1.3481
  155SAPE  C21517279   2.161   0.458   9.198 -0.1604  0.0687  0.3942
  155SAPE  H15R17280   2.132   0.352   9.191 -1.1803  0.4054 -0.7922
  155SAPE  C21617281   2.148   0.529   9.072 -0.0395  0.4324 -0.0465
  155SAPE  H16R17282   2.148   0.640   9.077 -2.5015  0.4732 -0.6818
  155SAPE  H16S17283   2.047   0.517   9.029 -0.6250  2.2844  0.7657
  155SAPE  C21717284   2.253   0.481   8.981 -0.2996  0.6025 -0.3610
  155SAPE  H17R17285   2.352   0.488   9.032 -0.7976 -1.4924  0.9360
  155SAPE  H17S17286   2.254   0.527   8.879  0.3892  1.3857 -0.0080
  155SAPE  C21817287   2.243   0.327   8.942 -0.7775  0.2999  0.2540
  155SAPE  H18R17288   2.139   0.292   8.959 -0.1200 -0.5715  2.6388
  155SAPE  H18S17289   2.301   0.274   9.020 -1.8516 -1.3206 -0.0105
  155SAPE  C21917290   2.297   0.301   8.799  0.1707  0.3589 -0.0258
  155SAPE  H19R17291   2.400   0.339   8.779 -0.2923  1.4427 -0.3601
  155SAPE  H19S17292   2.234   0.354   8.725 -1.2936  0.6764  1.4101
  155SAPE  C22017293   2.303   0.153   8.774 -0.2329  0.1138 -0.4895
  155SAPE  H20R17294   2.225   0.101   8.834  1.6081 -1.2320  0.8342
  155SAPE  H20S17295   2.402   0.116   8.808 -0.4450 -0.6023 -0.6453
  155SAPE  H20T17296   2.285   0.126   8.668  1.0305  0.6087 -0.8358
  155SAPE   C3317297   1.807   0.393   9.906 -0.1178 -0.5898  0.7242
  155SAPE   H3X17298   1.854   0.494   9.899 -1.4510  0.0875  1.3313
  155SAPE   H3Y17299   1.704   0.419   9.939 -0.3623  0.3215 -0.6951
  155SAPE   C3417300   1.796   0.328   9.769 -0.2133  0.5597 -0.6572
  155SAPE   H4X17301   1.749   0.413   9.714  3.2089  3.6323  0.9386
  155SAPE   H4Y17302   1.731   0.239   9.755 -1.6186  1.8932 -3.0279
  155SAPE   C3517303   1.930   0.288   9.702 -0.3472 -0.0439  0.1717
  155SAPE   H5X17304   1.984   0.208   9.756 -0.5768 -0.4021 -0.1260
  155SAPE   H5Y17305   1.996   0.374   9.679 -0.3982  0.5714  2.2593
  155SAPE   C3617306   1.903   0.212   9.564  0.4026  0.1771  0.1283
  155SAPE   H6X17307   1.840   0.124   9.585  0.2094  0.1243 -0.6379
  155SAPE   H6Y17308   1.997   0.168   9.525  1.1832  2.4291 -0.6626
  155SAPE   C3717309   1.845   0.301   9.450  0.0700 -0.3269  0.5464
  155SAPE   H7X17310   1.900   0.397   9.447 -0.7513  0.1092 -1.9220
  155SAPE   H7Y17311   1.743   0.325   9.486  0.0601 -2.4926  2.0558
  155SAPE   C3817312   1.846   0.234   9.318 -0.3308 -0.7384  0.6001
  155SAPE   H8X17313   1.773   0.150   9.318  0.1613 -1.2046  2.9743
  155SAPE   H8Y17314   1.940   0.182   9.290 -0.0841 -0.1811  0.3918
  155SAPE   C3917315   1.807   0.336   9.212  0.4119 -0.7628  0.2024
  155SAPE   H9X17316   1.885   0.411   9.189 -1.6927  1.4148  0.0329
  155SAPE   H9Y17317   1.726   0.407   9.240  0.3274 -0.5238 -0.6519
  155SAPE  C31017318   1.756   0.262   9.078 -0.0677 -1.0792  0.1833
  155SAPE  H10X17319   1.657   0.217   9.101 -0.1772 -0.7953  0.2637
  155SAPE  H10Y17320   1.819   0.177   9.043  1.1598 -0.0407 -0.1780
  155SAPE  C31117321   1.733   0.356   8.959  0.2859  0.4363  0.3311
  155SAPE  H11X17322   1.829   0.399   8.924  2.2953 -0.6480  4.1483
  155SAPE  H11Y17323   1.673   0.447   8.981 -3.4064 -1.7079 -0.4026
  155SAPE  C31217324   1.666   0.284   8.843 -0.9111  0.2874 -0.0591
  155SAPE  H12X17325   1.559   0.265   8.864 -0.6500  1.0005  2.0616
  155SAPE  H12Y17326   1.708   0.181   8.831 -1.9526 -0.5050  2.6535
  155SAPE  C31317327   1.671   0.372   8.719  0.2022  1.0014  0.1431
  155SAPE  H13X17328   1.775   0.390   8.686  0.6929 -1.0637  0.5131
  155SAPE  H13Y17329   1.616   0.466   8.742 -0.0590  0.4850  1.7320
  155SAPE  C31417330   1.612   0.286   8.606  0.2754  0.2990  0.0546
  155SAPE  H14X17331   1.501   0.290   8.608  0.1490 -0.8364 -2.5806
  155SAPE  H14Y17332   1.650   0.182   8.607  1.7705  0.8364 -0.5138
  155SAPE  C31517333   1.653   0.347   8.470  0.5389  0.1012 -0.2560
  155SAPE  H15X17334   1.764   0.345   8.462  0.7610  2.6028  1.4799
  155SAPE  H15Y17335   1.629   0.455   8.468  0.1314 -0.0060 -1.0274
  155SAPE  C31617336   1.585   0.266   8.356  0.3241 -0.1449 -0.6348
  155SAPE  H16X17337   1.476   0.281   8.372  0.2316  2.4850 -3.3487
  155SAPE  H16Y17338   1.616   0.160   8.339  1.9272 -0.1052  1.8071
  155SAPE  C31717339   1.607   0.331   8.217 -0.1963  0.0063 -0.0581
  155SAPE  H17X17340   1.716   0.351   8.204 -0.3094  1.9113  1.8120
  155SAPE  H17Y17341   1.550   0.425   8.202  0.2867  0.3678  0.3290
  155SAPE  C31817342   1.559   0.234   8.107 -0.1637  0.9866 -0.4979
  155SAPE  H18X17343   1.615   0.138   8.111  1.4558  1.8988 -0.7496
  155SAPE  H18Y17344   1.555   0.280   8.006  1.4183  1.4902 -0.3436
  155SAPE  H18Z17345   1.454   0.207   8.129 -0.0482  3.6666  3.7878
  156SAPE     N17346   0.045   4.617  10.769  0.8229  0.3732  0.0796
  156SAPE   HN117347   0.117   4.689  10.794 -0.5646  2.0401 -0.6229
  156SAPE   HN217348  -0.043   4.667  10.791  0.6557  0.1086  0.0078
  156SAPE   HN317349   0.042   4.546  10.845 -1.2805  1.0973  0.7089
  156SAPE   C1217350   0.052   4.545  10.640 -0.0637  0.5900  1.1681
  156SAPE  H12A17351  -0.029   4.469  10.640 -0.8485  1.4125  0.2849
  156SAPE  H12B17352   0.151   4.495  10.642 -1.3256 -2.1306 -0.9133
  156SAPE   C1117353   0.036   4.646  10.521 -0.0645  0.5864 -0.1812
  156SAPE  H11A17354   0.056   4.596  10.423 -1.2973 -0.2778 -0.0064
  156SAPE  H11B17355   0.113   4.723  10.545  2.4855 -1.9066 -0.0919
  156SAPE     P17356  -0.223   4.645  10.467 -0.3255 -0.2476  0.0640
  156SAPE   O1317357  -0.247   4.531  10.545 -0.5099 -0.1887 -0.3682
  156SAPE   O1417358  -0.329   4.751  10.470  0.4912  0.7267 -0.2232
  156SAPE   O1217359  -0.087   4.715  10.510  0.0248 -0.1667 -0.4769
  156SAPE   O1117360  -0.205   4.603  10.317  0.8249  0.6566  0.6318
  156SAPE    C117361  -0.181   4.699  10.216  0.0333  0.1186  0.0924
  156SAPE    HA17362  -0.138   4.793  10.257 -0.3955  0.1905  0.3773
  156SAPE    HB17363  -0.099   4.663  10.150  0.8062 -0.7127  1.4658
  156SAPE    C217364  -0.303   4.744  10.123  0.0965 -0.1431  0.8929
  156SAPE    HS17365  -0.386   4.771  10.192 -0.0137 -1.2921  1.2160
  156SAPE   O2117366  -0.340   4.622  10.053 -0.5059  0.6001 -0.1654
  156SAPE   C2117367  -0.463   4.620  10.009 -0.0219 -0.1790 -0.5901
  156SAPE   O2217368  -0.559   4.682  10.047 -0.4678 -0.4709  0.3238
  156SAPE   C2217369  -0.476   4.519   9.904  0.1032 -0.5781  0.2488
  156SAPE   H2R17370  -0.453   4.422   9.953  1.4337 -0.3421  0.1340
  156SAPE   H2S17371  -0.581   4.521   9.868  0.7617  0.3859 -1.6975
  156SAPE    C317372  -0.285   4.863  10.027  0.4939 -1.0099 -0.2030
  156SAPE    HX17373  -0.272   4.960  10.080 -0.6436 -1.5722  1.1188
  156SAPE    HY17374  -0.384   4.869   9.977  0.0050 -1.2624  0.7232
  156SAPE   O3117375  -0.171   4.839   9.941 -0.3075  0.4168 -0.0457
  156SAPE   C3117376  -0.188   4.872   9.808 -0.0059 -0.5753  0.1863
  156SAPE   O3217377  -0.283   4.936   9.767 -0.2773 -0.5847  0.0214
  156SAPE   C3217378  -0.072   4.812   9.725 -0.3084 -0.2986  0.6878
  156SAPE   H2X17379  -0.104   4.775   9.626 -1.5121  1.0408  0.5612
  156SAPE   H2Y17380  -0.011   4.741   9.785  1.1433  0.5977  0.3180
  156SAPE   C2317381  -0.383   4.541   9.779 -0.7155 -0.3452 -0.1126
  156SAPE   H3R17382  -0.277   4.539   9.812 -0.6740 -4.0633 -0.2303
  156SAPE   H3S17383  -0.403   4.643   9.739 -0.3999 -1.0680 -2.1648
  156SAPE   C2417384  -0.396   4.440   9.673  0.2522 -0.2270 -0.5190
  156SAPE   H4R17385  -0.434   4.341   9.706  2.2037 -1.8040 -2.8784
  156SAPE   H4S17386  -0.292   4.421   9.641 -0.1146 -0.8559 -1.3328
  156SAPE   C2517387  -0.491   4.487   9.566 -1.2603 -0.2253 -0.0264
  156SAPE   H5R17388  -0.596   4.484   9.600 -1.6185 -2.4184 -1.2046
  156SAPE   C2617389  -0.467   4.537   9.443 -0.7441 -0.2911  0.7197
  156SAPE   H6R17390  -0.558   4.561   9.386  0.5894 -2.7441 -2.6505
  156SAPE   C2717391  -0.334   4.565   9.376 -0.1928 -0.1650  0.6977
  156SAPE   H7R17392  -0.278   4.475   9.344 -0.4713 -0.9053  2.2546
  156SAPE   H7S17393  -0.273   4.618   9.452 -0.8225  1.0212  0.3879
  156SAPE   C2817394  -0.354   4.656   9.259 -0.4916 -0.1777 -0.9643
  156SAPE   H8R17395  -0.440   4.629   9.197  1.6242  0.2558 -4.1927
  156SAPE   C2917396  -0.286   4.774   9.230  0.0808 -0.2303 -0.2162
  156SAPE   H9R17397  -0.320   4.840   9.149  1.1606 -1.5304 -1.7777
  156SAPE  C21017398  -0.165   4.824   9.294  0.1865  0.5974 -1.1162
  156SAPE  H10R17399  -0.081   4.804   9.226  0.7439 -0.1303 -0.2270
  156SAPE  H10S17400  -0.129   4.762   9.379 -1.4442  0.8327 -0.2253
  156SAPE  C21117401  -0.168   4.965   9.341 -0.3723 -0.1542  0.4119
  156SAPE  H11R17402  -0.186   4.990   9.447 -0.2053 -1.9669  0.8807
  156SAPE  C21217403  -0.142   5.080   9.265 -0.7526 -0.9754 -0.0642
  156SAPE  H12R17404  -0.141   5.178   9.315  1.4339  0.6210 -3.1065
  156SAPE  C21317405  -0.084   5.080   9.125 -0.6611 -0.1256  0.3138
  156SAPE  H13R17406  -0.028   4.984   9.116 -0.2418  0.0541  1.0254
  156SAPE  H13S17407  -0.010   5.163   9.123 -1.7979  0.8578 -2.1749
  156SAPE  C21417408  -0.202   5.098   9.032  0.6751 -0.7643  0.4253
  156SAPE  H14R17409  -0.254   5.194   9.040  0.3561 -1.0629  2.1649
  156SAPE  C21517410  -0.251   5.018   8.938 -0.2883  0.2786 -0.0008
  156SAPE  H15R17411  -0.328   5.056   8.870 -0.8797 -0.5009  0.2223
  156SAPE  C21617412  -0.190   4.886   8.893 -0.3959  0.7720  0.5413
  156SAPE  H16R17413  -0.249   4.793   8.907  0.3781  0.2188  0.1585
  156SAPE  H16S17414  -0.096   4.867   8.948 -1.6563  1.0273  2.8353
  156SAPE  C21717415  -0.151   4.900   8.746  0.2845 -0.8568 -0.6547
  156SAPE  H17R17416  -0.095   4.808   8.718  0.9975 -0.5647 -0.1858
  156SAPE  H17S17417  -0.078   4.982   8.731  0.7294 -1.7228 -3.4553
  156SAPE  C21817418  -0.269   4.917   8.663  0.0053 -0.0834  0.4451
  156SAPE  H18R17419  -0.355   4.975   8.701 -0.0225  1.0599 -1.2958
  156SAPE  H18S17420  -0.310   4.818   8.634  0.4755  0.7066 -3.1435
  156SAPE  C21917421  -0.223   4.976   8.527 -0.7365 -0.5379  0.5106
  156SAPE  H19R17422  -0.135   4.925   8.481  0.0514  1.3647 -0.1595
  156SAPE  H19S17423  -0.178   5.075   8.549 -1.3543 -0.8047  3.0802
  156SAPE  C22017424  -0.342   4.991   8.432 -0.3538  0.7321  0.3980
  156SAPE  H20R17425  -0.370   4.890   8.396  0.8233  0.2718  0.7655
  156SAPE  H20S17426  -0.314   5.047   8.340  1.0924 -0.3263  0.1918
  156SAPE  H20T17427  -0.428   5.046   8.477 -0.7875  1.8654 -1.6919
  156SAPE   C3317428   0.013   4.928   9.688 -0.5595 -0.3454 -0.3746
  156SAPE   H3X17429   0.031   4.982   9.783 -0.0351 -0.1124 -0.6036
  156SAPE   H3Y17430  -0.023   4.997   9.609 -0.2722 -1.8229 -1.8115
  156SAPE   C3417431   0.148   4.874   9.632  0.6207  0.3393 -0.4278
  156SAPE   H4X17432   0.201   4.817   9.712  1.1976  3.0138  1.1417
  156SAPE   H4Y17433   0.210   4.962   9.606 -0.6178  0.6305 -2.5136
  156SAPE   C3517434   0.139   4.798   9.498 -0.2618  0.1231 -0.0960
  156SAPE   H5X17435   0.087   4.858   9.420  1.7715  1.9606 -0.0767
  156SAPE   H5Y17436   0.083   4.701   9.500 -0.4915  0.2087 -1.6865
  156SAPE   C3617437   0.278   4.759   9.441  1.2459 -0.6270  0.4721
  156SAPE   H6X17438   0.327   4.689   9.512  1.5656 -0.2581  0.6141
  156SAPE   H6Y17439   0.334   4.855   9.431  3.4845 -1.7371  2.0131
  156SAPE   C3717440   0.266   4.708   9.296  0.1602  0.5205  0.6425
  156SAPE   H7X17441   0.189   4.628   9.300  0.9553 -0.2751  0.2517
  156SAPE   H7Y17442   0.361   4.658   9.266  0.3998  2.3657 -1.8316
  156SAPE   C3817443   0.230   4.802   9.182  1.2414 -0.0315 -0.1919
  156SAPE   H8X17444   0.314   4.873   9.164  2.0956 -1.3096 -1.3621
  156SAPE   H8Y17445   0.138   4.856   9.212 -0.1802 -1.6350 -1.5195
  156SAPE   C3917446   0.208   4.737   9.037  0.8767 -0.2812 -0.2919
  156SAPE   H9X17447   0.310   4.700   9.013  0.5805 -1.4113  0.1201
  156SAPE   H9Y17448   0.180   4.815   8.964 -0.3063 -2.5041 -2.2926
  156SAPE  C31017449   0.129   4.604   9.040  0.2090 -0.2335  0.0618
  156SAPE  H10X17450   0.060   4.608   9.127 -0.1208  0.2655 -0.2227
  156SAPE  H10Y17451   0.201   4.521   9.058 -2.2082 -1.6077  4.2162
  156SAPE  C31117452   0.049   4.584   8.913  0.1059 -0.1305 -0.4410
  156SAPE  H11X17453   0.106   4.536   8.830  0.4909 -0.8207  0.2108
  156SAPE  H11Y17454   0.020   4.686   8.880 -1.4256 -0.4911 -0.2259
  156SAPE  C31217455  -0.086   4.503   8.931 -0.3192  0.1829 -0.3745
  156SAPE  H12X17456  -0.147   4.563   9.002  1.1296  0.9803  0.2273
  156SAPE  H12Y17457  -0.072   4.403   8.976  3.2965  0.1794 -1.2916
  156SAPE  C31317458  -0.155   4.484   8.794 -0.2411 -0.0445 -0.3403
  156SAPE  H13X17459  -0.079   4.436   8.727 -1.3048 -0.4087 -1.3022
  156SAPE  H13Y17460  -0.187   4.578   8.746 -0.7893 -1.1824 -2.2571
  156SAPE  C31417461  -0.287   4.406   8.807 -0.0298 -0.5289  0.5717
  156SAPE  H14X17462  -0.344   4.418   8.713 -0.7747 -3.5514  0.6017
  156SAPE  H14Y17463  -0.349   4.460   8.882 -1.0436 -1.4485  0.3971
  156SAPE  C31517464  -0.266   4.256   8.844  0.4975  0.3383 -0.4432
  156SAPE  H15X17465  -0.242   4.255   8.952  0.7114  3.5248 -0.4283
  156SAPE  H15Y17466  -0.179   4.227   8.781  1.4171 -0.1255  1.0105
  156SAPE  C31617467  -0.387   4.165   8.806 -0.7143 -0.5064 -0.1973
  156SAPE  H16X17468  -0.482   4.214   8.837 -0.0681  0.1081  0.8518
  156SAPE  H16Y17469  -0.400   4.076   8.872 -0.3435  0.2918  0.9652
  156SAPE  C31717470  -0.380   4.106   8.668 -0.3627 -0.6613 -0.1423
  156SAPE  H17X17471  -0.296   4.033   8.670  0.5502  0.3303 -1.4186
  156SAPE  H17Y17472  -0.353   4.183   8.593  0.0910  0.1963  0.8934
  156SAPE  C31817473  -0.504   4.031   8.615  0.4376 -0.1591  0.0345
  156SAPE  H18X17474  -0.586   4.105   8.602 -0.7426 -1.2931  0.9672
  156SAPE  H18Y17475  -0.545   3.962   8.692 -2.0033  0.3298 -0.7926
  156SAPE  H18Z17476  -0.484   3.980   8.519  1.9281  0.6559 -0.1015
  157SAPE     N17477   5.600   5.748  11.053 -0.4127 -0.1296 -0.3588
  157SAPE   HN117478   5.519   5.744  10.987 -1.2648 -0.4953  0.7072
  157SAPE   HN217479   5.619   5.654  11.091  2.5603  0.8327  0.6328
  157SAPE   HN317480   5.567   5.819  11.121  0.0320 -0.9374  0.7033
  157SAPE   C1217481   5.725   5.787  10.970  0.1018  0.0834  0.2150
  157SAPE  H12A17482   5.813   5.755  11.029 -0.0856 -1.7813 -0.4523
  157SAPE  H12B17483   5.721   5.897  10.955 -1.9809  0.1117  0.7438
  157SAPE   C1117484   5.719   5.716  10.837 -0.1456  0.3507 -0.1658
  157SAPE  H11A17485   5.814   5.724  10.780  2.0877 -1.6414  3.1234
  157SAPE  H11B17486   5.639   5.761  10.775  0.5679 -0.5374 -1.7727
  157SAPE     P17487   5.788   5.461  10.821 -0.3481  0.1195 -0.0095
  157SAPE   O1317488   5.911   5.466  10.899 -0.1445  0.1110  0.6771
  157SAPE   O1417489   5.717   5.328  10.820  0.7436 -0.0309  0.2976
  157SAPE   O1217490   5.680   5.576  10.859  0.1060  0.4498 -0.6373
  157SAPE   O1117491   5.811   5.493  10.669 -0.5046  0.1270  0.8166
  157SAPE    C117492   5.696   5.514  10.579  0.3355 -0.1435  0.3482
  157SAPE    HA17493   5.598   5.538  10.627 -0.1966 -0.9729 -0.3015
  157SAPE    HB17494   5.721   5.594  10.506 -1.5730 -0.0678 -0.2492
  157SAPE    C217495   5.662   5.391  10.491  0.4536 -0.5128  1.0283
  157SAPE    HS17496   5.621   5.310  10.555 -1.2498 -0.2658  0.2737
  157SAPE   O2117497   5.779   5.355  10.424  0.0934 -0.2232  0.0655
  157SAPE   C2117498   5.791   5.219  10.398  0.1063  0.3415  0.1410
  157SAPE   O2217499   5.727   5.134  10.455 -0.5270 -0.2052 -0.7471
  157SAPE   C2217500   5.903   5.197  10.299  0.2132 -0.7273 -0.5800
  157SAPE   H2R17501   5.879   5.233  10.196 -0.0218 -2.7829 -1.2729
  157SAPE   H2S17502   5.997   5.249  10.328 -1.2417  0.1452  2.8934
  157SAPE    C317503   5.559   5.426  10.376 -0.0437 -0.0394 -0.3829
  157SAPE    HX17504   5.619   5.501  10.319  1.0033 -0.9526 -0.4986
  157SAPE    HY17505   5.471   5.480  10.418 -0.6218 -0.2525 -1.3040
  157SAPE   O3117506   5.534   5.316  10.284 -0.9921 -0.2122  0.3049
  157SAPE   C3117507   5.455   5.226  10.337 -0.1219  0.1497 -1.0648
  157SAPE   O3217508   5.399   5.234  10.447 -0.0993 -0.3640  0.5197
  157SAPE   C3217509   5.439   5.104  10.239 -0.5712  0.1720  0.1183
  157SAPE   H2X17510   5.337   5.119  10.198 -0.1680  2.2651 -0.1678
  157SAPE   H2Y17511   5.440   5.004  10.288 -1.2001  0.2307  0.2581
  157SAPE   C2317512   5.933   5.050  10.265  0.4575 -0.4054  0.6334
  157SAPE   H3R17513   5.839   4.990  10.257  0.5495 -0.7048  1.6829
  157SAPE   H3S17514   6.008   5.006  10.334 -0.4416 -1.2090  1.1186
  157SAPE   C2417515   6.002   5.024  10.126  0.0597  0.6094  0.2497
  157SAPE   H4R17516   5.934   5.073  10.053 -0.8076  0.1167  0.7255
  157SAPE   H4S17517   6.007   4.915  10.107 -1.1051  0.5969 -0.0034
  157SAPE   C2517518   6.137   5.093  10.107  0.0395 -0.5601 -0.1075
  157SAPE   H5R17519   6.211   5.052  10.177  0.2535 -1.2161 -0.7157
  157SAPE   C2617520   6.176   5.193  10.023 -0.2305  0.8384 -0.3392
  157SAPE   H6R17521   6.281   5.225  10.031 -0.0657  0.5461 -1.2790
  157SAPE   C2717522   6.084   5.263   9.927 -0.4653 -0.0535 -0.7084
  157SAPE   H7R17523   6.011   5.336   9.967 -0.1814  0.7723 -1.6747
  157SAPE   H7S17524   6.025   5.187   9.871 -0.7082 -0.8734  0.6502
  157SAPE   C2817525   6.148   5.347   9.818 -0.0502  0.1602 -0.7875
  157SAPE   H8R17526   6.128   5.455   9.824 -0.2714  0.1935 -1.9818
  157SAPE   C2917527   6.233   5.314   9.719  0.1665 -0.3823  0.2615
  157SAPE   H9R17528   6.279   5.393   9.657 -0.8642  0.3276  0.3904
  157SAPE  C21017529   6.271   5.174   9.686 -0.8592 -0.2873 -0.2917
  157SAPE  H10R17530   6.251   5.115   9.778 -1.1934  3.0552  1.8496
  157SAPE  H10S17531   6.382   5.168   9.683 -0.8242 -0.1757  0.7174
  157SAPE  C21117532   6.208   5.107   9.568  0.4545 -0.0157  0.5862
  157SAPE  H11R17533   6.127   5.044   9.606 -0.7840  1.1318 -0.1269
  157SAPE  C21217534   6.228   5.124   9.436 -0.9819 -0.6765 -0.1117
  157SAPE  H12R17535   6.166   5.081   9.356  1.1300  0.1528 -2.2638
  157SAPE  C21317536   6.318   5.223   9.361 -0.2614  0.5920 -1.0030
  157SAPE  H13R17537   6.336   5.167   9.267  1.9134 -0.4608  0.0091
  157SAPE  H13S17538   6.418   5.225   9.408 -1.0270  0.2152  0.6948
  157SAPE  C21417539   6.266   5.365   9.330  0.4778  0.5741  0.4452
  157SAPE  H14R17540   6.226   5.405   9.425  2.1785 -1.8102  2.2336
  157SAPE  C21517541   6.265   5.440   9.222 -0.4857 -0.2179  0.7440
  157SAPE  H15R17542   6.203   5.530   9.238 -0.6434 -0.6202  2.5450
  157SAPE  C21617543   6.305   5.415   9.084 -0.7989 -0.3659  0.2195
  157SAPE  H16R17544   6.282   5.311   9.055  1.6633 -0.4504 -1.5423
  157SAPE  H16S17545   6.412   5.445   9.082 -1.1145  0.9054  1.1791
  157SAPE  C21717546   6.228   5.509   8.991  0.0300 -0.1179  0.3453
  157SAPE  H17R17547   6.245   5.617   9.014 -1.5438  0.0593  0.7787
  157SAPE  H17S17548   6.119   5.489   9.002  0.3393 -0.5387  2.7855
  157SAPE  C21817549   6.269   5.508   8.845  0.2517 -0.2140 -0.3546
  157SAPE  H18R17550   6.373   5.548   8.837 -0.4014  1.5227 -0.3581
  157SAPE  H18S17551   6.198   5.558   8.775 -0.0826  0.3520  0.3828
  157SAPE  C21917552   6.265   5.369   8.779 -0.1914  0.4773 -0.2897
  157SAPE  H19R17553   6.162   5.329   8.795  0.4544 -0.7999  0.7601
  157SAPE  H19S17554   6.337   5.304   8.833 -0.1970  1.2216  0.6340
  157SAPE  C22017555   6.300   5.372   8.630 -0.7208  0.4130  0.3119
  157SAPE  H20R17556   6.250   5.459   8.581 -0.4568 -0.1624 -1.0005
  157SAPE  H20S17557   6.265   5.281   8.578  0.8338  0.5430 -1.0105
  157SAPE  H20T17558   6.409   5.388   8.616 -1.3420  3.0144 -2.1726
  157SAPE   C3317559   5.538   5.106  10.121  0.6235 -0.0784 -0.0820
  157SAPE   H3X17560   5.640   5.122  10.163  0.5916  0.6271 -0.2711
  157SAPE   H3Y17561   5.528   5.193  10.052  1.0246  1.2184  1.4625
  157SAPE   C3417562   5.549   4.979  10.038 -0.1775  0.1129  0.3100
  157SAPE   H4X17563   5.581   4.904  10.112 -0.2603 -0.8689 -0.6328
  157SAPE   H4Y17564   5.618   5.004   9.954  0.6068  0.3724  1.0292
  157SAPE   C3517565   5.423   4.936   9.965  0.4067 -0.6415 -0.7831
  157SAPE   H5X17566   5.340   4.940  10.039  2.3358 -0.0234  1.3722
  157SAPE   H5Y17567   5.425   4.831   9.928  2.1799 -1.8184  2.5532
  157SAPE   C3617568   5.402   5.007   9.830  0.3194 -0.1078 -0.3663
  157SAPE   H6X17569   5.458   5.103   9.820 -2.2066  1.8886  3.6002
  157SAPE   H6Y17570   5.296   5.040   9.832  0.3166  0.3797 -4.1586
  157SAPE   C3717571   5.435   4.928   9.706  0.2386 -0.4558 -0.2655
  157SAPE   H7X17572   5.399   4.822   9.708  3.0824 -1.4746 -0.0646
  157SAPE   H7Y17573   5.546   4.923   9.700  0.4080  0.6057  1.5938
  157SAPE   C3817574   5.378   4.989   9.573  0.7599  0.2657 -0.4399
  157SAPE   H8X17575   5.434   5.085   9.572  1.2399 -0.0037  0.0692
  157SAPE   H8Y17576   5.269   5.011   9.581  0.7790 -0.3912  2.1748
  157SAPE   C3917577   5.415   4.911   9.446  0.6414  0.3094 -0.3686
  157SAPE   H9X17578   5.370   4.810   9.441  2.5206 -0.6151  1.0657
  157SAPE   H9Y17579   5.526   4.910   9.442  0.7311  0.2962  1.7903
  157SAPE  C31017580   5.363   4.999   9.332  0.4380 -0.1269  0.4605
  157SAPE  H10X17581   5.396   5.105   9.329  0.9236 -0.2756  0.4459
  157SAPE  H10Y17582   5.252   4.996   9.334  0.3494  2.4289  1.3484
  157SAPE  C31117583   5.401   4.951   9.191  0.5176  0.2525 -0.6408
  157SAPE  H11X17584   5.370   4.845   9.187 -0.8721  0.5906  0.6625
  157SAPE  H11Y17585   5.509   4.957   9.165  0.6766  0.1600 -0.0017
  157SAPE  C31217586   5.326   5.037   9.087  0.0595  1.1515 -0.2840
  157SAPE  H12X17587   5.330   5.145   9.113  0.0388  0.3597  3.4071
  157SAPE  H12Y17588   5.218   5.014   9.091 -0.0238  1.8135  1.9289
  157SAPE  C31317589   5.372   5.004   8.942  0.1841 -0.2845 -0.0834
  157SAPE  H13X17590   5.392   4.895   8.934  1.0348 -0.0980 -0.5852
  157SAPE  H13Y17591   5.472   5.051   8.927 -0.3835  0.2468 -2.4773
  157SAPE  C31417592   5.268   5.040   8.838 -0.3328 -0.5318  0.4178
  157SAPE  H14X17593   5.249   5.150   8.841  0.0161 -0.3861 -1.5143
  157SAPE  H14Y17594   5.172   4.987   8.855 -0.8578  0.5951  1.0459
  157SAPE  C31517595   5.328   4.999   8.698 -0.5049  0.0438  0.3530
  157SAPE  H15X17596   5.364   4.894   8.702 -0.2490  0.1674  1.6728
  157SAPE  H15Y17597   5.413   5.069   8.679 -1.0628  0.0119 -2.4289
  157SAPE  C31617598   5.221   5.021   8.590 -0.4414 -0.3448 -0.0918
  157SAPE  H16X17599   5.191   5.128   8.587 -1.9648 -0.7693 -0.6988
  157SAPE  H16Y17600   5.133   4.961   8.621  0.2474 -0.5214  1.5481
  157SAPE  C31717601   5.268   4.988   8.442 -0.0074 -0.3752  0.4354
  157SAPE  H17X17602   5.333   5.067   8.399 -0.1112 -0.6831 -0.2826
  157SAPE  H17Y17603   5.174   4.984   8.383 -0.6086 -0.0198  1.3568
  157SAPE  C31817604   5.355   4.863   8.438 -0.3365  0.0312  0.4033
  157SAPE  H18X17605   5.447   4.872   8.499  1.0715 -0.5054 -1.5956
  157SAPE  H18Y17606   5.386   4.851   8.332 -1.1781  1.8668 -0.0728
  157SAPE  H18Z17607   5.302   4.771   8.470  1.3428 -0.2096  2.5725
  158SAPE     N17608   6.562   5.777  10.731  0.4159  0.1688 -0.1788
  158SAPE   HN117609   6.532   5.680  10.755 -3.1375  1.2784  0.0926
  158SAPE   HN217610   6.554   5.837  10.816  0.5370  1.1753 -0.8663
  158SAPE   HN317611   6.486   5.812  10.670 -1.4429 -1.3036  1.2236
  158SAPE   C1217612   6.712   5.773  10.683  0.5540 -0.1055  0.0628
  158SAPE  H12A17613   6.776   5.765  10.774  0.4150 -1.3124  0.0698
  158SAPE  H12B17614   6.730   5.872  10.637  1.1159 -0.4535 -0.4825
  158SAPE   C1117615   6.731   5.662  10.581  0.3633  0.6412 -0.0669
  158SAPE  H11A17616   6.839   5.658  10.558  0.4473 -0.8446  0.5625
  158SAPE  H11B17617   6.677   5.680  10.486 -1.1377  1.1379  0.8515
  158SAPE     P17618   6.595   5.437  10.594 -0.1240  0.0260  0.5703
  158SAPE   O1317619   6.608   5.306  10.653 -0.1065  0.2708 -0.1750
  158SAPE   O1417620   6.468   5.505  10.611 -0.0986 -0.2116 -0.5246
  158SAPE   O1217621   6.709   5.535  10.648  0.0758  0.2683 -0.0830
  158SAPE   O1117622   6.625   5.423  10.437 -0.0110  0.8905 -0.5261
  158SAPE    C117623   6.698   5.311  10.386 -0.1086 -0.0035  0.3923
  158SAPE    HA17624   6.803   5.306  10.420  0.4500 -0.5548 -1.3659
  158SAPE    HB17625   6.640   5.218  10.403 -2.2463  1.2941  0.5116
  158SAPE    C217626   6.716   5.324  10.220  0.8138  0.2782  0.2163
  158SAPE    HS17627   6.784   5.240  10.195 -1.2225 -0.7635 -2.0248
  158SAPE   O2117628   6.760   5.454  10.175 -0.1537 -0.3673  0.4385
  158SAPE   C2117629   6.884   5.486  10.205  0.5264  0.6652 -0.2785
  158SAPE   O2217630   6.961   5.423  10.270 -0.2582 -0.2527  0.2356
  158SAPE   C2217631   6.893   5.628  10.162  0.4975  0.3384 -0.0803
  158SAPE   H2R17632   6.836   5.643  10.068  1.5835  1.1606 -0.6095
  158SAPE   H2S17633   6.837   5.682  10.242 -0.9085  2.9514 -2.7170
  158SAPE    C317634   6.580   5.290  10.146  0.1408  0.0252 -0.0416
  158SAPE    HX17635   6.500   5.364  10.163  0.4977  0.8040 -1.6164
  158SAPE    HY17636   6.539   5.191  10.175  0.7889 -0.2597 -0.0904
  158SAPE   O3117637   6.628   5.279  10.006  0.3632 -0.1841 -0.0720
  158SAPE   C3117638   6.564   5.354   9.915 -0.2210  0.0232  0.3640
  158SAPE   O3217639   6.455   5.408   9.931  0.0112  0.0504 -0.1580
  158SAPE   C3217640   6.632   5.327   9.783 -0.2361 -0.0452  0.5232
  158SAPE   H2X17641   6.578   5.240   9.741 -1.3242  1.7736 -1.9857
  158SAPE   H2Y17642   6.740   5.303   9.787 -0.0864  0.2645 -1.1778
  158SAPE   C2317643   7.043   5.673  10.165  0.7543 -0.0691  0.8807
  158SAPE   H3R17644   7.086   5.637  10.261 -1.8757  3.3777  3.5187
  158SAPE   H3S17645   7.058   5.783  10.173  3.7577 -0.5648  3.1802
  158SAPE   C2417646   7.122   5.633  10.040 -0.0707  0.6716  0.0895
  158SAPE   H4R17647   7.097   5.527  10.018 -0.4138  0.7853 -0.0749
  158SAPE   H4S17648   7.231   5.634  10.060  0.4904 -0.1139 -2.6418
  158SAPE   C2517649   7.100   5.735   9.933 -0.1056 -0.4759 -0.9919
  158SAPE   H5R17650   7.041   5.825   9.959  3.0423  1.5380 -0.5807
  158SAPE   C2617651   7.151   5.725   9.812  0.2304 -0.1898  0.5872
  158SAPE   H6R17652   7.120   5.793   9.732 -0.7812 -0.2663  0.9008
  158SAPE   C2717653   7.242   5.606   9.772 -0.4609 -0.2006  0.4627
  158SAPE   H7R17654   7.186   5.549   9.696  0.7481  0.3468 -0.8581
  158SAPE   H7S17655   7.263   5.530   9.851  1.2679  0.5287  0.7384
  158SAPE   C2817656   7.379   5.639   9.715 -0.7051  0.1543  0.0678
  158SAPE   H8R17657   7.442   5.715   9.765 -1.6146  2.0177 -1.5407
  158SAPE   C2917658   7.440   5.583   9.611 -0.2088 -0.7665 -0.2998
  158SAPE   H9R17659   7.541   5.618   9.586 -0.8662  0.4182 -1.3983
  158SAPE  C21017660   7.390   5.479   9.523  1.2980  0.2289  0.0951
  158SAPE  H10R17661   7.283   5.502   9.501  0.7095 -0.3460  2.2338
  158SAPE  H10S17662   7.390   5.383   9.579  0.5948  0.4115  0.4237
  158SAPE  C21117663   7.461   5.470   9.390  0.6455  0.9238 -0.2245
  158SAPE  H11R17664   7.431   5.537   9.309 -0.7964 -0.6591 -1.0233
  158SAPE  C21217665   7.557   5.373   9.368  0.4925 -0.2730  0.0120
  158SAPE  H12R17666   7.604   5.377   9.268  1.4042  0.1228  0.4565
  158SAPE  C21317667   7.619   5.270   9.453  0.1598  0.3368  0.3710
  158SAPE  H13R17668   7.558   5.177   9.450  1.1158 -0.3146  0.7821
  158SAPE  H13S17669   7.621   5.298   9.560  2.8706  1.5031  0.0597
  158SAPE  C21417670   7.759   5.235   9.405 -0.4600  0.6839 -0.3372
  158SAPE  H14R17671   7.768   5.142   9.347  0.6555 -0.4558  1.5878
  158SAPE  C21517672   7.865   5.314   9.428  0.4584  0.0679 -0.6532
  158SAPE  H15R17673   7.962   5.274   9.397  0.6985  1.1582 -1.3672
  158SAPE  C21617674   7.865   5.445   9.506 -0.2789 -0.0785  0.0238
  158SAPE  H16R17675   7.765   5.482   9.535  0.5986  1.3304  1.3343
  158SAPE  H16S17676   7.905   5.526   9.441 -0.3824  0.0705  0.1501
  158SAPE  C21717677   7.949   5.420   9.631 -0.7737  0.1359  0.3909
  158SAPE  H17R17678   8.045   5.374   9.600 -1.3246 -1.7741  1.4096
  158SAPE  H17S17679   7.889   5.348   9.691  1.8771  0.3253  3.3958
  158SAPE  C21817680   7.966   5.547   9.721 -0.3621 -0.3389  0.6989
  158SAPE  H18R17681   7.873   5.586   9.767  0.6623  0.9583  1.6913
  158SAPE  H18S17682   7.998   5.630   9.655  2.3715 -1.3008  0.7461
  158SAPE  C21917683   8.076   5.541   9.834 -0.7768 -0.7653 -0.7629
  158SAPE  H19R17684   8.088   5.642   9.880 -0.3641 -0.7343 -0.9375
  158SAPE  H19S17685   8.166   5.523   9.771  0.0581  2.5238 -0.6048
  158SAPE  C22017686   8.056   5.438   9.936  0.3331 -0.4830  0.0097
  158SAPE  H20R17687   8.145   5.419  10.000 -1.4830 -1.2471  2.4092
  158SAPE  H20S17688   8.024   5.343   9.887 -1.2778 -0.3119  0.6801
  158SAPE  H20T17689   7.973   5.462  10.006  0.8280  2.6658 -0.4397
  158SAPE   C3317690   6.620   5.451   9.691  0.1541  0.0725  0.2311
  158SAPE   H3X17691   6.656   5.535   9.755 -1.6047  2.3608 -1.6783
  158SAPE   H3Y17692   6.515   5.466   9.657 -0.0997  1.6252  1.6144
  158SAPE   C3417693   6.710   5.438   9.578 -0.2370  0.0373  0.0048
  158SAPE   H4X17694   6.707   5.332   9.544  1.1619 -0.4606  1.3906
  158SAPE   H4Y17695   6.816   5.461   9.602 -1.1575  1.2057  3.1955
  158SAPE   C3517696   6.662   5.523   9.458  0.4146  0.1692  0.3038
  158SAPE   H5X17697   6.682   5.630   9.480 -2.0560  0.5440  0.9452
  158SAPE   H5Y17698   6.553   5.512   9.439  0.6768  0.3595 -1.3222
  158SAPE   C3617699   6.735   5.489   9.329 -0.2424 -0.6594 -0.0705
  158SAPE   H6X17700   6.704   5.387   9.300  1.6607 -1.0681 -0.6813
  158SAPE   H6Y17701   6.841   5.498   9.361 -0.4350  1.2999  0.0938
  158SAPE   C3717702   6.704   5.588   9.222  0.0573  0.3003 -0.4702
  158SAPE   H7X17703   6.762   5.681   9.241  0.3720 -0.0539  0.2883
  158SAPE   H7Y17704   6.597   5.617   9.210 -0.1332 -0.7858 -1.4562
  158SAPE   C3817705   6.763   5.530   9.088 -0.3644 -0.8834  0.1217
  158SAPE   H8X17706   6.703   5.438   9.069 -1.0894 -0.5412  0.7424
  158SAPE   H8Y17707   6.869   5.498   9.102 -0.2281 -1.6400 -2.3698
  158SAPE   C3917708   6.767   5.627   8.976  0.2474 -0.4737  0.3255
  158SAPE   H9X17709   6.829   5.585   8.894  0.6289 -0.2063  0.4768
  158SAPE   H9Y17710   6.810   5.727   8.999  2.2119 -1.0133 -0.8741
  158SAPE  C31017711   6.628   5.662   8.924  0.3400 -0.0854 -0.2840
  158SAPE  H10X17712   6.563   5.708   9.002  0.1578 -0.5270 -0.1731
  158SAPE  H10Y17713   6.591   5.570   8.874  0.1352  0.4256 -1.0805
  158SAPE  C31117714   6.625   5.770   8.815  0.5802 -0.6487  1.1518
  158SAPE  H11X17715   6.675   5.732   8.724 -2.5828 -0.2592 -0.8085
  158SAPE  H11Y17716   6.681   5.859   8.852 -1.2555  1.3075 -0.6385
  158SAPE  C31217717   6.488   5.812   8.768 -0.1456 -0.1401  0.6942
  158SAPE  H12X17718   6.468   5.915   8.806 -1.9240 -0.7224  1.4280
  158SAPE  H12Y17719   6.409   5.746   8.811  2.0524 -1.4212  2.9373
  158SAPE  C31317720   6.460   5.802   8.613  0.1285 -0.2763 -0.4948
  158SAPE  H13X17721   6.356   5.829   8.585  0.4382  0.8228 -0.5903
  158SAPE  H13Y17722   6.472   5.695   8.583 -0.9191 -0.8959  1.2043
  158SAPE  C31417723   6.554   5.893   8.530 -0.5715 -0.0076  0.8355
  158SAPE  H14X17724   6.647   5.832   8.534  0.4441  1.4790  0.2665
  158SAPE  H14Y17725   6.567   5.996   8.568  1.0621 -0.6515  2.0736
  158SAPE  C31517726   6.513   5.896   8.382  0.1534 -0.1991  0.1047
  158SAPE  H15X17727   6.429   5.970   8.376  0.3410  0.1089  1.1610
  158SAPE  H15Y17728   6.486   5.790   8.367  1.4697 -0.9162  2.5373
  158SAPE  C31617729   6.621   5.948   8.296 -1.0442  0.4159 -0.3853
  158SAPE  H16X17730   6.722   5.914   8.329 -0.6771  1.8022 -0.0545
  158SAPE  H16Y17731   6.629   6.059   8.293 -3.2678  0.7000  2.1731
  158SAPE  C31717732   6.589   5.900   8.154 -0.8331 -0.2145  0.0240
  158SAPE  H17X17733   6.605   5.790   8.156 -1.4442 -0.3645 -2.0677
  158SAPE  H17Y17734   6.664   5.949   8.088 -0.5557 -1.6229 -0.7096
  158SAPE  C31817735   6.447   5.942   8.117  0.0892 -0.5293 -0.1157
  158SAPE  H18X17736   6.378   5.869   8.165  1.9966 -2.2024  0.1210
  158SAPE  H18Y17737   6.419   5.954   8.010 -1.4557  2.9703  0.6022
  158SAPE  H18Z17738   6.443   6.042   8.167  2.7604 -1.0421  1.2054
  159SAPE     N17739   6.478   2.795   6.620 -0.0888  0.6693  0.4836
  159SAPE   HN117740   6.578   2.767   6.625  0.0332  1.0536  0.1541
  159SAPE   HN217741   6.457   2.834   6.526  0.8661  0.5194  0.2077
  159SAPE   HN317742   6.459   2.873   6.686 -1.8896 -0.1263  0.9525
  159SAPE   C1217743   6.392   2.679   6.651 -0.1196 -0.3720  0.5560
  159SAPE  H12A17744   6.337   2.654   6.558 -0.5239  0.7905  0.4812
  159SAPE  H12B17745   6.314   2.704   6.726 -0.8552  0.7141 -0.5472
  159SAPE   C1117746   6.467   2.551   6.702  0.1022  0.2664 -0.3178
  159SAPE  H11A17747   6.393   2.470   6.721  0.1706  0.3521  0.3242
  159SAPE  H11B17748   6.510   2.587   6.798  0.2664  1.5558 -0.8737
  159SAPE     P17749   6.598   2.367   6.554  0.5748  0.2653 -0.5228
  159SAPE   O1317750   6.469   2.303   6.521 -0.7152  0.3412 -0.2395
  159SAPE   O1417751   6.709   2.367   6.448  0.1917  0.0489 -0.2207
  159SAPE   O1217752   6.576   2.516   6.616 -0.4832 -0.6243  0.2715
  159SAPE   O1117753   6.661   2.305   6.674 -0.2102  0.3907 -0.8841
  159SAPE    C117754   6.592   2.198   6.757 -0.7117 -0.1161  0.5412
  159SAPE    HA17755   6.495   2.167   6.713 -1.5455  1.4389  1.2466
  159SAPE    HB17756   6.651   2.105   6.743  0.1166  0.5615 -0.4682
  159SAPE    C217757   6.575   2.238   6.910  0.0943  0.1934  0.0162
  159SAPE    HS17758   6.579   2.152   6.980 -0.5089 -0.9870 -1.3675
  159SAPE   O2117759   6.453   2.311   6.920  0.4867 -0.0387  0.7151
  159SAPE   C2117760   6.390   2.305   7.032 -0.1376 -0.3533  0.4939
  159SAPE   O2217761   6.415   2.227   7.129 -0.0539 -0.2284 -0.0537
  159SAPE   C2217762   6.276   2.401   7.011 -0.5740 -0.2088 -0.1674
  159SAPE   H2R17763   6.304   2.469   6.927  0.0602  0.5867  0.6854
  159SAPE   H2S17764   6.183   2.343   6.992 -1.1375  0.2438  1.1326
  159SAPE    C317765   6.702   2.321   6.969  0.1005 -1.0966 -0.1003
  159SAPE    HX17766   6.695   2.422   6.923 -1.1789 -1.1962 -0.1398
  159SAPE    HY17767   6.795   2.276   6.929  1.2905  0.5794  0.7084
  159SAPE   O3117768   6.720   2.310   7.111  0.9059  0.1274  0.4081
  159SAPE   C3117769   6.680   2.420   7.176 -0.6501  1.0819 -0.1219
  159SAPE   O3217770   6.642   2.524   7.131 -0.1700 -0.2343  0.5520
  159SAPE   C3217771   6.674   2.398   7.330 -0.0928 -1.6953 -0.1056
  159SAPE   H2X17772   6.753   2.457   7.382 -1.1351  0.3845 -0.8619
  159SAPE   H2Y17773   6.698   2.290   7.346 -0.6782 -1.8029  0.0636
  159SAPE   C2317774   6.271   2.499   7.134  0.4491 -1.0884  0.8512
  159SAPE   H3R17775   6.356   2.568   7.116  0.9016 -1.6454  0.8733
  159SAPE   H3S17776   6.304   2.456   7.231 -1.0714 -2.4103  0.8097
  159SAPE   C2417777   6.143   2.583   7.149  0.3735 -0.3414 -0.4564
  159SAPE   H4R17778   6.109   2.627   7.053  0.7514 -0.3622 -0.6021
  159SAPE   H4S17779   6.182   2.667   7.211 -0.5475 -0.5832  0.4829
  159SAPE   C2517780   6.033   2.506   7.215 -0.6731 -0.0768 -0.1129
  159SAPE   H5R17781   5.959   2.457   7.150  1.3603 -0.7300 -1.9678
  159SAPE   C2617782   6.016   2.495   7.349 -0.8089 -0.0777 -0.0204
  159SAPE   H6R17783   5.944   2.428   7.398 -1.0164  2.3141  3.0734
  159SAPE   C2717784   6.114   2.552   7.455 -0.1856 -0.4934 -0.2756
  159SAPE   H7R17785   6.202   2.587   7.396  0.9549  0.1282  1.7627
  159SAPE   H7S17786   6.143   2.466   7.518  0.9271 -1.4769 -2.0732
  159SAPE   C2817787   6.037   2.658   7.525 -0.1025  0.1893  0.5973
  159SAPE   H8R17788   6.044   2.758   7.479 -0.8460 -0.2381 -0.4673
  159SAPE   C2917789   5.948   2.640   7.624 -0.1634  0.3548 -0.7025
  159SAPE   H9R17790   5.904   2.729   7.671 -1.3405 -1.1174  1.0795
  159SAPE  C21017791   5.903   2.511   7.690  0.5357 -0.3118 -0.2496
  159SAPE  H10R17792   5.871   2.448   7.604 -0.4115 -0.6563  0.3487
  159SAPE  H10S17793   5.802   2.530   7.732  1.0798  1.1625  0.4283
  159SAPE  C21117794   5.999   2.439   7.778  0.2829  1.1265 -1.4044
  159SAPE  H11R17795   6.031   2.341   7.740 -2.0695  0.0943 -0.7473
  159SAPE  C21217796   6.052   2.482   7.893  0.4920 -0.2142  0.3967
  159SAPE  H12R17797   6.134   2.433   7.947  1.0218 -1.8855 -1.8601
  159SAPE  C21317798   6.002   2.612   7.964  0.7526 -0.1225  0.5946
  159SAPE  H13R17799   5.952   2.584   8.059  2.1887 -0.8163  1.1634
  159SAPE  H13S17800   5.924   2.662   7.902 -0.4211 -1.1370  1.2215
  159SAPE  C21417801   6.120   2.712   7.980  0.1744  0.0795  0.5061
  159SAPE  H14R17802   6.165   2.743   7.885  0.2686  1.9338  1.1229
  159SAPE  C21517803   6.166   2.772   8.092  0.0944 -0.1719 -0.1452
  159SAPE  H15R17804   6.244   2.849   8.083 -1.1262  1.0644 -0.3079
  159SAPE  C21617805   6.110   2.753   8.235 -0.0994 -0.0518 -0.0553
  159SAPE  H16R17806   6.035   2.672   8.223  0.2019 -0.2385 -0.7045
  159SAPE  H16S17807   6.053   2.844   8.264  1.1168  0.2252  1.4942
  159SAPE  C21717808   6.215   2.722   8.336  0.3935 -0.6535 -0.5339
  159SAPE  H17R17809   6.284   2.808   8.344  1.4567 -1.5071 -0.5121
  159SAPE  H17S17810   6.276   2.639   8.296  0.1815 -0.7413 -0.6781
  159SAPE  C21817811   6.160   2.685   8.475  0.2385 -0.5006  0.5135
  159SAPE  H18R17812   6.091   2.598   8.467 -1.0831  0.6278 -0.7460
  159SAPE  H18S17813   6.091   2.764   8.510  1.4834  0.4305  0.9237
  159SAPE  C21917814   6.273   2.659   8.579  0.1283  0.2063 -0.4411
  159SAPE  H19R17815   6.345   2.741   8.598 -1.3855  1.3594  0.5057
  159SAPE  H19S17816   6.331   2.576   8.533  0.5053 -1.9109  3.6733
  159SAPE  C22017817   6.211   2.607   8.709  0.3564 -0.3094 -0.9683
  159SAPE  H20R17818   6.184   2.695   8.771  0.9490 -1.1879  0.5719
  159SAPE  H20S17819   6.280   2.544   8.769 -2.1567 -0.8534  1.4362
  159SAPE  H20T17820   6.122   2.546   8.683 -0.7595  0.7398  0.3330
  159SAPE   C3317821   6.534   2.427   7.392  0.0629 -0.5094  0.3051
  159SAPE   H3X17822   6.473   2.335   7.380 -1.2369  0.4247 -0.4044
  159SAPE   H3Y17823   6.489   2.507   7.328  1.8859  0.8115  0.6389
  159SAPE   C3417824   6.545   2.495   7.529  0.5258  0.3783 -0.2289
  159SAPE   H4X17825   6.443   2.530   7.557  1.9655  3.9002  0.8783
  159SAPE   H4Y17826   6.615   2.581   7.526  0.6082  0.2741 -1.6311
  159SAPE   C3517827   6.616   2.404   7.632 -0.6286 -0.7803 -0.5397
  159SAPE   H5X17828   6.725   2.397   7.610 -0.7256  0.0423 -1.3123
  159SAPE   H5Y17829   6.565   2.307   7.616 -3.8245  0.6987  0.3431
  159SAPE   C3617830   6.606   2.462   7.773 -0.0229  0.2962 -0.5095
  159SAPE   H6X17831   6.530   2.543   7.766  0.2163  0.5404 -0.2610
  159SAPE   H6Y17832   6.702   2.499   7.814 -0.7101  0.5978  0.8703
  159SAPE   C3717833   6.541   2.351   7.867 -0.1491 -0.5230 -0.2889
  159SAPE   H7X17834   6.609   2.265   7.853  0.2676 -0.1951 -0.2702
  159SAPE   H7Y17835   6.450   2.315   7.813 -1.0575 -0.4231  1.1391
  159SAPE   C3817836   6.496   2.395   8.001 -0.0371  0.1173 -0.0204
  159SAPE   H8X17837   6.428   2.481   7.983  0.3668 -0.3028 -4.0824
  159SAPE   H8Y17838   6.570   2.423   8.078  1.1014 -1.6014 -0.4704
  159SAPE   C3917839   6.410   2.281   8.078  0.6933 -0.2301 -0.4082
  159SAPE   H9X17840   6.472   2.189   8.074 -0.4453 -0.9387 -2.3663
  159SAPE   H9Y17841   6.316   2.261   8.023  0.4975 -0.4924  0.0172
  159SAPE  C31017842   6.377   2.318   8.225  0.5726  0.1503  0.5161
  159SAPE  H10X17843   6.313   2.408   8.233  1.1545  0.7014 -0.8489
  159SAPE  H10Y17844   6.464   2.337   8.291  0.2990  1.0201  0.6201
  159SAPE  C31117845   6.289   2.203   8.296 -0.1221 -1.0108  0.6029
  159SAPE  H11X17846   6.320   2.098   8.274  1.1110  0.0848 -3.0989
  159SAPE  H11Y17847   6.189   2.205   8.248  0.5260  1.4023 -0.7403
  159SAPE  C31217848   6.274   2.230   8.448  0.3048  0.0668  0.6428
  159SAPE  H12X17849   6.224   2.327   8.469  0.9142  0.1090  1.9785
  159SAPE  H12Y17850   6.375   2.236   8.495  0.1611 -0.3016  1.0006
  159SAPE  C31317851   6.198   2.116   8.509 -0.1113 -1.1309  0.0634
  159SAPE  H13X17852   6.249   2.024   8.473 -0.5481 -1.9499  1.4975
  159SAPE  H13Y17853   6.095   2.109   8.468 -0.1474  3.6459 -0.9755
  159SAPE  C31417854   6.219   2.113   8.665  0.2066 -0.2590  0.0548
  159SAPE  H14X17855   6.327   2.135   8.681  0.3108 -2.1635  2.2880
  159SAPE  H14Y17856   6.207   2.009   8.703  2.0701 -0.2094  0.7933
  159SAPE  C31517857   6.122   2.200   8.749  0.0741  0.1777  0.1567
  159SAPE  H15X17858   6.021   2.158   8.730  0.1686  0.5924 -1.3269
  159SAPE  H15Y17859   6.112   2.307   8.719  1.0712  0.8845  2.3247
  159SAPE  C31617860   6.161   2.200   8.895  0.0182 -0.1774 -0.6025
  159SAPE  H16X17861   6.080   2.251   8.952  0.0817  1.0174 -1.5559
  159SAPE  H16Y17862   6.249   2.268   8.888 -1.0147  1.1717 -0.7808
  159SAPE  C31717863   6.207   2.066   8.964  0.5424  0.0329 -0.4943
  159SAPE  H17X17864   6.288   2.029   8.897  0.3248  0.7894 -1.1802
  159SAPE  H17Y17865   6.128   1.988   8.969  0.4298  0.3048  2.3183
  159SAPE  C31817866   6.259   2.081   9.105 -0.1437 -0.1621  0.2750
  159SAPE  H18X17867   6.296   2.184   9.122 -0.7062 -0.2420  2.0414
  159SAPE  H18Y17868   6.351   2.021   9.123  0.6509  1.1088  0.4933
  159SAPE  H18Z17869   6.182   2.052   9.179  0.7530 -1.2724  0.7834
  160SAPE     N17870   4.961   3.015   6.736  0.0761 -0.4875 -0.3781
  160SAPE   HN117871   5.018   3.053   6.658  1.5073 -0.6457  0.5721
  160SAPE   HN217872   5.023   3.014   6.820 -1.4880  0.4774  0.8111
  160SAPE   HN317873   4.945   2.916   6.708 -2.0096  0.2526 -1.9081
  160SAPE   C1217874   4.834   3.087   6.774 -0.0352  0.2270 -0.5294
  160SAPE  H12A17875   4.800   3.056   6.875  1.0403  0.6737 -0.0317
  160SAPE  H12B17876   4.753   3.053   6.705 -0.0653 -0.5358 -0.1308
  160SAPE   C1117877   4.834   3.238   6.778 -0.5456  0.5508 -1.3376
  160SAPE  H11A17878   4.894   3.268   6.867 -0.3261 -0.0531 -1.2801
  160SAPE  H11B17879   4.727   3.265   6.787 -1.1267 -1.5881 -1.4996
  160SAPE     P17880   4.805   3.349   6.553 -0.2073 -0.0357 -0.1489
  160SAPE   O1317881   4.890   3.395   6.436  0.1546  0.1275 -0.0410
  160SAPE   O1417882   4.701   3.249   6.525 -0.5717  0.4642  0.2976
  160SAPE   O1217883   4.902   3.287   6.667 -0.1978  0.7158 -0.5969
  160SAPE   O1117884   4.733   3.471   6.625  0.1214  0.9033 -0.3472
  160SAPE    C117885   4.787   3.603   6.640  1.7088 -0.3718  0.5505
  160SAPE    HA17886   4.821   3.635   6.539  3.6806  0.4787  1.4599
  160SAPE    HB17887   4.698   3.663   6.669  0.8056  0.0525 -2.8976
  160SAPE    C217888   4.905   3.618   6.739  0.8680  0.5177 -0.8985
  160SAPE    HS17889   4.981   3.544   6.707 -0.3987 -0.4065 -1.8189
  160SAPE   O2117890   4.843   3.594   6.871  0.1803 -0.0513  0.5161
  160SAPE   C2117891   4.913   3.528   6.956 -0.4720 -0.4743  0.2555
  160SAPE   O2217892   5.026   3.501   6.945  0.4395 -0.2079  0.4409
  160SAPE   C2217893   4.833   3.495   7.085  0.4798 -0.9320  0.8330
  160SAPE   H2R17894   4.725   3.518   7.068  0.4442  0.4426  2.6993
  160SAPE   H2S17895   4.848   3.393   7.125 -0.7041 -1.2319  0.5186
  160SAPE    C317896   4.968   3.760   6.733 -0.3931  0.8177 -0.0518
  160SAPE    HX17897   4.881   3.829   6.738 -1.2815 -0.2967  0.1192
  160SAPE    HY17898   5.017   3.778   6.635 -2.5380  0.7541 -1.1478
  160SAPE   O3117899   5.064   3.782   6.839 -0.0115  0.7384 -0.0100
  160SAPE   C3117900   5.181   3.716   6.831 -0.1332  0.2346 -0.3608
  160SAPE   O3217901   5.217   3.653   6.734 -0.3718  0.1668 -0.4483
  160SAPE   C3217902   5.261   3.737   6.962 -0.2704  0.0452  0.1077
  160SAPE   H2X17903   5.198   3.707   7.049  0.5908  0.4913  0.8929
  160SAPE   H2Y17904   5.293   3.841   6.982 -0.4920  0.1106  0.1267
  160SAPE   C2317905   4.869   3.598   7.193  0.9787 -0.0254  0.1182
  160SAPE   H3R17906   4.889   3.697   7.148  1.4974  0.1525  0.7322
  160SAPE   H3S17907   4.972   3.587   7.233  1.5373  1.8749 -0.7219
  160SAPE   C2417908   4.762   3.610   7.312 -0.1145  0.0562  0.7554
  160SAPE   H4R17909   4.764   3.517   7.373  1.4824 -1.6879 -1.8420
  160SAPE   H4S17910   4.664   3.634   7.265  1.2117  0.1681 -2.0760
  160SAPE   C2517911   4.792   3.722   7.402  0.4685 -0.0008 -0.0863
  160SAPE   H5R17912   4.782   3.824   7.362 -1.0508 -0.1130 -0.0104
  160SAPE   C2617913   4.801   3.708   7.538 -0.2019  0.9730 -0.3794
  160SAPE   H6R17914   4.837   3.793   7.597  0.2119  1.6290 -1.5436
  160SAPE   C2717915   4.785   3.586   7.623 -0.6383  0.9354  0.1962
  160SAPE   H7R17916   4.840   3.592   7.719 -3.9144  1.8757  2.0731
  160SAPE   H7S17917   4.837   3.505   7.566 -1.7967 -0.8600  1.6208
  160SAPE   C2817918   4.640   3.562   7.637 -0.7419 -0.4197 -0.0029
  160SAPE   H8R17919   4.575   3.574   7.549  1.0078 -0.0623 -1.2653
  160SAPE   C2917920   4.585   3.549   7.755 -0.3612  0.3782  0.1706
  160SAPE   H9R17921   4.475   3.543   7.758 -0.5185  1.8754 -1.4374
  160SAPE  C21017922   4.662   3.528   7.885  0.2585 -0.5539 -0.3819
  160SAPE  H10R17923   4.755   3.468   7.879 -0.2403 -1.3805 -0.0739
  160SAPE  H10S17924   4.599   3.462   7.949  0.3300  0.4982  0.7972
  160SAPE  C21117925   4.673   3.651   7.970  0.5358  0.4368 -0.3371
  160SAPE  H11R17926   4.637   3.744   7.924  0.0667  0.5812  0.3057
  160SAPE  C21217927   4.710   3.664   8.097 -0.1592  0.5345 -0.2756
  160SAPE  H12R17928   4.704   3.757   8.155 -0.3034 -1.7837  3.5934
  160SAPE  C21317929   4.749   3.549   8.190 -0.1874 -0.3102  0.1254
  160SAPE  H13R17930   4.797   3.591   8.281 -1.0568 -1.2216  1.0115
  160SAPE  H13S17931   4.826   3.485   8.143  0.0146  0.8881 -1.2413
  160SAPE  C21417932   4.623   3.470   8.225  1.4105  0.0702  0.1531
  160SAPE  H14R17933   4.564   3.435   8.139 -2.7233  1.6117  2.2219
  160SAPE  C21517934   4.571   3.456   8.345  0.1610 -0.5215 -0.5153
  160SAPE  H15R17935   4.470   3.411   8.346 -0.4326  0.8080  0.1407
  160SAPE  C21617936   4.628   3.510   8.474 -0.0268  0.1940 -0.0239
  160SAPE  H16R17937   4.737   3.533   8.468 -0.1270  0.5491 -0.4997
  160SAPE  H16S17938   4.630   3.433   8.554  1.1434  2.2287  1.9668
  160SAPE  C21717939   4.544   3.633   8.515 -0.3837  0.2045  0.3248
  160SAPE  H17R17940   4.435   3.612   8.511 -0.5092  0.5718  1.4489
  160SAPE  H17S17941   4.567   3.710   8.439  1.3207 -0.5525  0.0528
  160SAPE  C21817942   4.559   3.694   8.648 -0.0008 -0.0305  0.3392
  160SAPE  H18R17943   4.476   3.766   8.664  0.1236  0.5573 -1.5505
  160SAPE  H18S17944   4.656   3.747   8.663  1.3148 -1.5284 -2.4986
  160SAPE  C21917945   4.536   3.598   8.767  1.0475 -0.0580  0.4596
  160SAPE  H19R17946   4.633   3.546   8.783  1.3013 -0.0768 -1.0370
  160SAPE  H19S17947   4.459   3.524   8.735 -0.8023  2.1542 -0.3188
  160SAPE  C22017948   4.509   3.678   8.890 -0.3910 -0.1188  0.2178
  160SAPE  H20R17949   4.421   3.745   8.875  1.3315  2.4459  1.2678
  160SAPE  H20S17950   4.603   3.734   8.908 -0.9173  1.1461 -0.8611
  160SAPE  H20T17951   4.484   3.618   8.979 -0.7660  1.1343  0.9805
  160SAPE   C3317952   5.392   3.646   6.986  0.1240 -0.2402 -0.3761
  160SAPE   H3X17953   5.473   3.687   6.922 -0.8204  2.5350  0.1813
  160SAPE   H3Y17954   5.368   3.540   6.963 -0.7972 -0.5140  1.7221
  160SAPE   C3417955   5.463   3.655   7.120 -0.4120 -0.6522  0.1431
  160SAPE   H4X17956   5.493   3.759   7.144  0.3161  0.0929 -3.6340
  160SAPE   H4Y17957   5.552   3.589   7.110 -0.7597 -1.0051 -0.6565
  160SAPE   C3517958   5.384   3.584   7.237  0.4388 -0.7018 -0.0950
  160SAPE   H5X17959   5.340   3.488   7.200 -0.6094  0.1999 -1.2324
  160SAPE   H5Y17960   5.300   3.650   7.267  1.7590  0.8476  0.2574
  160SAPE   C3617961   5.472   3.572   7.358 -0.4952  0.1821  0.1875
  160SAPE   H6X17962   5.511   3.664   7.405  1.0326 -0.5536  0.3991
  160SAPE   H6Y17963   5.570   3.522   7.340 -0.7005  0.9078 -3.3335
  160SAPE   C3717964   5.408   3.495   7.470 -0.6035  0.2369  0.1358
  160SAPE   H7X17965   5.488   3.470   7.544  0.7457  0.7756 -1.1202
  160SAPE   H7Y17966   5.351   3.409   7.429 -0.1698 -0.3894  0.8260
  160SAPE   C3817967   5.315   3.582   7.548  0.0022 -0.0596  0.2065
  160SAPE   H8X17968   5.231   3.620   7.486  0.9698 -1.3505 -1.9787
  160SAPE   H8Y17969   5.360   3.674   7.591 -0.2515 -0.0346  0.4163
  160SAPE   C3917970   5.255   3.514   7.676  0.1652  1.0422  0.9038
  160SAPE   H9X17971   5.327   3.501   7.760  1.8337  0.5054 -0.5983
  160SAPE   H9Y17972   5.212   3.415   7.649  2.5470 -0.7284  3.2861
  160SAPE  C31017973   5.146   3.600   7.743 -0.3607  0.6499  0.3843
  160SAPE  H10X17974   5.103   3.537   7.824  0.1875 -1.7261 -1.1117
  160SAPE  H10Y17975   5.065   3.629   7.673 -1.1005  2.0611  1.7983
  160SAPE  C31117976   5.205   3.729   7.805 -0.1329 -0.6464 -0.7062
  160SAPE  H11X17977   5.225   3.792   7.715 -0.0838 -0.9399 -0.9031
  160SAPE  H11Y17978   5.302   3.720   7.860 -1.2541  0.7614  1.5653
  160SAPE  C31217979   5.107   3.801   7.890 -0.4015  0.0420  0.6571
  160SAPE  H12X17980   5.086   3.741   7.980 -1.3116  1.7078  1.5790
  160SAPE  H12Y17981   5.007   3.822   7.846 -0.8530  2.5141  2.7125
  160SAPE  C31317982   5.162   3.930   7.957  0.7516 -0.5523  0.3766
  160SAPE  H13X17983   5.163   4.013   7.883  1.3949  0.8257  1.9096
  160SAPE  H13Y17984   5.270   3.918   7.978  1.2664  0.9600 -1.3216
  160SAPE  C31417985   5.088   3.987   8.078 -0.0702  0.0766 -0.4174
  160SAPE  H14X17986   5.090   3.909   8.156  1.4634 -0.4421 -0.9637
  160SAPE  H14Y17987   4.987   4.012   8.041  0.6820  1.2251 -1.7434
  160SAPE  C31517988   5.154   4.116   8.129  0.7376  0.2871  0.2499
  160SAPE  H15X17989   5.150   4.194   8.050 -2.7683  0.9007  0.9465
  160SAPE  H15Y17990   5.262   4.097   8.143  0.5534 -0.3798  0.7836
  160SAPE  C31617991   5.079   4.164   8.256  0.1744 -0.7794 -0.1528
  160SAPE  H16X17992   5.078   4.084   8.334  1.8658 -0.6231  0.0544
  160SAPE  H16Y17993   4.972   4.186   8.237  0.1181  0.2195  1.2649
  160SAPE  C31717994   5.149   4.288   8.310  0.7070  0.1964  0.0971
  160SAPE  H17X17995   5.129   4.365   8.233  0.9072  1.8768  1.6727
  160SAPE  H17Y17996   5.259   4.277   8.296  0.4020 -0.6383 -1.7279
  160SAPE  C31817997   5.114   4.349   8.450 -0.9872 -0.6767  0.3600
  160SAPE  H18X17998   5.140   4.268   8.522 -0.0666 -0.6180  0.0937
  160SAPE  H18Y17999   5.007   4.379   8.443 -0.5814  0.3016 -2.1535
  160SAPE  H18Z18000   5.176   4.438   8.471  0.4253 -1.5186 -0.1751
  161SAPE     N18001   1.127   1.800   6.470 -0.2529  1.1370  0.5148
  161SAPE   HN118002   1.212   1.846   6.431 -0.0093  0.5664  0.3550
  161SAPE   HN218003   1.115   1.836   6.567 -1.1106  0.0313  0.8303
  161SAPE   HN318004   1.153   1.699   6.472 -0.5638  1.0678  0.9543
  161SAPE   C1218005   0.999   1.829   6.393  0.3354  0.0180  0.1557
  161SAPE  H12A18006   0.915   1.775   6.443  1.2054 -0.8070  0.7340
  161SAPE  H12B18007   1.012   1.785   6.292 -1.4727  0.4488 -0.2984
  161SAPE   C1118008   0.987   1.981   6.368 -0.6252  0.0561  0.2261
  161SAPE  H11A18009   0.907   1.994   6.292 -0.3890  0.7119  0.0873
  161SAPE  H11B18010   1.083   2.017   6.326 -0.5394  0.5129  0.8079
  161SAPE     P18011   0.809   2.072   6.533 -0.0800 -0.2341  0.5464
  161SAPE   O1318012   0.759   2.173   6.441 -0.3554 -0.6237 -0.0590
  161SAPE   O1418013   0.738   1.943   6.538  0.2187 -0.0345  0.3336
  161SAPE   O1218014   0.961   2.055   6.488 -0.3481  0.0436  0.1647
  161SAPE   O1118015   0.825   2.144   6.671  0.0119  0.2839 -0.1398
  161SAPE    C118016   0.935   2.224   6.713 -0.2758  0.1980 -0.6336
  161SAPE    HA18017   0.983   2.277   6.627  1.3035 -0.7663 -0.3674
  161SAPE    HB18018   0.903   2.291   6.795 -1.3035  0.7741 -1.4892
  161SAPE    C218019   1.052   2.140   6.771 -0.3923  0.1135 -0.1471
  161SAPE    HS18020   1.108   2.094   6.687  2.8637 -2.0115  2.9979
  161SAPE   O2118021   0.996   2.042   6.862  0.3521  0.1161  0.1010
  161SAPE   C2118022   0.988   1.917   6.831  0.0183 -0.2516 -0.5401
  161SAPE   O2218023   1.037   1.871   6.731  0.1495  0.8475  0.2322
  161SAPE   C2218024   0.899   1.841   6.926  0.3411  0.6582 -0.3494
  161SAPE   H2R18025   0.789   1.856   6.917  0.3553  1.8276  1.1720
  161SAPE   H2S18026   0.924   1.737   6.895 -0.2561  0.3844  0.0789
  161SAPE    C318027   1.152   2.221   6.855 -0.0160  0.1135 -0.0099
  161SAPE    HX18028   1.203   2.299   6.794 -1.1233 -0.9472 -2.3494
  161SAPE    HY18029   1.232   2.152   6.887 -1.4156 -1.6867 -0.2951
  161SAPE   O3118030   1.088   2.289   6.965 -0.2182 -0.2944 -0.4663
  161SAPE   C3118031   1.101   2.233   7.089 -0.3848 -0.0116 -0.5354
  161SAPE   O3218032   1.188   2.145   7.111 -0.0259 -0.3410  0.2516
  161SAPE   C3218033   1.018   2.311   7.193  0.2101  0.1627  0.3155
  161SAPE   H2X18034   0.912   2.285   7.170 -0.5697  1.1751  2.5948
  161SAPE   H2Y18035   1.037   2.419   7.176  0.3912 -0.0426 -0.8780
  161SAPE   C2318036   0.933   1.878   7.076  0.3556 -0.0851 -0.2596
  161SAPE   H3R18037   0.895   1.981   7.097  0.9007  0.2300 -0.8128
  161SAPE   H3S18038   1.043   1.880   7.088  0.2017  0.4341  1.1837
  161SAPE   C2418039   0.871   1.777   7.179 -0.1351 -0.0164  0.0879
  161SAPE   H4R18040   0.899   1.803   7.284  0.1720  0.4480 -0.1101
  161SAPE   H4S18041   0.915   1.679   7.150  1.0046 -0.3331  2.6853
  161SAPE   C2518042   0.723   1.753   7.155  0.4960  0.5178 -0.5446
  161SAPE   H5R18043   0.692   1.688   7.072  0.9888 -3.7398  2.4668
  161SAPE   C2618044   0.622   1.794   7.235  0.5813  0.4940 -0.2283
  161SAPE   H6R18045   0.523   1.792   7.187  0.7566 -1.7409 -0.5097
  161SAPE   C2718046   0.638   1.858   7.373 -0.8477 -0.0687  0.6062
  161SAPE   H7R18047   0.628   1.968   7.364 -2.0566  0.1285  3.7351
  161SAPE   H7S18048   0.736   1.833   7.419 -0.6453  1.3257  0.9563
  161SAPE   C2818049   0.531   1.810   7.471 -0.2862 -0.9861 -0.3189
  161SAPE   H8R18050   0.450   1.748   7.432 -1.4298  1.8847 -2.6911
  161SAPE   C2918051   0.537   1.832   7.605  0.3184  0.8461 -0.1274
  161SAPE   H9R18052   0.470   1.776   7.672  1.3113  0.2351  0.3620
  161SAPE  C21018053   0.633   1.912   7.678 -0.1392  0.0306  0.4399
  161SAPE  H10R18054   0.701   1.971   7.612 -0.3973 -1.1727 -0.9182
  161SAPE  H10S18055   0.684   1.839   7.745 -1.5056 -0.3277  1.1113
  161SAPE  C21118056   0.565   2.028   7.744 -0.0476 -0.5454 -0.0599
  161SAPE  H11R18057   0.489   2.078   7.682  0.2327  1.0155  0.8363
  161SAPE  C21218058   0.580   2.077   7.864 -0.6796 -0.3055  1.4644
  161SAPE  H12R18059   0.529   2.169   7.898 -0.5455 -0.2965  1.6453
  161SAPE  C21318060   0.674   2.017   7.965 -0.4051 -0.6027  0.1405
  161SAPE  H13R18061   0.730   1.933   7.918  0.0784  0.7436 -1.7464
  161SAPE  H13S18062   0.610   1.980   8.048 -1.0403  0.0606 -0.0482
  161SAPE  C21418063   0.771   2.113   8.018  0.3690  0.2920 -0.5590
  161SAPE  H14R18064   0.869   2.121   7.969  1.6017 -0.7742  1.6539
  161SAPE  C21518065   0.762   2.188   8.125  0.4896 -0.0014 -0.5351
  161SAPE  H15R18066   0.843   2.256   8.158  0.6997 -0.2839 -0.4671
  161SAPE  C21618067   0.634   2.196   8.210  0.7308 -0.6170  0.0703
  161SAPE  H16R18068   0.612   2.095   8.251 -0.8982 -0.8342 -1.2620
  161SAPE  H16S18069   0.542   2.208   8.149  1.5987 -0.4483 -1.2266
  161SAPE  C21718070   0.645   2.291   8.330 -1.0213  0.2321 -0.8535
  161SAPE  H17R18071   0.540   2.313   8.362 -0.7119 -0.3870  0.6421
  161SAPE  H17S18072   0.695   2.388   8.315 -1.7139  0.6882 -0.2764
  161SAPE  C21818073   0.710   2.225   8.457  0.0070 -0.1323 -0.2103
  161SAPE  H18R18074   0.743   2.301   8.531 -1.8288  0.0030  0.4937
  161SAPE  H18S18075   0.804   2.175   8.423  1.0804  0.5354  1.6794
  161SAPE  C21918076   0.609   2.139   8.533 -0.3216 -0.6044 -0.2147
  161SAPE  H19R18077   0.550   2.070   8.468  0.5028 -1.6548  0.1376
  161SAPE  H19S18078   0.525   2.202   8.568 -0.6830 -1.1563 -0.0791
  161SAPE  C22018079   0.665   2.061   8.654  0.6422 -1.0606 -0.2173
  161SAPE  H20R18080   0.580   2.011   8.706  0.3413 -2.4127 -1.9516
  161SAPE  H20S18081   0.726   2.127   8.719  4.3693 -2.1087 -2.5034
  161SAPE  H20T18082   0.731   1.983   8.609  0.2351 -1.6691  0.2228
  161SAPE   C3318083   1.053   2.280   7.337 -0.2346 -0.3669 -1.0902
  161SAPE   H3X18084   1.009   2.357   7.404 -1.3121  0.0583 -2.2736
  161SAPE   H3Y18085   1.164   2.285   7.350 -0.3968 -0.0202  0.2914
  161SAPE   C3418086   1.003   2.140   7.379 -0.5395 -0.4465  0.6272
  161SAPE   H4X18087   1.020   2.068   7.296  1.5276 -0.3418  0.9191
  161SAPE   H4Y18088   0.894   2.135   7.401 -0.6713 -1.6704 -0.1982
  161SAPE   C3518089   1.072   2.082   7.505  0.0688  0.2257 -0.6709
  161SAPE   H5X18090   1.052   2.153   7.587 -1.2754  0.1383 -0.9045
  161SAPE   H5Y18091   1.181   2.082   7.488 -0.1226 -1.1732 -2.0563
  161SAPE   C3618092   1.018   1.939   7.544 -0.4456  0.2298 -0.6139
  161SAPE   H6X18093   1.075   1.860   7.491 -0.1756 -0.8009  1.1729
  161SAPE   H6Y18094   0.910   1.939   7.520 -0.8163 -0.1729  1.0392
  161SAPE   C3718095   1.032   1.915   7.697 -0.5605  0.2658  0.3184
  161SAPE   H7X18096   0.969   1.981   7.761 -2.7685 -0.2701 -1.2394
  161SAPE   H7Y18097   1.136   1.928   7.733  0.5702 -1.5419 -2.1534
  161SAPE   C3818098   0.969   1.778   7.727 -0.0956 -0.6161 -0.0651
  161SAPE   H8X18099   1.025   1.705   7.665  1.0249 -3.0143  3.6492
  161SAPE   H8Y18100   0.866   1.772   7.685 -0.1589 -0.6348  0.0915
  161SAPE   C3918101   0.985   1.747   7.872 -0.1410 -0.5622  0.7408
  161SAPE   H9X18102   0.949   1.838   7.926 -1.2904 -1.6712  1.8628
  161SAPE   H9Y18103   1.092   1.724   7.893  0.4299  0.4205 -1.0088
  161SAPE  C31018104   0.900   1.629   7.918  0.1110 -0.8215 -0.2810
  161SAPE  H10X18105   0.957   1.543   7.878  1.0582 -0.3560  0.0737
  161SAPE  H10Y18106   0.804   1.618   7.862  0.1212 -0.0541 -0.4553
  161SAPE  C31118107   0.890   1.632   8.063  0.2643  0.8073  0.1093
  161SAPE  H11X18108   0.843   1.719   8.113 -0.9593  0.7290 -0.8730
  161SAPE  H11Y18109   0.990   1.611   8.108 -1.4903 -1.3736  3.2675
  161SAPE  C31218110   0.806   1.513   8.110 -0.3137  0.6405 -0.3788
  161SAPE  H12X18111   0.866   1.431   8.064 -2.5739  0.3203 -2.8663
  161SAPE  H12Y18112   0.704   1.500   8.069 -1.0913  3.0437  0.7515
  161SAPE  C31318113   0.795   1.504   8.268  0.6822 -0.2183  0.3571
  161SAPE  H13X18114   0.902   1.510   8.298  1.7802 -1.7007 -3.0345
  161SAPE  H13Y18115   0.751   1.407   8.297  3.2489 -1.5113 -0.0086
  161SAPE  C31418116   0.718   1.619   8.328  0.5811 -0.0976 -0.5944
  161SAPE  H14X18117   0.618   1.619   8.280  0.1737  0.3642  0.2350
  161SAPE  H14Y18118   0.760   1.718   8.298  0.8996 -0.4744 -1.3893
  161SAPE  C31518119   0.704   1.617   8.486  0.2219  0.5395 -0.2789
  161SAPE  H15X18120   0.624   1.693   8.502 -0.4147 -0.4211  1.2222
  161SAPE  H15Y18121   0.802   1.639   8.532 -0.6277  4.4757 -0.2383
  161SAPE  C31618122   0.649   1.484   8.545 -0.7268 -0.2964 -0.0952
  161SAPE  H16X18123   0.661   1.480   8.656  0.5152 -1.0093 -0.2561
  161SAPE  H16Y18124   0.711   1.399   8.508 -1.3840 -0.2251 -1.3853
  161SAPE  C31718125   0.504   1.453   8.519 -0.6916 -0.1183  0.2130
  161SAPE  H17X18126   0.486   1.453   8.409  0.2506  0.0775  0.0594
  161SAPE  H17Y18127   0.457   1.542   8.565  0.7011  0.1120  1.2010
  161SAPE  C31818128   0.449   1.324   8.588 -0.5293 -0.2356 -0.1770
  161SAPE  H18X18129   0.491   1.239   8.530  1.6427  1.9110 -1.8697
  161SAPE  H18Y18130   0.338   1.333   8.589 -0.4928  0.2930 -0.7936
  161SAPE  H18Z18131   0.498   1.301   8.685  0.3686 -1.5354 -0.9138
  162SAPE     N18132   0.236   4.260   6.038 -0.4514 -0.4898  0.3525
  162SAPE   HN118133   0.179   4.175   6.058  1.8798 -1.9339  1.1524
  162SAPE   HN218134   0.164   4.327   6.005 -0.4356  0.5898  2.4255
  162SAPE   HN318135   0.297   4.242   5.955 -1.6475 -1.0481 -0.4239
  162SAPE   C1218136   0.299   4.317   6.161  0.1726 -0.0348  0.0827
  162SAPE  H12A18137   0.338   4.418   6.134  1.7148 -0.9148 -1.0479
  162SAPE  H12B18138   0.367   4.239   6.202  0.8033 -1.0622 -2.8180
  162SAPE   C1118139   0.186   4.347   6.261  0.4329 -0.2979 -0.0760
  162SAPE  H11A18140   0.220   4.406   6.348  1.0569 -0.1399 -0.4247
  162SAPE  H11B18141   0.152   4.247   6.297 -1.8417  1.1325  1.8657
  162SAPE     P18142   0.074   4.578   6.212 -0.7319 -0.2316 -0.1198
  162SAPE   O1318143   0.210   4.634   6.211  0.2149  1.0232 -0.5048
  162SAPE   O1418144  -0.006   4.631   6.097  0.3699  0.0080 -0.3399
  162SAPE   O1218145   0.079   4.421   6.201  0.3174  0.0865  0.0741
  162SAPE   O1118146   0.006   4.614   6.349 -0.2947  0.4721 -0.0191
  162SAPE    C118147  -0.121   4.678   6.363 -0.2621  0.1762 -0.7267
  162SAPE    HA18148  -0.103   4.776   6.411  0.3108  0.2425 -1.0811
  162SAPE    HB18149  -0.165   4.703   6.264 -0.2474  0.3218 -0.6962
  162SAPE    C218150  -0.222   4.589   6.439  0.0981  0.8515  0.7204
  162SAPE    HS18151  -0.321   4.608   6.394 -1.1999 -1.4605  2.4842
  162SAPE   O2118152  -0.213   4.611   6.578  0.1414 -0.1965  0.0479
  162SAPE   C2118153  -0.322   4.630   6.652 -0.3947  0.0194 -0.1646
  162SAPE   O2218154  -0.437   4.630   6.618  0.0030  0.1079  0.1932
  162SAPE   C2218155  -0.279   4.627   6.798  0.1969 -1.2922 -0.3447
  162SAPE   H2R18156  -0.168   4.613   6.799  0.3808  0.1245 -0.0147
  162SAPE   H2S18157  -0.297   4.729   6.837  1.7680 -0.5138 -1.5859
  162SAPE    C318158  -0.181   4.433   6.410  0.7747 -0.4817  0.5437
  162SAPE    HX18159  -0.083   4.418   6.460  2.2692  1.0005 -1.8226
  162SAPE    HY18160  -0.153   4.402   6.307  0.6421 -0.4031  0.4844
  162SAPE   O3118161  -0.279   4.345   6.474  0.4795  0.9538 -0.0466
  162SAPE   C3118162  -0.391   4.332   6.415  0.0126 -0.0694  0.6578
  162SAPE   O3218163  -0.408   4.347   6.300 -0.1692  0.0375 -0.3794
  162SAPE   C3218164  -0.490   4.269   6.500  0.2126 -0.1831  0.5941
  162SAPE   H2X18165  -0.445   4.247   6.599  0.5869  0.0584  0.4809
  162SAPE   H2Y18166  -0.521   4.175   6.449  0.5523  0.5482 -0.9934
  162SAPE   C2318167  -0.364   4.518   6.872 -0.4637 -0.6106 -0.0979
  162SAPE   H3R18168  -0.348   4.428   6.810  0.7462 -0.2951 -0.2415
  162SAPE   H3S18169  -0.471   4.548   6.867 -0.1147  1.2117  2.1300
  162SAPE   C2418170  -0.330   4.510   7.026  0.4710 -0.2710 -0.3159
  162SAPE   H4R18171  -0.346   4.613   7.064  0.5226 -0.8186  1.2076
  162SAPE   H4S18172  -0.221   4.491   7.038  0.6432 -0.1128 -1.5573
  162SAPE   C2518173  -0.415   4.408   7.103  0.2887  0.3843 -0.2577
  162SAPE   H5R18174  -0.412   4.308   7.057  1.4111  0.3888 -0.2059
  162SAPE   C2618175  -0.484   4.434   7.214 -0.2598 -0.1652  0.5218
  162SAPE   H6R18176  -0.534   4.350   7.265 -0.5679  0.1290  0.7102
  162SAPE   C2718177  -0.485   4.570   7.284  0.3958  0.2919  0.1728
  162SAPE   H7R18178  -0.508   4.645   7.205  2.6646  1.3447  0.4536
  162SAPE   H7S18179  -0.378   4.588   7.308  0.5348  0.1011 -0.2962
  162SAPE   C2818180  -0.570   4.584   7.413  0.1954 -0.2588 -0.5551
  162SAPE   H8R18181  -0.679   4.602   7.406  0.5562  2.1847 -0.4281
  162SAPE   C2918182  -0.518   4.577   7.532  0.7260  0.2412  0.8540
  162SAPE   H9R18183  -0.584   4.573   7.620 -0.9912 -1.2967 -0.4668
  162SAPE  C21018184  -0.376   4.555   7.573  0.1075  0.0836  0.1232
  162SAPE  H10R18185  -0.363   4.608   7.670 -2.4742  0.9788  0.0120
  162SAPE  H10S18186  -0.296   4.598   7.508  0.2896  0.3704  0.5309
  162SAPE  C21118187  -0.340   4.402   7.587 -0.2759 -0.2763  0.6980
  162SAPE  H11R18188  -0.348   4.352   7.489  2.2845 -1.9952  1.3021
  162SAPE  C21218189  -0.310   4.339   7.705 -0.2104 -0.3226 -0.0263
  162SAPE  H12R18190  -0.295   4.230   7.704 -3.4128 -0.8087 -1.8164
  162SAPE  C21318191  -0.301   4.406   7.841 -0.1369 -0.1046  0.6438
  162SAPE  H13R18192  -0.402   4.442   7.869 -0.3600  0.9912 -1.4368
  162SAPE  H13S18193  -0.234   4.495   7.835  0.1106 -0.2880  0.6592
  162SAPE  C21418194  -0.262   4.304   7.950 -0.8369 -0.3039 -0.0015
  162SAPE  H14R18195  -0.325   4.213   7.949  0.1443 -0.9892 -2.3772
  162SAPE  C21518196  -0.163   4.316   8.041  0.2792 -0.3650 -0.0827
  162SAPE  H15R18197  -0.158   4.237   8.116 -2.6296 -2.8611 -2.3535
  162SAPE  C21618198  -0.066   4.433   8.061 -0.1529  0.2349  0.3797
  162SAPE  H16R18199  -0.083   4.529   8.008  0.0106 -0.4325 -0.9004
  162SAPE  H16S18200   0.034   4.393   8.035 -0.8227 -1.4710  0.3184
  162SAPE  C21718201  -0.069   4.456   8.218 -0.0524 -0.0002 -0.1674
  162SAPE  H17R18202   0.035   4.478   8.251 -0.2119 -1.6383  1.5194
  162SAPE  H17S18203  -0.083   4.363   8.278  1.2266 -0.6701 -0.9037
  162SAPE  C21818204  -0.164   4.558   8.279  0.6719  0.2885 -0.0734
  162SAPE  H18R18205  -0.265   4.512   8.279  0.1630  1.2927  2.9664
  162SAPE  H18S18206  -0.174   4.649   8.217 -0.0914  0.0373 -0.3252
  162SAPE  C21918207  -0.133   4.588   8.429  0.4234 -0.3788  0.3821
  162SAPE  H19R18208  -0.144   4.496   8.492 -1.4832 -0.6922 -0.3671
  162SAPE  H19S18209  -0.216   4.657   8.454  0.0198 -0.0466 -1.8090
  162SAPE  C22018210   0.005   4.649   8.461 -0.1437  1.1825 -0.3971
  162SAPE  H20R18211   0.011   4.661   8.572 -3.3963 -2.1531  0.2540
  162SAPE  H20S18212   0.027   4.746   8.412 -1.3034  1.8715  0.4173
  162SAPE  H20T18213   0.088   4.579   8.434  0.6299  1.8001  0.3486
  162SAPE   C3318214  -0.620   4.358   6.508  0.2787  0.4944  0.3908
  162SAPE   H3X18215  -0.659   4.370   6.404  0.1672 -1.9458  0.1224
  162SAPE   H3Y18216  -0.595   4.452   6.561 -0.6963 -0.2851  2.2500
  162SAPE   C3418217  -0.733   4.292   6.607  0.4909 -0.4487 -0.2630
  162SAPE   H4X18218  -0.749   4.187   6.575  0.6070 -0.7525  0.6603
  162SAPE   H4Y18219  -0.822   4.356   6.592  0.4139 -0.1988  1.1593
  162SAPE   C3518220  -0.697   4.302   6.756  0.1993  0.3965 -1.3598
  162SAPE   H5X18221  -0.688   4.407   6.792  0.8166  0.5312 -1.8969
  162SAPE   H5Y18222  -0.594   4.261   6.769 -0.5280 -0.1054  3.9123
  162SAPE   C3618223  -0.787   4.203   6.841 -0.4882 -0.6616  1.1612
  162SAPE   H6X18224  -0.795   4.096   6.811  1.1412 -0.6439  0.5648
  162SAPE   H6Y18225  -0.891   4.240   6.827 -0.0624 -0.4492 -2.0142
  162SAPE   C3718226  -0.757   4.196   6.987  0.0659 -0.2714  0.2543
  162SAPE   H7X18227  -0.760   4.299   7.027 -0.5282 -0.5191  0.8416
  162SAPE   H7Y18228  -0.655   4.153   7.000  0.5889  0.4598 -1.2331
  162SAPE   C3818229  -0.843   4.102   7.070 -0.1393 -0.1971 -0.0911
  162SAPE   H8X18230  -0.843   4.002   7.021 -2.2347 -0.7232  0.9023
  162SAPE   H8Y18231  -0.945   4.138   7.048 -0.2639 -1.5290 -1.7798
  162SAPE   C3918232  -0.800   4.088   7.220  0.2732 -0.0821  0.5332
  162SAPE   H9X18233  -0.881   4.023   7.258  0.8249 -0.2965  1.3616
  162SAPE   H9Y18234  -0.814   4.184   7.274 -2.1506 -0.3468  0.4185
  162SAPE  C31018235  -0.659   4.024   7.242 -0.4483  0.0359 -0.1833
  162SAPE  H10X18236  -0.576   4.094   7.222 -0.0380 -1.0176 -2.2494
  162SAPE  H10Y18237  -0.670   3.937   7.174 -1.4190 -1.5763  1.9467
  162SAPE  C31118238  -0.645   3.968   7.385  0.0498  0.2691 -0.3158
  162SAPE  H11X18239  -0.565   3.891   7.377  1.0611  1.4291 -1.7563
  162SAPE  H11Y18240  -0.738   3.918   7.418  1.0884 -3.0660 -2.2507
  162SAPE  C31218241  -0.633   4.078   7.491 -0.2069  0.0148  0.2400
  162SAPE  H12X18242  -0.729   4.132   7.503  1.3997  2.4883  2.6315
  162SAPE  H12Y18243  -0.570   4.158   7.446  1.3335 -2.8991 -3.0163
  162SAPE  C31318244  -0.580   4.030   7.626 -0.0644 -0.3419 -0.4028
  162SAPE  H13X18245  -0.470   4.022   7.618  0.0423 -1.7585  1.8951
  162SAPE  H13Y18246  -0.617   3.926   7.642 -1.6230 -0.0451 -1.8140
  162SAPE  C31418247  -0.639   4.102   7.752  0.4253 -0.1935  0.7115
  162SAPE  H14X18248  -0.748   4.125   7.755  0.2942 -0.7180  0.1607
  162SAPE  H14Y18249  -0.580   4.196   7.751 -0.1089  0.1415  0.0046
  162SAPE  C31518250  -0.603   4.021   7.880 -0.1978  1.7619  1.0720
  162SAPE  H15X18251  -0.513   3.961   7.857 -1.1518  1.3223 -1.6337
  162SAPE  H15Y18252  -0.684   3.946   7.895  0.5413  0.6131 -0.6124
  162SAPE  C31618253  -0.590   4.101   8.005 -0.5536 -1.0726  0.3641
  162SAPE  H16X18254  -0.687   4.146   8.033  0.0865  1.6562 -1.6339
  162SAPE  H16Y18255  -0.513   4.177   7.979 -0.7142 -0.6326  1.1307
  162SAPE  C31718256  -0.520   4.020   8.113  0.1762  0.4046  0.9468
  162SAPE  H17X18257  -0.432   3.970   8.068 -0.5712 -1.4061  1.4279
  162SAPE  H17Y18258  -0.587   3.935   8.140 -0.8364  0.9950  0.3121
  162SAPE  C31818259  -0.474   4.099   8.240  0.0050 -0.0379 -0.0849
  162SAPE  H18X18260  -0.392   4.170   8.216 -1.0783  0.6754 -1.7395
  162SAPE  H18Y18261  -0.432   4.025   8.312  0.6265 -2.0119 -2.4282
  162SAPE  H18Z18262  -0.561   4.154   8.283 -0.4314 -0.5091 -0.3609
  163SAPE     N18263   5.252   2.508   6.668 -0.3497 -0.0277  0.4540
  163SAPE   HN118264   5.209   2.558   6.587 -0.8448 -1.8358 -0.4374
  163SAPE   HN218265   5.355   2.517   6.673 -0.4454  0.2158  2.6671
  163SAPE   HN318266   5.244   2.406   6.645  1.6033 -0.0335 -0.2850
  163SAPE   C1218267   5.177   2.554   6.793 -0.1244 -0.8190 -1.0614
  163SAPE  H12A18268   5.157   2.664   6.792 -3.7490 -1.4152 -1.4637
  163SAPE  H12B18269   5.232   2.521   6.884  2.3790 -0.6912 -2.4869
  163SAPE   C1118270   5.033   2.506   6.809  0.1569 -0.6109  0.4605
  163SAPE  H11A18271   4.983   2.561   6.891  0.1791 -1.2916  0.9331
  163SAPE  H11B18272   5.036   2.399   6.841  1.0377 -0.9279 -0.6474
  163SAPE     P18273   4.856   2.636   6.674 -0.2177 -0.1865  0.1525
  163SAPE   O1318274   4.914   2.757   6.740 -0.4198  0.2134 -0.2883
  163SAPE   O1418275   4.814   2.649   6.535 -0.0641  0.2171 -0.1815
  163SAPE   O1218276   4.962   2.523   6.684  0.3002 -0.0459 -0.7135
  163SAPE   O1118277   4.736   2.585   6.758 -0.2589 -0.2651 -0.3889
  163SAPE    C118278   4.640   2.656   6.836  0.0171  0.1042 -0.4388
  163SAPE    HA18279   4.655   2.765   6.826 -0.1108  0.1374 -0.2566
  163SAPE    HB18280   4.537   2.635   6.801 -1.0209  1.8495  1.4769
  163SAPE    C218281   4.646   2.623   6.986  0.5569  0.3877  0.9380
  163SAPE    HS18282   4.574   2.686   7.043 -1.0667 -0.3188 -0.3022
  163SAPE   O2118283   4.781   2.650   7.021 -0.2882  0.3237 -0.5309
  163SAPE   C2118284   4.810   2.771   7.044 -0.1266 -0.2798  0.2904
  163SAPE   O2218285   4.738   2.870   7.026  0.2328 -0.1936 -0.1715
  163SAPE   C2218286   4.949   2.784   7.114  0.6007 -0.5832  0.4049
  163SAPE   H2R18287   5.020   2.773   7.030 -1.5122 -1.2870 -1.3458
  163SAPE   H2S18288   4.956   2.879   7.172  0.2683  1.0707 -2.1888
  163SAPE    C318289   4.628   2.469   7.011  0.2774 -0.0409  0.5680
  163SAPE    HX18290   4.702   2.424   6.942 -1.5060 -2.3400  0.0786
  163SAPE    HY18291   4.522   2.439   6.995 -0.0855  1.3778  0.2561
  163SAPE   O3118292   4.662   2.436   7.151 -0.4535  0.3460 -0.1021
  163SAPE   C3118293   4.575   2.473   7.243 -0.3306  0.3148  0.5154
  163SAPE   O3218294   4.473   2.542   7.228  0.3031 -0.2268 -0.0567
  163SAPE   C3218295   4.628   2.429   7.377  1.0020  0.0419  0.4773
  163SAPE   H2X18296   4.719   2.490   7.394  0.8080  0.2591  0.7236
  163SAPE   H2Y18297   4.658   2.322   7.371  3.0436  0.7190 -2.1910
  163SAPE   C2318298   4.976   2.670   7.212 -0.9296 -0.1219 -0.6123
  163SAPE   H3R18299   4.943   2.576   7.163  0.4281 -1.4832  1.0212
  163SAPE   H3S18300   4.898   2.675   7.291 -1.8889  0.8491 -1.6025
  163SAPE   C2418301   5.123   2.660   7.267  0.2084  0.3203 -0.0831
  163SAPE   H4R18302   5.194   2.656   7.181 -0.5835  1.8039 -0.8283
  163SAPE   H4S18303   5.122   2.563   7.320  0.2267  0.2689 -0.1763
  163SAPE   C2518304   5.157   2.773   7.361 -0.1461  0.0419 -0.3134
  163SAPE   H5R18305   5.173   2.865   7.302  0.2217 -0.9513 -1.7866
  163SAPE   C2618306   5.146   2.769   7.495  0.2747 -0.1894  0.2640
  163SAPE   H6R18307   5.176   2.857   7.554 -0.1221 -1.1143  1.8856
  163SAPE   C2718308   5.120   2.648   7.578  0.3342  0.4532 -0.7221
  163SAPE   H7R18309   5.183   2.644   7.670  1.1985  1.0523 -1.2803
  163SAPE   H7S18310   5.158   2.555   7.529 -0.0013 -0.9569  1.6010
  163SAPE   C2818311   4.971   2.643   7.601  0.5344  0.4660  0.2349
  163SAPE   H8R18312   4.915   2.657   7.508  0.5711 -2.4695 -0.2985
  163SAPE   C2918313   4.909   2.632   7.717  0.2181  0.2269 -0.3137
  163SAPE   H9R18314   4.799   2.640   7.716 -0.1836 -4.1890 -0.2915
  163SAPE  C21018315   4.981   2.628   7.851 -0.6160  0.6170 -0.1049
  163SAPE  H10R18316   5.000   2.736   7.872 -4.3975  2.0648 -3.3613
  163SAPE  H10S18317   5.076   2.571   7.847 -1.1784 -0.2825 -0.6554
  163SAPE  C21118318   4.888   2.567   7.960  0.5008  0.4576 -0.4412
  163SAPE  H11R18319   4.797   2.516   7.926  0.8977 -1.4043  1.2185
  163SAPE  C21218320   4.909   2.579   8.092 -0.2061  0.2117 -0.4661
  163SAPE  H12R18321   4.843   2.531   8.166  1.9077 -1.2815  0.5361
  163SAPE  C21318322   5.021   2.650   8.164  0.4544  0.3270 -0.7301
  163SAPE  H13R18323   5.000   2.644   8.272  0.1766 -0.7489 -0.8421
  163SAPE  H13S18324   5.015   2.758   8.138 -0.4839  0.8070  1.3965
  163SAPE  C21418325   5.162   2.599   8.133 -0.2720 -0.0627  0.1601
  163SAPE  H14R18326   5.159   2.514   8.063 -2.4147  1.1049 -1.2245
  163SAPE  C21518327   5.279   2.664   8.174  0.0852  0.5939  0.0273
  163SAPE  H15R18328   5.377   2.615   8.160 -0.3394 -0.2411 -0.0468
  163SAPE  C21618329   5.290   2.787   8.272  0.4568 -0.0316 -0.3199
  163SAPE  H16R18330   5.205   2.857   8.258  1.0948  0.8137 -0.0234
  163SAPE  H16S18331   5.377   2.852   8.249  3.0603 -2.5886  2.0170
  163SAPE  C21718332   5.296   2.746   8.427  0.1601  0.3134 -0.3589
  163SAPE  H17R18333   5.198   2.696   8.442  0.4219  0.2575  1.2267
  163SAPE  H17S18334   5.292   2.826   8.504 -1.2614 -1.4530  1.4839
  163SAPE  C21818335   5.411   2.650   8.477  0.5382  0.0032  0.4222
  163SAPE  H18R18336   5.509   2.702   8.467  0.5279 -0.3396 -1.6662
  163SAPE  H18S18337   5.408   2.557   8.416  2.4884 -1.0641  1.9061
  163SAPE  C21918338   5.387   2.595   8.619  0.9308  0.2177  0.4408
  163SAPE  H19R18339   5.300   2.527   8.614 -0.0457  1.5205 -1.3814
  163SAPE  H19S18340   5.357   2.688   8.672  1.1498 -0.8391  2.4638
  163SAPE  C22018341   5.508   2.523   8.678 -0.4991 -0.4361  0.5436
  163SAPE  H20R18342   5.600   2.583   8.696 -0.3539 -0.7181  0.7405
  163SAPE  H20S18343   5.533   2.433   8.618  2.0732  0.7811 -0.3045
  163SAPE  H20T18344   5.490   2.492   8.783  0.8473  0.7265  1.1347
  163SAPE   C3318345   4.530   2.449   7.487 -0.3110  0.3623  0.3398
  163SAPE   H3X18346   4.439   2.395   7.455  0.5308 -0.6419 -0.4086
  163SAPE   H3Y18347   4.494   2.553   7.500 -0.8385  0.2425 -0.1357
  163SAPE   C3418348   4.578   2.374   7.613  0.5204 -0.5356 -0.2025
  163SAPE   H4X18349   4.680   2.412   7.635  0.0726  1.1771 -1.0320
  163SAPE   H4Y18350   4.595   2.265   7.601 -1.4985 -0.8429 -0.4137
  163SAPE   C3518351   4.487   2.400   7.733  0.0516 -0.0777  0.6042
  163SAPE   H5X18352   4.494   2.504   7.771 -2.0390 -0.2643  1.5729
  163SAPE   H5Y18353   4.529   2.337   7.815  0.6043 -3.0134 -1.8306
  163SAPE   C3618354   4.329   2.371   7.719 -0.3101 -0.3399 -0.6881
  163SAPE   H6X18355   4.313   2.266   7.687  1.9807 -0.4722 -1.5079
  163SAPE   H6Y18356   4.300   2.438   7.635  0.1765 -0.4461 -0.9470
  163SAPE   C3718357   4.251   2.421   7.842  0.1185 -0.0162  0.2862
  163SAPE   H7X18358   4.147   2.414   7.803 -0.1896 -2.1802  1.4218
  163SAPE   H7Y18359   4.270   2.528   7.863 -0.5528  0.0986  0.3087
  163SAPE   C3818360   4.265   2.323   7.956 -0.1343  0.1086 -0.8247
  163SAPE   H8X18361   4.368   2.327   7.998 -0.6082  0.0002  0.3873
  163SAPE   H8Y18362   4.246   2.225   7.907  1.3845 -0.8818  0.4806
  163SAPE   C3918363   4.163   2.342   8.067  0.3646  0.1809 -0.2541
  163SAPE   H9X18364   4.165   2.269   8.150  0.6271  1.6293  1.0504
  163SAPE   H9Y18365   4.060   2.333   8.028 -0.2696  1.3898  1.0640
  163SAPE  C31018366   4.187   2.471   8.147  0.4927  0.1804 -0.4683
  163SAPE  H10X18367   4.171   2.559   8.082 -1.0312 -1.3873 -2.2548
  163SAPE  H10Y18368   4.292   2.453   8.181  0.3334  0.9653  0.4763
  163SAPE  C31118369   4.105   2.488   8.277  0.0468  0.2549 -0.5675
  163SAPE  H11X18370   4.004   2.444   8.258  0.3004 -0.2173 -0.8418
  163SAPE  H11Y18371   4.086   2.592   8.310 -3.2150 -0.9971  1.7545
  163SAPE  C31218372   4.177   2.423   8.399 -0.4325 -0.6333  0.0797
  163SAPE  H12X18373   4.207   2.321   8.366  0.6976 -0.3487  0.2044
  163SAPE  H12Y18374   4.097   2.410   8.475  1.3047  0.1120  2.0482
  163SAPE  C31318375   4.286   2.515   8.469 -0.2367  0.5078  0.3512
  163SAPE  H13X18376   4.238   2.615   8.479 -0.7362  0.3700 -0.6809
  163SAPE  H13Y18377   4.376   2.523   8.404 -0.7676 -0.6270 -0.5262
  163SAPE  C31418378   4.311   2.474   8.606  0.0315 -0.2114  0.0832
  163SAPE  H14X18379   4.334   2.367   8.625 -1.5728 -0.6246 -0.2296
  163SAPE  H14Y18380   4.223   2.491   8.673  1.5424 -2.1650  2.6604
  163SAPE  C31518381   4.444   2.529   8.668  0.3084  0.1866 -0.2118
  163SAPE  H15X18382   4.450   2.639   8.657 -0.7197  0.0001 -2.9368
  163SAPE  H15Y18383   4.525   2.482   8.609 -2.9242 -3.2449 -2.1399
  163SAPE  C31618384   4.450   2.495   8.822 -0.3431  0.5270 -0.2459
  163SAPE  H16X18385   4.347   2.484   8.863  0.2860 -2.2429  0.7102
  163SAPE  H16Y18386   4.501   2.580   8.873 -0.1360 -1.6923  3.4054
  163SAPE  C31718387   4.545   2.369   8.845  0.2782 -0.5033 -0.5237
  163SAPE  H17X18388   4.651   2.391   8.822  0.4082 -0.6320 -0.0444
  163SAPE  H17Y18389   4.509   2.292   8.773  1.0601  1.5947 -3.2312
  163SAPE  C31818390   4.530   2.310   8.982  0.2169  0.1468  0.2078
  163SAPE  H18X18391   4.426   2.273   8.998  0.5287 -0.9498 -0.2110
  163SAPE  H18Y18392   4.538   2.383   9.065  0.3725 -1.4497  1.6293
  163SAPE  H18Z18393   4.611   2.237   9.007  2.2152  2.4043  0.4504
  164SAPE     N18394   1.219   6.786   6.022  0.4896 -0.1715 -0.1951
  164SAPE   HN118395   1.209   6.834   5.930 -2.1454 -2.5605 -1.2195
  164SAPE   HN218396   1.155   6.844   6.080  1.8876  0.7149  0.4764
  164SAPE   HN318397   1.317   6.802   6.052  1.0346 -0.3775 -1.8013
  164SAPE   C1218398   1.176   6.642   6.026  0.4283 -1.1487  0.5271
  164SAPE  H12A18399   1.142   6.626   6.130  2.1485  0.0714  1.2946
  164SAPE  H12B18400   1.268   6.592   5.988 -0.3149 -1.1628 -1.3297
  164SAPE   C1118401   1.046   6.632   5.937  0.0743 -1.1409 -0.1573
  164SAPE  H11A18402   1.058   6.666   5.831 -2.6354 -0.7609 -0.3658
  164SAPE  H11B18403   0.971   6.696   5.988  0.8756 -1.0297  0.9069
  164SAPE     P18404   0.889   6.435   6.018 -0.6460 -0.0301  0.0863
  164SAPE   O1318405   0.763   6.490   5.969 -0.0914 -0.3664  0.0818
  164SAPE   O1418406   0.905   6.285   6.014 -0.4650 -0.2385  0.3468
  164SAPE   O1218407   1.006   6.500   5.936  0.2389  0.6439  0.5589
  164SAPE   O1118408   0.912   6.481   6.165  0.0949  0.1481 -0.3674
  164SAPE    C118409   0.822   6.575   6.225 -0.3999 -0.2714 -0.4750
  164SAPE    HA18410   0.849   6.678   6.192 -2.3082 -0.1129 -1.6112
  164SAPE    HB18411   0.718   6.548   6.196  0.0644 -1.6558 -0.8912
  164SAPE    C218412   0.835   6.557   6.379  0.4726  0.2584  0.8665
  164SAPE    HS18413   0.771   6.633   6.427  0.0608  0.1114  0.5510
  164SAPE   O2118414   0.975   6.559   6.430  1.1535 -0.2328  0.1237
  164SAPE   C2118415   1.028   6.679   6.439  0.5534 -0.7947  0.4836
  164SAPE   O2218416   0.981   6.786   6.418  0.4154  0.2204  0.0308
  164SAPE   C2218417   1.173   6.672   6.475 -0.3449  0.4224 -0.2335
  164SAPE   H2R18418   1.218   6.581   6.431 -0.7707  1.0251 -1.9716
  164SAPE   H2S18419   1.218   6.766   6.437 -0.8592  0.2307 -1.3321
  164SAPE    C318420   0.772   6.420   6.424  0.0033 -0.2765  1.1155
  164SAPE    HX18421   0.837   6.339   6.384 -1.7178 -1.5145  0.7771
  164SAPE    HY18422   0.670   6.400   6.385  0.5612  2.1747 -1.7920
  164SAPE   O3118423   0.779   6.414   6.564  1.0321 -0.1795 -0.0888
  164SAPE   C3118424   0.668   6.472   6.625  0.3167 -0.6044 -0.1261
  164SAPE   O3218425   0.571   6.504   6.568  0.6751 -0.3284 -0.1881
  164SAPE   C3218426   0.702   6.488   6.776 -0.4118  0.2582 -0.4289
  164SAPE   H2X18427   0.810   6.514   6.780 -0.0409 -1.0635 -1.3057
  164SAPE   H2Y18428   0.692   6.384   6.815  0.6408  0.4677  0.4305
  164SAPE   C2318429   1.197   6.675   6.626 -0.7447  0.5968 -0.2470
  164SAPE   H3R18430   1.135   6.755   6.670  0.5526  2.8516 -2.3650
  164SAPE   H3S18431   1.306   6.695   6.636 -0.8269  0.6596  0.4878
  164SAPE   C2418432   1.159   6.539   6.687 -0.7954 -0.0910 -0.0751
  164SAPE   H4R18433   1.200   6.469   6.611 -2.4891  1.1539 -2.1790
  164SAPE   H4S18434   1.052   6.510   6.689 -0.3687 -2.2121 -3.5591
  164SAPE   C2518435   1.220   6.522   6.828  0.9400  0.4212  0.2250
  164SAPE   H5R18436   1.283   6.432   6.830  0.9675  0.4280 -0.3587
  164SAPE   C2618437   1.203   6.594   6.943 -0.3236  0.0602 -0.1689
  164SAPE   H6R18438   1.264   6.560   7.028 -0.8364  1.7511  0.9085
  164SAPE   C2718439   1.103   6.709   6.960  0.7511  0.0056  0.0969
  164SAPE   H7R18440   1.036   6.709   6.872  0.1737 -1.2214  0.5304
  164SAPE   H7S18441   1.157   6.806   6.970 -0.8833  0.9573 -0.2311
  164SAPE   C2818442   1.018   6.673   7.079 -0.6358 -1.1825  0.4017
  164SAPE   H8R18443   0.968   6.576   7.064  0.8746 -1.6718 -1.8108
  164SAPE   C2918444   0.997   6.743   7.190 -0.0656  0.3061  0.3445
  164SAPE   H9R18445   0.938   6.709   7.276 -0.9875  0.6529 -0.1460
  164SAPE  C21018446   1.058   6.878   7.216 -0.1184  0.0936  0.3310
  164SAPE  H10R18447   0.974   6.946   7.240 -0.5658  0.0759 -1.1786
  164SAPE  H10S18448   1.104   6.927   7.128 -0.0273 -1.0768 -0.2837
  164SAPE  C21118449   1.151   6.884   7.333  0.4328  0.1896  0.4630
  164SAPE  H11R18450   1.255   6.865   7.301 -0.3620 -1.3245 -1.3363
  164SAPE  C21218451   1.132   6.907   7.461 -0.0675 -0.0943  0.5393
  164SAPE  H12R18452   1.219   6.906   7.528 -0.1881 -0.4322  0.6943
  164SAPE  C21318453   1.008   6.940   7.540  0.2871  1.0415  0.1392
  164SAPE  H13R18454   1.019   6.892   7.640 -0.3025 -0.4813 -0.5077
  164SAPE  H13S18455   0.932   6.894   7.473  0.3228  3.9869 -2.0360
  164SAPE  C21418456   0.984   7.092   7.551 -0.1077  0.4034 -0.2969
  164SAPE  H14R18457   1.017   7.158   7.469  1.4462 -0.5021 -0.4393
  164SAPE  C21518458   0.936   7.156   7.660 -0.3988  0.3885  0.4305
  164SAPE  H15R18459   0.909   7.261   7.644 -1.0937  0.3867  1.4978
  164SAPE  C21618460   0.904   7.100   7.790  0.0042 -1.3195 -1.2057
  164SAPE  H16R18461   0.933   6.993   7.798  2.0297 -0.8790 -2.2257
  164SAPE  H16S18462   0.797   7.106   7.818 -0.0131 -0.8691 -1.3785
  164SAPE  C21718463   0.993   7.141   7.909  0.1231 -0.2327 -0.8482
  164SAPE  H17R18464   0.957   7.238   7.949  0.2221  0.4896 -2.4888
  164SAPE  H17S18465   1.094   7.180   7.884 -0.2198  1.1152 -0.1542
  164SAPE  C21818466   0.978   7.051   8.027 -0.0457 -0.5974  0.4675
  164SAPE  H18R18467   1.037   6.960   8.005  0.9457  0.6276 -2.2021
  164SAPE  H18S18468   0.872   7.018   8.026  0.2519 -1.5131 -0.7466
  164SAPE  C21918469   1.004   7.116   8.161  0.3702  0.2857 -0.6179
  164SAPE  H19R18470   0.954   7.216   8.163 -0.0690  0.0458  2.6613
  164SAPE  H19S18471   1.110   7.147   8.175  0.4605 -0.5204  0.5294
  164SAPE  C22018472   0.954   7.049   8.287  0.1149  0.3203 -0.7579
  164SAPE  H20R18473   0.852   7.007   8.269  0.6119 -1.5043  0.4782
  164SAPE  H20S18474   0.957   7.122   8.370  0.4527 -2.2500  1.5953
  164SAPE  H20T18475   1.037   6.977   8.307  1.5888  1.7655 -1.5599
  164SAPE   C3318476   0.613   6.581   6.861 -0.6422 -0.0562 -0.0446
  164SAPE   H3X18477   0.507   6.549   6.873 -1.0442  1.4320  0.4334
  164SAPE   H3Y18478   0.609   6.683   6.817  2.7544 -0.3817 -1.2350
  164SAPE   C3418479   0.669   6.598   7.004  0.0378 -0.4690 -0.7374
  164SAPE   H4X18480   0.769   6.647   6.995 -0.1627 -0.3643 -2.5690
  164SAPE   H4Y18481   0.686   6.494   7.040  0.2692  0.1830  1.0985
  164SAPE   C3518482   0.564   6.654   7.097  0.2487  0.4543 -0.3501
  164SAPE   H5X18483   0.464   6.614   7.071  1.7297 -3.1962 -0.7373
  164SAPE   H5Y18484   0.567   6.763   7.079  1.4921  0.7325  1.4370
  164SAPE   C3618485   0.605   6.623   7.240  0.3024  0.1944  0.6910
  164SAPE   H6X18486   0.534   6.681   7.303  0.8184  0.5031  0.9905
  164SAPE   H6Y18487   0.713   6.646   7.251  0.6223 -0.6201 -0.6851
  164SAPE   C3718488   0.574   6.475   7.293 -0.2969 -0.4138 -0.1092
  164SAPE   H7X18489   0.622   6.401   7.226 -1.8720 -1.0527 -0.5241
  164SAPE   H7Y18490   0.464   6.477   7.284 -0.5621  2.0669  2.8747
  164SAPE   C3818491   0.612   6.464   7.440  0.6256  0.0072 -0.0018
  164SAPE   H8X18492   0.553   6.382   7.486  1.0767 -0.0125  0.5433
  164SAPE   H8Y18493   0.570   6.554   7.489 -1.6019 -0.9647 -0.0909
  164SAPE   C3918494   0.769   6.459   7.464 -0.0888  0.8334 -0.0734
  164SAPE   H9X18495   0.821   6.542   7.410 -0.7399  0.4654 -1.2812
  164SAPE   H9Y18496   0.809   6.357   7.446  0.2766  0.3253  3.2679
  164SAPE  C31018497   0.804   6.483   7.611  0.4097  0.0429 -0.4105
  164SAPE  H10X18498   0.793   6.384   7.660 -0.8598  0.7456  0.7507
  164SAPE  H10Y18499   0.738   6.555   7.665 -0.4778 -1.5408  0.6598
  164SAPE  C31118500   0.945   6.529   7.632 -0.1046 -0.3237 -0.5760
  164SAPE  H11X18501   0.947   6.638   7.613 -1.6028 -0.4007 -1.2422
  164SAPE  H11Y18502   1.015   6.466   7.572  0.2863  2.1500 -2.8028
  164SAPE  C31218503   0.996   6.510   7.771  0.1819 -0.1624  0.4179
  164SAPE  H12X18504   1.101   6.543   7.786  0.8669 -2.0770  0.0175
  164SAPE  H12Y18505   0.987   6.400   7.788 -0.8807  0.3616  3.5479
  164SAPE  C31318506   0.900   6.577   7.882  0.1290 -0.6852  0.7479
  164SAPE  H13X18507   0.792   6.554   7.868 -0.7088  3.3076 -0.0400
  164SAPE  H13Y18508   0.902   6.688   7.880 -2.7810 -0.5587  2.4607
  164SAPE  C31418509   0.939   6.543   8.032 -0.6328 -0.3576  0.3901
  164SAPE  H14X18510   1.041   6.581   8.056 -0.6992  1.1432 -1.5362
  164SAPE  H14Y18511   0.942   6.432   8.036 -2.4874 -0.4347  0.1567
  164SAPE  C31518512   0.854   6.610   8.138  0.1213  0.1848  0.1568
  164SAPE  H15X18513   0.746   6.597   8.115  0.3860  1.6816 -2.1148
  164SAPE  H15Y18514   0.868   6.719   8.122  0.3772  0.0888 -0.2925
  164SAPE  C31618515   0.884   6.565   8.278 -0.1794 -0.3490 -0.9975
  164SAPE  H16X18516   0.986   6.588   8.314  0.7740 -1.3136 -2.9748
  164SAPE  H16Y18517   0.866   6.455   8.275 -4.5864  0.1679  1.9578
  164SAPE  C31718518   0.781   6.633   8.373  0.4215  0.0945  0.7503
  164SAPE  H17X18519   0.682   6.582   8.375 -0.7818  2.3957  0.6667
  164SAPE  H17Y18520   0.755   6.733   8.334  0.8596 -0.2331 -0.4109
  164SAPE  C31818521   0.835   6.631   8.513  0.2633  0.6076 -0.3074
  164SAPE  H18X18522   0.770   6.667   8.595 -0.1776  1.2141 -0.9212
  164SAPE  H18Y18523   0.930   6.690   8.512 -0.5490  1.8932 -2.1756
  164SAPE  H18Z18524   0.867   6.528   8.540 -2.1976 -0.0433  0.2526
  165SAPE     N18525   0.724   2.667   6.422  0.9165 -0.4154  0.4058
  165SAPE   HN118526   0.725   2.602   6.502  0.1744 -1.3598 -0.3351
  165SAPE   HN218527   0.735   2.765   6.455  1.3437 -0.6813  1.0447
  165SAPE   HN318528   0.630   2.659   6.377  0.0063  0.1872  2.1463
  165SAPE   C1218529   0.821   2.621   6.316  0.6201  0.2054 -0.5034
  165SAPE  H12A18530   0.796   2.683   6.228  2.1776  2.1547  0.3829
  165SAPE  H12B18531   0.793   2.519   6.285  0.3662 -0.1447  0.8206
  165SAPE   C1118532   0.965   2.653   6.361  0.1878  0.3612  0.5611
  165SAPE  H11A18533   1.038   2.604   6.293  0.0697  0.1534  0.5827
  165SAPE  H11B18534   0.981   2.598   6.456 -1.9654 -0.5256  0.4393
  165SAPE     P18535   1.011   2.895   6.277  0.1665 -0.3625  0.0463
  165SAPE   O1318536   1.044   2.829   6.147  0.0378 -0.1939 -0.2552
  165SAPE   O1418537   0.903   2.996   6.273  0.3915 -0.3928  0.0164
  165SAPE   O1218538   0.983   2.792   6.386 -0.5254  0.4752  0.4395
  165SAPE   O1118539   1.138   2.968   6.339 -0.4689  0.1489 -0.6752
  165SAPE    C118540   1.137   3.028   6.474  0.1478 -0.0975 -0.4099
  165SAPE    HA18541   1.047   3.093   6.483  0.1666 -0.5077  4.0151
  165SAPE    HB18542   1.120   2.948   6.549  1.3134 -0.0291 -0.0699
  165SAPE    C218543   1.270   3.101   6.499  0.0509  0.9004 -0.5509
  165SAPE    HS18544   1.300   3.140   6.399  0.0420  0.2126 -0.8219
  165SAPE   O2118545   1.358   2.997   6.529 -0.5194  0.2892 -0.0095
  165SAPE   C2118546   1.487   3.035   6.542 -0.1783 -0.4698  0.1471
  165SAPE   O2218547   1.539   3.140   6.509  0.9161 -0.2808 -0.2547
  165SAPE   C2218548   1.562   2.918   6.595  0.0006  0.2327  0.7016
  165SAPE   H2R18549   1.535   2.834   6.527 -1.7638  0.4731  1.0606
  165SAPE   H2S18550   1.670   2.943   6.592  0.1648 -0.3879  1.2693
  165SAPE    C318551   1.266   3.224   6.607 -0.1469  0.7049 -0.7419
  165SAPE    HX18552   1.200   3.307   6.571 -0.3635  2.6872  3.7990
  165SAPE    HY18553   1.367   3.268   6.623  0.4496  0.1798 -2.9120
  165SAPE   O3118554   1.212   3.179   6.737 -0.1115  0.2811  0.5194
  165SAPE   C3118555   1.203   3.276   6.820  0.9149  0.3153  0.7527
  165SAPE   O3218556   1.208   3.392   6.793  0.1640  0.0754  0.1526
  165SAPE   C3218557   1.179   3.227   6.968  0.0508  0.1977 -0.1928
  165SAPE   H2X18558   1.213   3.122   6.982 -0.2190  0.5127  3.1652
  165SAPE   H2Y18559   1.069   3.222   6.983  0.2067  0.8296  1.2087
  165SAPE   C2318560   1.516   2.891   6.739  0.0845 -0.1554 -0.4992
  165SAPE   H3R18561   1.570   2.799   6.771  0.1171 -0.4356 -1.3333
  165SAPE   H3S18562   1.406   2.880   6.753  0.2699  1.5849  2.9213
  165SAPE   C2418563   1.568   2.996   6.841 -0.3595 -0.6114 -0.1758
  165SAPE   H4R18564   1.513   3.092   6.824 -2.2908 -1.6940 -0.2201
  165SAPE   H4S18565   1.677   3.011   6.824 -0.6630  0.5964 -1.1996
  165SAPE   C2518566   1.531   2.947   6.979  0.3200  0.5222  1.0209
  165SAPE   H5R18567   1.421   2.944   6.975  0.3453  0.3652  0.4499
  165SAPE   C2618568   1.609   2.906   7.083 -0.6677  0.8718  0.1329
  165SAPE   H6R18569   1.563   2.880   7.179  0.4892 -1.4434  0.0879
  165SAPE   C2718570   1.760   2.894   7.088 -0.0112 -0.1435  0.1985
  165SAPE   H7R18571   1.785   2.825   7.005  2.3617 -1.8011  2.2437
  165SAPE   H7S18572   1.803   2.848   7.179 -0.1943 -0.6563  0.0283
  165SAPE   C2818573   1.825   3.027   7.086  0.0892 -0.1667  0.1863
  165SAPE   H8R18574   1.870   3.056   6.990 -1.4819 -0.7952 -0.7609
  165SAPE   C2918575   1.836   3.114   7.195  0.4222  0.4953 -0.0240
  165SAPE   H9R18576   1.891   3.208   7.180 -0.0379  1.0097  1.3759
  165SAPE  C21018577   1.785   3.102   7.334 -0.0976 -0.2890  0.7320
  165SAPE  H10R18578   1.873   3.107   7.402 -0.4193 -0.5893  1.1697
  165SAPE  H10S18579   1.733   3.005   7.347  0.0763 -0.2966  1.3697
  165SAPE  C21118580   1.687   3.211   7.382  0.2258 -0.6888  0.0861
  165SAPE  H11R18581   1.638   3.263   7.299  0.5591  0.3948  0.5655
  165SAPE  C21218582   1.645   3.245   7.508 -1.1630 -0.2814  0.3565
  165SAPE  H12R18583   1.589   3.339   7.524 -0.5210 -0.1210  1.8264
  165SAPE  C21318584   1.690   3.183   7.631  0.4807  0.4498 -0.3365
  165SAPE  H13R18585   1.759   3.259   7.673 -0.0110  0.5451  0.3075
  165SAPE  H13S18586   1.758   3.098   7.609  1.9751  1.6470 -0.3740
  165SAPE  C21418587   1.564   3.149   7.716  0.1999  0.1020  0.8486
  165SAPE  H14R18588   1.470   3.130   7.662  1.8085 -2.3428 -1.2221
  165SAPE  C21518589   1.562   3.167   7.847  0.2495 -0.2208 -0.4714
  165SAPE  H15R18590   1.473   3.128   7.898  0.2864  0.4837  0.1266
  165SAPE  C21618591   1.666   3.206   7.942  0.4376  0.4997 -0.1675
  165SAPE  H16R18592   1.765   3.197   7.893 -0.1497 -2.2972 -0.9147
  165SAPE  H16S18593   1.663   3.127   8.019 -0.9965  3.5152  3.0339
  165SAPE  C21718594   1.647   3.342   8.002  0.0804  0.9284  0.6991
  165SAPE  H17R18595   1.552   3.352   8.058  0.0073  1.3213  0.5064
  165SAPE  H17S18596   1.634   3.420   7.924 -2.0951  0.7225  0.8371
  165SAPE  C21818597   1.757   3.380   8.098  0.1773  0.1630 -0.3862
  165SAPE  H18R18598   1.845   3.403   8.034  0.0174  1.4208 -0.1653
  165SAPE  H18S18599   1.772   3.296   8.170  3.2890 -0.1784 -1.3841
  165SAPE  C21918600   1.721   3.515   8.164  0.3703 -0.0956 -0.3127
  165SAPE  H19R18601   1.640   3.510   8.240  1.4286 -0.2821  0.8092
  165SAPE  H19S18602   1.689   3.587   8.085  0.6520  0.3024 -0.0683
  165SAPE  C22018603   1.844   3.550   8.237  0.0180 -0.5635  0.5113
  165SAPE  H20R18604   1.859   3.470   8.314 -0.5439  0.1199  1.3445
  165SAPE  H20S18605   1.826   3.643   8.295  0.1688 -0.5545  0.5461
  165SAPE  H20T18606   1.934   3.559   8.172  0.7346  0.4911  1.6043
  165SAPE   C3318607   1.246   3.319   7.073 -0.3934 -0.3450  0.3421
  165SAPE   H3X18608   1.217   3.424   7.050  2.1983  0.2733 -0.2276
  165SAPE   H3Y18609   1.356   3.322   7.061 -0.5071  1.0631 -0.5164
  165SAPE   C3418610   1.207   3.272   7.215 -0.4091  0.0578 -0.3441
  165SAPE   H4X18611   1.096   3.270   7.225 -0.4446 -0.1062 -0.7721
  165SAPE   H4Y18612   1.251   3.346   7.285  0.5534  1.8508 -2.7791
  165SAPE   C3518613   1.257   3.129   7.252  0.1090 -0.2377  0.0729
  165SAPE   H5X18614   1.357   3.105   7.211  0.8035  2.1657  0.3258
  165SAPE   H5Y18615   1.181   3.053   7.222  1.0857 -1.3921  0.4721
  165SAPE   C3618616   1.273   3.093   7.402  0.7189  0.4977 -0.6515
  165SAPE   H6X18617   1.361   3.143   7.448 -0.3633  1.3771  0.4965
  165SAPE   H6Y18618   1.293   2.986   7.420 -0.3252  0.1776 -1.3478
  165SAPE   C3718619   1.152   3.143   7.499 -0.6036  0.3817 -0.3041
  165SAPE   H7X18620   1.065   3.168   7.435 -0.2444 -1.5948 -1.5878
  165SAPE   H7Y18621   1.181   3.236   7.553 -2.9307 -0.3740  2.4178
  165SAPE   C3818622   1.110   3.043   7.603 -0.3226 -0.4115  0.0450
  165SAPE   H8X18623   1.070   2.950   7.558 -1.7756 -0.7339  1.8872
  165SAPE   H8Y18624   1.022   3.081   7.660  0.3070 -0.4509  1.0636
  165SAPE   C3918625   1.223   3.021   7.706  0.1060  0.4991 -0.3455
  165SAPE   H9X18626   1.249   3.119   7.750 -0.1609  0.2882  0.2956
  165SAPE   H9Y18627   1.309   2.968   7.659 -0.7319  0.3027 -1.6880
  165SAPE  C31018628   1.173   2.919   7.809 -0.4843  0.7322  0.2920
  165SAPE  H10X18629   1.151   2.822   7.760  1.7740 -0.2182  1.0856
  165SAPE  H10Y18630   1.082   2.960   7.857 -0.7426  3.6934 -2.5637
  165SAPE  C31118631   1.278   2.888   7.923  0.0873  0.1234 -0.9291
  165SAPE  H11X18632   1.292   2.962   8.005 -1.2188 -1.8584  1.1153
  165SAPE  H11Y18633   1.379   2.851   7.893  0.2329 -0.4901  0.3039
  165SAPE  C31218634   1.228   2.767   8.004 -0.2268 -0.3657 -0.5725
  165SAPE  H12X18635   1.298   2.733   8.083 -0.6272 -1.5181 -0.6963
  165SAPE  H12Y18636   1.219   2.689   7.925  0.4848 -1.2112  0.1728
  165SAPE  C31318637   1.091   2.786   8.073 -0.4090 -0.1514  0.1904
  165SAPE  H13X18638   1.024   2.816   7.989 -0.9494 -0.4064  0.5287
  165SAPE  H13Y18639   1.088   2.877   8.137  1.7711 -0.5947  0.9428
  165SAPE  C31418640   1.041   2.660   8.138 -0.1770  0.3760 -0.3460
  165SAPE  H14X18641   1.018   2.582   8.062 -0.3958 -0.6375  0.7377
  165SAPE  H14Y18642   0.954   2.690   8.199 -0.7502 -1.0807 -0.4206
  165SAPE  C31518643   1.135   2.591   8.242 -0.2753  0.1056  0.8737
  165SAPE  H15X18644   1.166   2.667   8.318  1.1295 -0.9187  1.3673
  165SAPE  H15Y18645   1.233   2.554   8.205  0.0709  2.7568 -1.0454
  165SAPE  C31618646   1.066   2.469   8.301 -0.2591 -0.1433 -1.1049
  165SAPE  H16X18647   1.027   2.386   8.238 -0.5098 -2.8093  2.4265
  165SAPE  H16Y18648   0.972   2.502   8.350  0.4830 -0.1041  0.3117
  165SAPE  C31718649   1.163   2.399   8.401  0.6134 -0.6885  0.5186
  165SAPE  H17X18650   1.222   2.479   8.450  1.0843  0.9182 -2.5898
  165SAPE  H17Y18651   1.233   2.336   8.343 -0.6864 -2.4316  0.8066
  165SAPE  C31818652   1.081   2.319   8.496  0.3674 -0.2540  1.1525
  165SAPE  H18X18653   1.029   2.239   8.438  0.7016 -0.4242  1.0853
  165SAPE  H18Y18654   0.998   2.383   8.532 -0.6617 -1.3645  0.8108
  165SAPE  H18Z18655   1.142   2.268   8.573  1.5711 -0.6427 -0.0446
  166SAPE     N18656   0.609   5.545   5.731 -0.0455  0.0599  0.1944
  166SAPE   HN118657   0.589   5.490   5.817 -0.2598 -2.9115 -1.6985
  166SAPE   HN218658   0.514   5.582   5.711  0.3255 -0.3040 -2.4927
  166SAPE   HN318659   0.636   5.486   5.650 -3.3133 -1.5912  0.2341
  166SAPE   C1218660   0.700   5.665   5.745  0.2756 -1.5181  0.1951
  166SAPE  H12A18661   0.691   5.735   5.659 -0.9061  1.1084  2.4026
  166SAPE  H12B18662   0.803   5.624   5.737  0.2091 -1.4833 -0.9186
  166SAPE   C1118663   0.655   5.722   5.877  0.0701  0.7498 -0.2031
  166SAPE  H11A18664   0.553   5.766   5.864  0.4600  1.9435  0.6811
  166SAPE  H11B18665   0.718   5.809   5.905 -0.7802  0.6780  1.9838
  166SAPE     P18666   0.763   5.577   6.069 -0.1486 -0.0800  0.3871
  166SAPE   O1318667   0.773   5.435   6.039  0.0555  0.1658  0.1110
  166SAPE   O1418668   0.889   5.663   6.053  0.7600 -0.5175  0.2366
  166SAPE   O1218669   0.642   5.630   5.982 -0.2004 -0.7334 -0.2141
  166SAPE   O1118670   0.710   5.591   6.215  0.8102  0.0276 -0.2548
  166SAPE    C118671   0.604   5.682   6.244  0.2902 -0.1134 -0.1701
  166SAPE    HA18672   0.603   5.764   6.169  3.1232  0.2267  0.1124
  166SAPE    HB18673   0.512   5.624   6.220 -0.5592  0.8841  0.6679
  166SAPE    C218674   0.603   5.741   6.383 -0.2195 -0.4727  0.9383
  166SAPE    HS18675   0.527   5.822   6.389 -2.9794 -3.0901  2.4419
  166SAPE   O2118676   0.724   5.786   6.444 -0.1386 -0.1255  0.2657
  166SAPE   C2118677   0.797   5.864   6.378  0.7060  0.2431  0.0106
  166SAPE   O2218678   0.767   5.922   6.274  0.0611  0.0633 -0.2751
  166SAPE   C2218679   0.929   5.884   6.457  0.1383  0.3344  0.0086
  166SAPE   H2R18680   0.986   5.794   6.427 -0.6707  0.2328 -1.2411
  166SAPE   H2S18681   0.973   5.973   6.407 -0.8743 -0.8756 -3.0889
  166SAPE    C318682   0.554   5.626   6.479  0.2429  0.4416  0.4468
  166SAPE    HX18683   0.629   5.544   6.471 -0.2034  0.0501  0.2496
  166SAPE    HY18684   0.459   5.585   6.439  0.8556  0.7077 -1.3716
  166SAPE   O3118685   0.544   5.666   6.612 -0.9147 -0.1138  0.2697
  166SAPE   C3118686   0.621   5.610   6.707 -0.4139  0.0308  0.3670
  166SAPE   O3218687   0.707   5.525   6.690 -0.2909 -0.2901  0.2624
  166SAPE   C3218688   0.585   5.676   6.841 -0.1322 -0.6148  0.0488
  166SAPE   H2X18689   0.525   5.767   6.819  2.7187  0.8397 -1.9505
  166SAPE   H2Y18690   0.683   5.718   6.872  0.1281 -1.7033  0.7247
  166SAPE   C2318691   0.916   5.893   6.609  0.5023 -0.1440  0.4864
  166SAPE   H3R18692   1.020   5.891   6.647  0.1199  2.0954  1.7310
  166SAPE   H3S18693   0.852   5.805   6.634 -0.9743  0.6251 -0.5142
  166SAPE   C2418694   0.844   6.024   6.665  0.4230  0.6276 -0.3853
  166SAPE   H4R18695   0.813   6.007   6.770 -1.4278  2.1118 -0.6618
  166SAPE   H4S18696   0.748   6.042   6.613  0.7803  0.9490 -0.9399
  166SAPE   C2518697   0.917   6.149   6.650  0.3513 -0.1363 -0.8815
  166SAPE   H5R18698   0.912   6.188   6.547  4.2401 -1.4988 -1.6750
  166SAPE   C2618699   0.989   6.216   6.743 -0.1774 -0.5850  0.2897
  166SAPE   H6R18700   1.052   6.300   6.709 -1.6504  0.3341 -0.2197
  166SAPE   C2718701   1.012   6.179   6.888  0.4629 -0.0285 -0.4343
  166SAPE   H7R18702   0.937   6.104   6.919  0.0739  1.1638  1.5975
  166SAPE   H7S18703   0.980   6.255   6.962  2.4693 -1.0650  1.5714
  166SAPE   C2818704   1.149   6.136   6.937  0.2549  0.3340  0.1602
  166SAPE   H8R18705   1.230   6.156   6.866  0.3751 -2.3166 -0.5148
  166SAPE   C2918706   1.174   6.092   7.061 -1.1463  0.6393  0.3060
  166SAPE   H9R18707   1.278   6.062   7.083 -1.4078 -0.6049 -0.0993
  166SAPE  C21018708   1.067   6.073   7.158 -0.5513  0.2766  0.2039
  166SAPE  H10R18709   1.042   5.966   7.176 -0.6163 -0.0249 -1.5954
  166SAPE  H10S18710   0.971   6.122   7.132  0.5691  1.9668 -0.8108
  166SAPE  C21118711   1.103   6.129   7.293 -0.0525  0.6536 -0.0929
  166SAPE  H11R18712   1.110   6.239   7.290 -0.3219  0.6461 -0.9799
  166SAPE  C21218713   1.136   6.068   7.405  0.4933 -0.1001  0.3183
  166SAPE  H12R18714   1.156   6.128   7.495  0.1454 -0.0357  0.3537
  166SAPE  C21318715   1.153   5.922   7.426 -0.0514 -0.8149 -0.0659
  166SAPE  H13R18716   1.191   5.867   7.337  1.3152 -0.3667  0.2386
  166SAPE  H13S18717   1.060   5.862   7.440  1.5131 -3.4129 -0.4109
  166SAPE  C21418718   1.233   5.895   7.548  0.0534 -0.4256 -0.3227
  166SAPE  H14R18719   1.338   5.874   7.526 -0.0751 -0.4857 -0.8933
  166SAPE  C21518720   1.193   5.890   7.678 -0.4867 -0.4529  0.1534
  166SAPE  H15R18721   1.262   5.848   7.754 -2.2004 -0.7788  1.5682
  166SAPE  C21618722   1.053   5.928   7.734  0.7695  0.2224 -0.7351
  166SAPE  H16R18723   0.974   5.863   7.691  0.3699  0.4830 -0.3954
  166SAPE  H16S18724   1.019   6.027   7.697 -2.9812 -0.1043  1.5859
  166SAPE  C21718725   1.043   5.934   7.889 -0.4983 -0.0730 -0.0264
  166SAPE  H17R18726   1.116   6.003   7.936  1.0404 -0.6469 -1.4988
  166SAPE  H17S18727   1.058   5.827   7.913 -0.4979  0.0348  0.4439
  166SAPE  C21818728   0.904   5.993   7.939  0.2052  0.5988 -0.5938
  166SAPE  H18R18729   0.911   5.975   8.049 -1.7269  1.9551 -0.2332
  166SAPE  H18S18730   0.819   5.932   7.903 -2.1454  2.2213  2.0625
  166SAPE  C21918731   0.877   6.138   7.903  0.0989  0.3752 -0.1281
  166SAPE  H19R18732   0.848   6.156   7.798 -0.1292  0.7729  0.0009
  166SAPE  H19S18733   0.969   6.198   7.920 -0.2939  0.7801  0.6078
  166SAPE  C22018734   0.762   6.203   7.984 -0.4068 -0.5739 -0.0639
  166SAPE  H20R18735   0.668   6.147   7.963  0.4701 -2.1369  0.0754
  166SAPE  H20S18736   0.751   6.309   7.953 -3.0376 -0.6522  0.4379
  166SAPE  H20T18737   0.774   6.200   8.094 -1.1212 -1.1343  0.0031
  166SAPE   C3318738   0.523   5.588   6.945 -0.0806  0.2562 -0.5346
  166SAPE   H3X18739   0.590   5.502   6.966  0.4919  0.2061 -2.4540
  166SAPE   H3Y18740   0.430   5.547   6.901 -0.1855 -2.3201  1.9419
  166SAPE   C3418741   0.503   5.672   7.067  0.3341  0.1198 -0.2618
  166SAPE   H4X18742   0.434   5.753   7.037 -0.0444  0.3689  1.2422
  166SAPE   H4Y18743   0.600   5.719   7.097  0.7403 -0.1556 -1.1460
  166SAPE   C3518744   0.475   5.576   7.183 -0.2010 -0.0498 -0.9840
  166SAPE   H5X18745   0.556   5.501   7.189  2.0187  2.2197 -1.5891
  166SAPE   H5Y18746   0.388   5.519   7.146  0.6444 -1.3472 -0.9878
  166SAPE   C3618747   0.419   5.634   7.316  0.0031  0.2280 -0.4526
  166SAPE   H6X18748   0.311   5.660   7.310 -0.4757 -0.9628  2.1143
  166SAPE   H6Y18749   0.481   5.723   7.341 -0.9087  1.1183 -1.3030
  166SAPE   C3718750   0.441   5.538   7.435  0.5052 -0.2252 -0.6460
  166SAPE   H7X18751   0.543   5.493   7.438  0.5331 -0.0606  2.8703
  166SAPE   H7Y18752   0.372   5.453   7.416 -0.5122  0.1790  1.1702
  166SAPE   C3818753   0.413   5.611   7.560 -0.0726 -0.1171 -0.2754
  166SAPE   H8X18754   0.318   5.669   7.552  0.5411  1.0058  0.4134
  166SAPE   H8Y18755   0.497   5.680   7.583 -0.6332 -0.1916  2.0611
  166SAPE   C3918756   0.396   5.511   7.670 -0.1762  0.1503 -0.8254
  166SAPE   H9X18757   0.501   5.487   7.698  0.3148  1.5336 -1.4446
  166SAPE   H9Y18758   0.345   5.423   7.625 -1.3325  0.4482 -0.1170
  166SAPE  C31018759   0.326   5.570   7.795  0.2800 -0.2859 -0.1056
  166SAPE  H10X18760   0.231   5.618   7.762  0.3975  0.6979  0.9466
  166SAPE  H10Y18761   0.403   5.640   7.832 -0.8638  0.4315  0.9581
  166SAPE  C31118762   0.291   5.461   7.899 -0.0253  0.2697  0.1545
  166SAPE  H11X18763   0.388   5.407   7.913 -0.5602 -0.5059  0.9116
  166SAPE  H11Y18764   0.208   5.393   7.872  2.1380 -1.6316 -2.0339
  166SAPE  C31218765   0.256   5.538   8.032  0.1899  0.3179  0.2468
  166SAPE  H12X18766   0.157   5.586   8.015  1.2027  2.3384 -0.0749
  166SAPE  H12Y18767   0.333   5.615   8.055  1.1125  0.2974 -2.5677
  166SAPE  C31318768   0.249   5.460   8.166  0.0246 -0.2240  0.5061
  166SAPE  H13X18769   0.329   5.382   8.168 -0.0760 -0.3741 -1.0093
  166SAPE  H13Y18770   0.149   5.413   8.178  0.3221 -1.0120 -0.0635
  166SAPE  C31418771   0.278   5.540   8.294 -0.0681  0.1240  0.2411
  166SAPE  H14X18772   0.214   5.631   8.282 -1.0252 -0.4206  1.1211
  166SAPE  H14Y18773   0.383   5.574   8.308 -0.4072  0.7805  1.3336
  166SAPE  C31518774   0.242   5.460   8.423  0.7125  0.2631 -0.3739
  166SAPE  H15X18775   0.292   5.511   8.507  1.6489  2.3812 -2.1625
  166SAPE  H15Y18776   0.270   5.353   8.429  0.0305  0.1543  1.0532
  166SAPE  C31618777   0.092   5.456   8.452  0.6434  0.0734  0.3491
  166SAPE  H16X18778   0.038   5.386   8.385  1.7501 -0.1538 -0.3275
  166SAPE  H16Y18779   0.047   5.546   8.404  0.8937 -1.0430 -2.0615
  166SAPE  C31718780   0.044   5.437   8.594 -0.4435 -0.2438  0.4395
  166SAPE  H17X18781   0.052   5.539   8.639 -1.0002  0.3253 -0.7346
  166SAPE  H17Y18782   0.101   5.362   8.654 -3.2692 -1.8995  1.1177
  166SAPE  C31818783  -0.100   5.414   8.598 -0.0455  0.4465  0.7214
  166SAPE  H18X18784  -0.166   5.493   8.557  0.7687 -0.0320 -1.5464
  166SAPE  H18Y18785  -0.133   5.398   8.703 -0.4224 -1.7931  0.2720
  166SAPE  H18Z18786  -0.132   5.323   8.543 -2.1351  1.1947  0.6390
  167SAPE     N18787   1.318   5.951   5.965  0.0539 -0.0555 -0.2106
  167SAPE   HN118788   1.341   5.868   5.907  0.9290  0.4648 -0.6141
  167SAPE   HN218789   1.218   5.981   5.966 -0.7914 -2.7152  1.0792
  167SAPE   HN318790   1.362   6.037   5.926 -0.1143  0.1619  0.0694
  167SAPE   C1218791   1.351   5.948   6.109 -1.3680 -0.0969 -0.3532
  167SAPE  H12A18792   1.280   5.874   6.154  0.6345 -1.1299  1.2150
  167SAPE  H12B18793   1.324   6.049   6.147 -0.3821  0.8419 -2.1147
  167SAPE   C1118794   1.497   5.906   6.120 -0.2628  0.8465  1.2386
  167SAPE  H11A18795   1.530   5.926   6.224 -1.2157 -0.7864  1.8742
  167SAPE  H11B18796   1.557   5.967   6.050  1.4582 -1.9490  0.1872
  167SAPE     P18797   1.671   5.710   6.053  0.4323  0.4687  0.0593
  167SAPE   O1318798   1.647   5.560   6.045  0.0397 -0.2900 -0.3840
  167SAPE   O1418799   1.725   5.782   5.935 -0.2561  0.2749  0.2510
  167SAPE   O1218800   1.527   5.767   6.079  0.0459 -0.0494 -0.0756
  167SAPE   O1118801   1.748   5.746   6.187  0.1263  0.3662 -0.4927
  167SAPE    C118802   1.734   5.664   6.310  0.8160  0.8847  0.0606
  167SAPE    HA18803   1.764   5.557   6.300  0.6995  0.7522  1.0517
  167SAPE    HB18804   1.810   5.703   6.381  1.3393  4.5192 -2.3758
  167SAPE    C218805   1.595   5.664   6.373  0.2853  0.2360  0.5612
  167SAPE    HS18806   1.524   5.662   6.288 -1.4876  0.9988  1.9950
  167SAPE   O2118807   1.585   5.784   6.448 -0.4272 -0.6728  0.1383
  167SAPE   C2118808   1.466   5.814   6.493  0.4948 -0.0512  0.6542
  167SAPE   O2218809   1.362   5.763   6.451 -0.2462 -0.3021 -0.4731
  167SAPE   C2218810   1.482   5.900   6.616  0.0349 -0.3596  0.2349
  167SAPE   H2R18811   1.586   5.901   6.655 -0.6502  0.8274  2.1003
  167SAPE   H2S18812   1.437   5.999   6.596 -1.0765 -1.2051 -1.5727
  167SAPE    C318813   1.565   5.530   6.451  0.1464 -0.4151  0.1689
  167SAPE    HX18814   1.543   5.452   6.376  1.4003 -0.4729 -0.1584
  167SAPE    HY18815   1.472   5.548   6.509 -0.6335  0.8804 -1.4217
  167SAPE   O3118816   1.675   5.494   6.539 -0.3709  0.2712 -0.3850
  167SAPE   C3118817   1.636   5.433   6.653  0.7625 -0.2822  0.3872
  167SAPE   O3218818   1.520   5.407   6.679  0.1308 -0.3710  0.6572
  167SAPE   C3218819   1.758   5.396   6.730  0.3914 -0.7384 -0.0618
  167SAPE   H2X18820   1.837   5.473   6.738 -1.1835  0.7935  1.3890
  167SAPE   H2Y18821   1.801   5.310   6.675  1.8441  2.0874 -3.4695
  167SAPE   C2318822   1.391   5.829   6.716 -0.1182  0.6029  0.4164
  167SAPE   H3R18823   1.399   5.719   6.719 -0.8541  0.4433 -2.1153
  167SAPE   H3S18824   1.287   5.852   6.684  0.6042  1.0176 -1.7238
  167SAPE   C2418825   1.418   5.871   6.866  0.2940  0.4544 -0.2917
  167SAPE   H4R18826   1.323   5.863   6.923  2.1087  0.8019  2.9344
  167SAPE   H4S18827   1.421   5.982   6.862  2.5410  0.3999 -0.8291
  167SAPE   C2518828   1.532   5.826   6.946  0.0194  0.2435 -0.3104
  167SAPE   H5R18829   1.631   5.863   6.919 -0.2681  1.1221 -0.1797
  167SAPE   C2618830   1.537   5.738   7.049  0.1112 -0.8619  0.0341
  167SAPE   H6R18831   1.635   5.727   7.097 -0.7118 -2.1937  1.4410
  167SAPE   C2718832   1.432   5.655   7.108 -0.1246 -0.6954  0.2652
  167SAPE   H7R18833   1.337   5.713   7.102  0.4952  0.5731  2.0975
  167SAPE   H7S18834   1.454   5.636   7.216 -0.4994 -0.6167  0.3574
  167SAPE   C2818835   1.405   5.520   7.037  0.2603 -0.2407  0.2924
  167SAPE   H8R18836   1.395   5.542   6.929 -1.1058 -0.0673  0.4478
  167SAPE   C2918837   1.392   5.403   7.094  0.5248 -0.1752 -0.6975
  167SAPE   H9R18838   1.364   5.329   7.018  0.9910  0.4507 -1.4994
  167SAPE  C21018839   1.396   5.364   7.237  0.1776 -0.3061  0.2609
  167SAPE  H10R18840   1.484   5.417   7.279  0.1725  0.6506 -0.9253
  167SAPE  H10S18841   1.416   5.255   7.228  1.8444  0.0746 -0.6847
  167SAPE  C21118842   1.278   5.376   7.327  0.4534 -0.1748 -0.1612
  167SAPE  H11R18843   1.191   5.314   7.300  0.2688  0.4019 -0.9354
  167SAPE  C21218844   1.267   5.443   7.439  0.5918  0.0456 -0.6478
  167SAPE  H12R18845   1.169   5.438   7.489 -0.3154  2.3909 -2.0822
  167SAPE  C21318846   1.359   5.535   7.508  0.2057 -0.5175  0.0922
  167SAPE  H13R18847   1.293   5.616   7.546 -0.0612  0.2122 -1.8542
  167SAPE  H13S18848   1.442   5.579   7.447 -0.0759  0.6045  0.4994
  167SAPE  C21418849   1.424   5.469   7.623 -0.0676  0.6595 -0.5128
  167SAPE  H14R18850   1.506   5.403   7.592 -1.0820 -1.0324  0.3251
  167SAPE  C21518851   1.384   5.463   7.751  0.1878 -0.2248  0.5476
  167SAPE  H15R18852   1.447   5.410   7.825 -1.5955 -0.8181  1.6767
  167SAPE  C21618853   1.263   5.528   7.812  0.0551 -0.5994 -0.1567
  167SAPE  H16R18854   1.174   5.462   7.820  0.7617 -1.5439  0.0123
  167SAPE  H16S18855   1.236   5.617   7.751  0.2735 -1.7935 -2.0243
  167SAPE  C21718856   1.278   5.569   7.960  0.5066 -0.7107  0.2441
  167SAPE  H17R18857   1.185   5.623   7.984  0.6982  0.0291 -0.6420
  167SAPE  H17S18858   1.367   5.636   7.968 -0.5071  1.2315 -3.2858
  167SAPE  C21818859   1.282   5.444   8.053 -0.5346  0.0442  0.3586
  167SAPE  H18R18860   1.324   5.481   8.149 -0.2572 -2.2940  1.1903
  167SAPE  H18S18861   1.358   5.374   8.011  0.3455  0.9721  0.3967
  167SAPE  C21918862   1.151   5.371   8.091  0.5487 -0.2092  0.4036
  167SAPE  H19R18863   1.113   5.314   8.004  0.1995 -0.0535  0.4490
  167SAPE  H19S18864   1.071   5.442   8.121  0.4662 -0.3311  0.4696
  167SAPE  C22018865   1.155   5.264   8.200 -0.3531 -0.1022 -0.2724
  167SAPE  H20R18866   1.194   5.310   8.293  0.7063 -3.1039  0.8292
  167SAPE  H20S18867   1.217   5.176   8.173  0.9206  0.3641  1.0965
  167SAPE  H20T18868   1.053   5.220   8.208  0.1022 -1.3257 -1.0192
  167SAPE   C3318869   1.718   5.348   6.868 -0.6021 -0.2242  0.1393
  167SAPE   H3X18870   1.624   5.289   6.876 -0.4467 -0.4763  0.1039
  167SAPE   H3Y18871   1.696   5.440   6.926 -0.7034  0.4448 -0.9456
  167SAPE   C3418872   1.817   5.272   6.948  0.0222 -0.2008 -0.1587
  167SAPE   H4X18873   1.912   5.329   6.951 -0.1847  0.0855  1.3491
  167SAPE   H4Y18874   1.845   5.171   6.911 -0.8945 -0.6756  0.4325
  167SAPE   C3518875   1.782   5.257   7.100  0.1044 -0.7485  0.5375
  167SAPE   H5X18876   1.851   5.179   7.138  0.5369 -0.2500  0.7905
  167SAPE   H5Y18877   1.676   5.227   7.108 -0.6235  1.2083 -1.0856
  167SAPE   C3618878   1.800   5.396   7.168 -0.7930 -0.2986  0.4193
  167SAPE   H6X18879   1.710   5.459   7.152 -0.0482  0.2917 -1.6897
  167SAPE   H6Y18880   1.888   5.444   7.119 -1.3165  0.7042  0.4454
  167SAPE   C3718881   1.828   5.389   7.318  0.5278 -0.1568  0.3991
  167SAPE   H7X18882   1.917   5.324   7.329 -0.4324 -1.6770 -0.6735
  167SAPE   H7Y18883   1.747   5.328   7.364  0.0077  1.2051  1.3397
  167SAPE   C3818884   1.825   5.533   7.381 -0.2860  0.6410 -0.6040
  167SAPE   H8X18885   1.758   5.598   7.320 -1.6690 -0.2723 -0.0523
  167SAPE   H8Y18886   1.918   5.588   7.353  0.4308 -1.0775 -1.6243
  167SAPE   C3918887   1.801   5.537   7.535 -0.0167 -0.2983  0.0097
  167SAPE   H9X18888   1.692   5.529   7.555 -0.2527 -0.0743 -1.1615
  167SAPE   H9Y18889   1.826   5.641   7.566  1.2295 -0.2562 -1.0796
  167SAPE  C31018890   1.874   5.434   7.616 -0.0420  0.5070 -1.2397
  167SAPE  H10X18891   1.983   5.457   7.622  0.0049 -0.1881  0.8674
  167SAPE  H10Y18892   1.878   5.333   7.569 -0.7083  0.3252 -0.9065
  167SAPE  C31118893   1.823   5.424   7.764 -0.0309  0.8937 -0.8661
  167SAPE  H11X18894   1.886   5.346   7.812  2.2207  1.4123 -2.8799
  167SAPE  H11Y18895   1.720   5.383   7.768  0.1678  0.5295  0.9569
  167SAPE  C31218896   1.857   5.548   7.846 -0.2683  0.9660 -0.2243
  167SAPE  H12X18897   1.829   5.648   7.808  1.3229  1.7659  0.6581
  167SAPE  H12Y18898   1.968   5.548   7.845 -0.0136 -3.1829  4.4572
  167SAPE  C31318899   1.807   5.533   7.989  0.4401 -0.2499  0.7355
  167SAPE  H13X18900   1.699   5.509   7.975  0.7416 -0.5687 -1.0893
  167SAPE  H13Y18901   1.806   5.626   8.049  0.8904 -0.8675  1.7177
  167SAPE  C31418902   1.876   5.414   8.062 -0.3896  0.0974 -1.1502
  167SAPE  H14X18903   1.985   5.428   8.047 -0.2139  0.3133  0.2370
  167SAPE  H14Y18904   1.840   5.321   8.013 -0.0228 -0.4658 -0.3800
  167SAPE  C31518905   1.841   5.400   8.214  0.0022 -0.0180  0.0568
  167SAPE  H15X18906   1.873   5.491   8.270  2.2410  2.0551 -4.3000
  167SAPE  H15Y18907   1.891   5.312   8.259 -2.0884 -0.3143  1.8814
  167SAPE  C31618908   1.693   5.368   8.240  0.3642 -1.0939  0.0328
  167SAPE  H16X18909   1.678   5.265   8.201  0.6888 -0.9604 -0.4517
  167SAPE  H16Y18910   1.628   5.434   8.179 -0.1274 -1.9218 -0.3401
  167SAPE  C31718911   1.662   5.377   8.389  0.8751 -0.3160 -0.2920
  167SAPE  H17X18912   1.712   5.294   8.442  0.2045  0.9384  2.4158
  167SAPE  H17Y18913   1.553   5.354   8.400  0.2509  1.0446 -3.1055
  167SAPE  C31818914   1.689   5.511   8.465 -0.3198  0.2752 -0.4965
  167SAPE  H18X18915   1.799   5.520   8.477 -0.3164  0.2600 -0.5185
  167SAPE  H18Y18916   1.650   5.494   8.568 -0.0779 -2.7825 -0.8805
  167SAPE  H18Z18917   1.648   5.596   8.407 -0.0032  1.6290  1.2002
  168SAPE     N18918   3.715   0.642   6.105  0.3403  0.2054 -0.2557
  168SAPE   HN118919   3.768   0.641   6.015  1.0485  0.8566  0.1507
  168SAPE   HN218920   3.659   0.555   6.105  2.7788 -1.5280 -4.0038
  168SAPE   HN318921   3.650   0.722   6.114 -0.2922 -0.3538  0.1117
  168SAPE   C1218922   3.816   0.611   6.218  0.2705 -0.3729 -0.1293
  168SAPE  H12A18923   3.894   0.691   6.227 -1.2535  1.0460  0.8175
  168SAPE  H12B18924   3.872   0.517   6.201 -0.1583 -0.4344 -1.2035
  168SAPE   C1118925   3.740   0.595   6.354  0.5087  0.4584  0.0959
  168SAPE  H11A18926   3.689   0.685   6.396 -0.8654 -0.0609 -0.4353
  168SAPE  H11B18927   3.811   0.569   6.435 -0.7137  0.0814  1.0736
  168SAPE     P18928   3.488   0.515   6.349  0.0524 -0.4155  0.1350
  168SAPE   O1318929   3.471   0.615   6.239 -0.5113 -0.2075  0.0594
  168SAPE   O1418930   3.410   0.391   6.342  0.0440 -0.0794 -0.0806
  168SAPE   O1218931   3.644   0.483   6.350  0.1498 -0.3176  0.0450
  168SAPE   O1118932   3.467   0.596   6.493 -0.0021  0.1165  0.5366
  168SAPE    C118933   3.533   0.559   6.608 -0.1919 -0.0113  0.4318
  168SAPE    HA18934   3.603   0.476   6.585 -1.1881 -0.4445 -1.0978
  168SAPE    HB18935   3.599   0.637   6.652  2.2119 -2.0793  0.5968
  168SAPE    C218936   3.416   0.504   6.707  0.6112  0.3149 -0.0822
  168SAPE    HS18937   3.353   0.429   6.654  1.9637 -1.7371  1.1570
  168SAPE   O2118938   3.340   0.620   6.751  0.5498 -0.2843 -0.0781
  168SAPE   C2118939   3.209   0.595   6.776  0.8613  0.7391  0.0981
  168SAPE   O2218940   3.148   0.495   6.741  0.0476 -0.0473 -0.0026
  168SAPE   C2218941   3.152   0.682   6.878 -0.4992 -0.5771 -0.7362
  168SAPE   H2R18942   3.095   0.623   6.953  0.7973 -1.5011 -0.4447
  168SAPE   H2S18943   3.226   0.729   6.947 -1.3559  0.0290 -0.2314
  168SAPE    C318944   3.468   0.432   6.838  0.2516  0.1573  1.0742
  168SAPE    HX18945   3.544   0.496   6.888  2.0541 -3.0500  2.5618
  168SAPE    HY18946   3.527   0.341   6.813  0.1137  0.4755 -0.4451
  168SAPE   O3118947   3.369   0.401   6.940 -0.7222 -0.2990  0.0815
  168SAPE   C3118948   3.291   0.301   6.902  0.3654  0.6016  0.9728
  168SAPE   O3218949   3.316   0.223   6.808 -0.3076 -0.2892 -0.0503
  168SAPE   C3218950   3.177   0.289   6.996 -0.1191  0.4139 -0.3177
  168SAPE   H2X18951   3.091   0.230   6.955 -1.0704 -0.9135  3.3736
  168SAPE   H2Y18952   3.132   0.390   7.000 -1.3785 -0.1457 -0.0327
  168SAPE   C2318953   3.070   0.797   6.818 -0.3478 -0.1701  0.3249
  168SAPE   H3R18954   2.992   0.752   6.753  0.8997  0.2258 -1.4846
  168SAPE   H3S18955   3.139   0.860   6.758 -0.5716  0.3173  0.5856
  168SAPE   C2418956   2.993   0.877   6.923 -0.4012  0.1515  0.1899
  168SAPE   H4R18957   2.944   0.962   6.870  0.2781 -0.3998 -1.3681
  168SAPE   H4S18958   3.067   0.924   6.992  1.3545 -1.2177 -0.7110
  168SAPE   C2518959   2.892   0.798   7.005  0.1746 -0.5161 -0.4063
  168SAPE   H5R18960   2.803   0.763   6.951  1.7891 -2.0211 -2.1827
  168SAPE   C2618961   2.898   0.770   7.137  0.2613 -0.8907  0.3837
  168SAPE   H6R18962   2.821   0.700   7.171 -1.3910  1.0874  0.8277
  168SAPE   C2718963   3.000   0.807   7.236  0.2008 -0.1885 -0.0095
  168SAPE   H7R18964   3.035   0.910   7.212 -0.2423  0.3284  1.5332
  168SAPE   H7S18965   3.092   0.744   7.241  2.7940  3.4549  0.1402
  168SAPE   C2818966   2.933   0.818   7.368 -0.0297  0.3386 -0.0045
  168SAPE   H8R18967   2.889   0.913   7.400  0.4767  1.0396 -1.3316
  168SAPE   C2918968   2.911   0.710   7.445 -0.2668  0.2201 -0.0996
  168SAPE   H9R18969   2.825   0.715   7.514  1.3885  0.4787  1.9893
  168SAPE  C21018970   2.957   0.566   7.423  0.6059 -0.2914 -0.3963
  168SAPE  H10R18971   3.063   0.572   7.392  1.3697 -0.6520  2.0354
  168SAPE  H10S18972   2.910   0.524   7.332  1.7472 -1.4186 -0.4619
  168SAPE  C21118973   2.949   0.458   7.532 -0.0608 -0.2163 -0.7921
  168SAPE  H11R18974   2.857   0.401   7.512 -0.0948 -0.4307 -0.0420
  168SAPE  C21218975   3.019   0.451   7.648 -0.0308 -0.5321  0.4116
  168SAPE  H12R18976   3.002   0.370   7.720  0.3979  0.6791  1.8940
  168SAPE  C21318977   3.129   0.547   7.687 -0.3045  0.0677 -0.5711
  168SAPE  H13R18978   3.120   0.585   7.791  0.0924  2.3598 -1.3427
  168SAPE  H13S18979   3.128   0.633   7.617 -1.4129  0.6521  0.1559
  168SAPE  C21418980   3.267   0.490   7.698  0.6634  0.8343 -0.0150
  168SAPE  H14R18981   3.330   0.493   7.608 -0.7049  3.2844 -0.9378
  168SAPE  C21518982   3.319   0.438   7.809 -0.9471  0.4441 -0.1438
  168SAPE  H15R18983   3.414   0.386   7.795 -2.0690 -1.8855  0.6729
  168SAPE  C21618984   3.261   0.420   7.946  0.4288 -0.3131 -0.0198
  168SAPE  H16R18985   3.183   0.499   7.959  0.8953  0.2095 -0.4036
  168SAPE  H16S18986   3.342   0.425   8.022 -0.5021 -1.4830  1.0756
  168SAPE  C21718987   3.190   0.282   7.953 -0.3303 -0.0958 -0.8232
  168SAPE  H17R18988   3.271   0.206   7.940 -0.4581  0.0086 -2.3348
  168SAPE  H17S18989   3.112   0.274   7.875 -0.1886  0.0426 -0.9775
  168SAPE  C21818990   3.125   0.255   8.088  0.7493  0.4950 -0.2603
  168SAPE  H18R18991   3.044   0.331   8.092 -0.0298 -0.4004  4.4119
  168SAPE  H18S18992   3.201   0.287   8.163  1.7451 -3.0584  0.3746
  168SAPE  C21918993   3.083   0.112   8.127  0.3136  0.2278 -1.1754
  168SAPE  H19R18994   3.046   0.116   8.232  1.1501  2.4778 -0.9430
  168SAPE  H19S18995   3.173   0.047   8.131 -1.6151 -2.4552  0.4195
  168SAPE  C22018996   2.981   0.046   8.037  0.0119 -0.4197 -0.1516
  168SAPE  H20R18997   2.890   0.109   8.035  0.8168  0.7274 -2.4584
  168SAPE  H20S18998   2.971  -0.062   8.061  0.5597 -0.2879  0.7001
  168SAPE  H20T18999   3.007   0.045   7.929 -1.2154  0.2743 -0.4576
  168SAPE   C3319000   3.211   0.221   7.127  0.3966 -0.0091 -0.2693
  168SAPE   H3X19001   3.307   0.259   7.169  0.1195  1.7658 -1.1724
  168SAPE   H3Y19002   3.213   0.112   7.109 -1.4214 -0.1219  0.1314
  168SAPE   C3419003   3.115   0.253   7.243 -0.3778 -0.3815  0.1787
  168SAPE   H4X19004   3.011   0.228   7.212 -0.8140 -0.3105  1.5419
  168SAPE   H4Y19005   3.108   0.360   7.274 -2.0479  0.3345 -2.4857
  168SAPE   C3519006   3.136   0.185   7.380 -0.4965 -0.2596  0.2452
  168SAPE   H5X19007   3.137   0.074   7.368  2.1695 -0.3236  0.7040
  168SAPE   H5Y19008   3.064   0.218   7.458 -1.4275  1.5495 -1.3369
  168SAPE   C3619009   3.273   0.208   7.439 -0.3119 -0.3458  0.0832
  168SAPE   H6X19010   3.292   0.316   7.426 -0.1599 -0.3761  0.0487
  168SAPE   H6Y19011   3.351   0.150   7.385 -0.6877 -1.6356  0.8879
  168SAPE   C3719012   3.284   0.157   7.580  0.0838  0.5205  0.2373
  168SAPE   H7X19013   3.187   0.163   7.634 -0.4605 -0.9544 -0.5236
  168SAPE   H7Y19014   3.350   0.213   7.649 -1.2763  0.5168  1.5635
  168SAPE   C3819015   3.311   0.010   7.582 -0.0584  0.2531 -0.8816
  168SAPE   H8X19016   3.390  -0.017   7.509 -0.6853  0.0567 -1.5000
  168SAPE   H8Y19017   3.210  -0.036   7.568 -0.5933  1.2673 -0.4233
  168SAPE   C3919018   3.358  -0.038   7.723 -0.0580  0.1528 -0.4025
  168SAPE   H9X19019   3.294   0.010   7.799  0.6902  2.2800 -1.0713
  168SAPE   H9Y19020   3.455   0.012   7.744 -0.6171  0.6222  1.1542
  168SAPE  C31019021   3.349  -0.188   7.760 -0.5575  0.5180  0.5631
  168SAPE  H10X19022   3.404  -0.250   7.685 -3.1771 -1.2559  0.0585
  168SAPE  H10Y19023   3.243  -0.218   7.752  0.1524 -1.8750 -0.4091
  168SAPE  C31119024   3.390  -0.215   7.904  0.1338 -0.2610  0.1663
  168SAPE  H11X19025   3.344  -0.144   7.976 -0.9493 -1.6554  0.8871
  168SAPE  H11Y19026   3.500  -0.220   7.917 -0.0276 -0.1932  1.6340
  168SAPE  C31219027   3.340  -0.348   7.963  0.2993 -0.1278  0.5840
  168SAPE  H12X19028   3.379  -0.433   7.902 -0.3011 -0.3240  0.4794
  168SAPE  H12Y19029   3.231  -0.352   7.947  0.2739  1.4752  0.3127
  168SAPE  C31319030   3.370  -0.369   8.111 -0.2919  0.6346  0.1160
  168SAPE  H13X19031   3.481  -0.366   8.121 -0.5033 -3.2718  5.1817
  168SAPE  H13Y19032   3.328  -0.470   8.129 -1.6359  1.4544  1.6855
  168SAPE  C31419033   3.305  -0.266   8.201  0.3456 -0.2166 -0.4072
  168SAPE  H14X19034   3.204  -0.250   8.157  0.4625 -0.9347 -0.9488
  168SAPE  H14Y19035   3.358  -0.169   8.208  3.8945 -2.0242 -0.8228
  168SAPE  C31519036   3.290  -0.326   8.345 -0.1212 -0.3865  0.4510
  168SAPE  H15X19037   3.384  -0.350   8.398 -0.1853 -0.7746  0.3903
  168SAPE  H15Y19038   3.242  -0.424   8.324 -1.8944  0.6716 -0.5648
  168SAPE  C31619039   3.197  -0.246   8.433  0.3387 -0.2525 -0.2898
  168SAPE  H16X19040   3.198  -0.304   8.528  0.5357  0.2353  0.0070
  168SAPE  H16Y19041   3.098  -0.265   8.386  0.0982  0.1441  0.0572
  168SAPE  C31719042   3.234  -0.092   8.448  0.0323  0.6052 -0.0538
  168SAPE  H17X19043   3.211  -0.039   8.353 -0.1827  0.4496 -0.0883
  168SAPE  H17Y19044   3.339  -0.078   8.481 -0.5050  3.2404  0.6754
  168SAPE  C31819045   3.151  -0.022   8.558 -0.1379 -0.4398 -0.0720
  168SAPE  H18X19046   3.154  -0.093   8.643  0.2187  2.2076  2.1966
  168SAPE  H18Y19047   3.053  -0.002   8.511  0.5037 -0.2581 -1.3702
  168SAPE  H18Z19048   3.195   0.076   8.586  2.3065 -1.0264 -1.7181
  169SAPE     N19049   2.980   1.986   6.271 -0.2230 -0.5176  0.0838
  169SAPE   HN119050   3.053   1.991   6.198  1.5247 -0.3649  1.7991
  169SAPE   HN219051   2.920   2.071   6.272 -1.8724 -1.6488  0.6429
  169SAPE   HN319052   3.015   1.968   6.368  0.4956  0.5095  0.0231
  169SAPE   C1219053   2.896   1.865   6.248 -0.2221 -0.2490 -0.4484
  169SAPE  H12A19054   2.888   1.807   6.342  1.1931 -1.5485 -1.1076
  169SAPE  H12B19055   2.953   1.812   6.169  3.1448  0.6237  1.2780
  169SAPE   C1119056   2.755   1.910   6.209 -0.2405 -0.0976 -0.1170
  169SAPE  H11A19057   2.694   1.818   6.205 -0.9099  0.3767 -0.7749
  169SAPE  H11B19058   2.755   1.962   6.111  2.7991 -0.4625 -0.3603
  169SAPE     P19059   2.551   2.052   6.290  0.2927  0.4890 -0.1964
  169SAPE   O1319060   2.524   2.162   6.389  0.2363 -0.1851  0.0747
  169SAPE   O1419061   2.526   2.089   6.146 -0.5924 -0.2010  0.8466
  169SAPE   O1219062   2.701   2.007   6.305  0.0215 -0.1517  0.2786
  169SAPE   O1119063   2.462   1.930   6.328  0.0680 -0.0430 -0.4618
  169SAPE    C119064   2.497   1.828   6.412 -0.2351  0.4436  0.5598
  169SAPE    HA19065   2.430   1.743   6.385  0.4632  0.2441 -0.5519
  169SAPE    HB19066   2.593   1.782   6.384  0.1805  1.4021  0.3965
  169SAPE    C219067   2.493   1.866   6.559 -0.0990 -0.1981 -0.1575
  169SAPE    HS19068   2.406   1.934   6.561 -0.4363 -0.6443  0.7895
  169SAPE   O2119069   2.619   1.921   6.600 -0.2471 -0.6531  0.5712
  169SAPE   C2119070   2.619   2.011   6.695 -0.4530  0.4039  0.0453
  169SAPE   O2219071   2.519   2.055   6.751 -0.0560 -0.3839  0.1077
  169SAPE   C2219072   2.765   2.050   6.725 -0.5658  0.7403  0.1172
  169SAPE   H2R19073   2.807   1.956   6.765  0.1213  1.1407  0.3408
  169SAPE   H2S19074   2.814   2.086   6.632 -1.2051  2.5731  0.4719
  169SAPE    C319075   2.464   1.744   6.649  0.3658 -0.9658  0.6869
  169SAPE    HX19076   2.560   1.687   6.655  1.6563  1.3404  2.5716
  169SAPE    HY19077   2.392   1.671   6.607  1.4990 -0.9396 -1.3903
  169SAPE   O3119078   2.422   1.779   6.783 -0.3524 -0.5237 -0.0390
  169SAPE   C3119079   2.300   1.847   6.793  0.7587 -0.5126 -0.4059
  169SAPE   O3219080   2.224   1.859   6.699 -0.0432  0.3992 -0.7172
  169SAPE   C3219081   2.302   1.912   6.932 -0.4008  0.1248 -0.9197
  169SAPE   H2X19082   2.380   1.992   6.938  0.8628 -1.0059 -1.9737
  169SAPE   H2Y19083   2.325   1.838   7.011  1.3122  0.7094 -0.8504
  169SAPE   C2319084   2.776   2.167   6.828  0.3596  0.1541  0.1502
  169SAPE   H3R19085   2.698   2.245   6.812 -0.0483 -0.3867 -0.5269
  169SAPE   H3S19086   2.858   2.235   6.799 -1.6598  1.7852 -1.9821
  169SAPE   C2419087   2.787   2.128   6.974  0.4420  0.0079 -0.2103
  169SAPE   H4R19088   2.893   2.099   6.991  0.4365 -0.9565 -1.7346
  169SAPE   H4S19089   2.716   2.049   7.002 -0.0218  0.0585 -1.2051
  169SAPE   C2519090   2.756   2.252   7.058 -0.4253  0.8803 -0.2411
  169SAPE   H5R19091   2.764   2.346   7.001 -0.6241  0.7908 -0.4194
  169SAPE   C2619092   2.699   2.253   7.182  0.0791  0.1784  0.8087
  169SAPE   H6R19093   2.674   2.348   7.230  0.0811  0.3197  0.5302
  169SAPE   C2719094   2.654   2.119   7.240 -0.3263 -0.2443 -0.3747
  169SAPE   H7R19095   2.742   2.051   7.240 -0.4760 -0.4886  3.1850
  169SAPE   H7S19096   2.602   2.049   7.171  1.5258 -1.5674 -0.4422
  169SAPE   C2819097   2.572   2.130   7.368 -0.1186 -0.0302 -0.0913
  169SAPE   H8R19098   2.464   2.117   7.352 -0.4098  3.3518 -1.4523
  169SAPE   C2919099   2.616   2.154   7.494  0.4593 -0.6095  0.5159
  169SAPE   H9R19100   2.544   2.155   7.577  3.1583  1.7495  2.9657
  169SAPE  C21019101   2.756   2.167   7.544  0.1807  0.0310  0.0703
  169SAPE  H10R19102   2.828   2.107   7.485 -0.4984  0.0764 -0.8176
  169SAPE  H10S19103   2.757   2.129   7.648  2.6537  2.0694  0.8335
  169SAPE  C21119104   2.802   2.308   7.532 -0.1197  0.2867 -0.2898
  169SAPE  H11R19105   2.852   2.345   7.442  0.3231 -0.6067 -0.4084
  169SAPE  C21219106   2.816   2.379   7.640 -0.1803 -0.1523  0.6862
  169SAPE  H12R19107   2.858   2.481   7.631  1.3430 -0.8056  0.3914
  169SAPE  C21319108   2.771   2.336   7.778  0.5063  0.7752  0.0105
  169SAPE  H13R19109   2.684   2.269   7.766  2.0109 -0.9258 -1.7100
  169SAPE  H13S19110   2.742   2.431   7.828  0.1873 -0.6740  2.7009
  169SAPE  C21419111   2.887   2.286   7.856 -0.0051  0.0943 -0.0093
  169SAPE  H14R19112   2.976   2.340   7.819 -0.1862 -0.3465 -1.0974
  169SAPE  C21519113   2.890   2.184   7.943  0.1065  0.7868 -0.2428
  169SAPE  H15R19114   2.987   2.169   7.993 -0.2526 -1.2349 -0.1063
  169SAPE  C21619115   2.770   2.104   7.995  0.3471 -0.1261 -0.0650
  169SAPE  H16R19116   2.751   2.016   7.930  0.1744 -1.3579  1.6364
  169SAPE  H16S19117   2.683   2.174   8.002  1.1742  1.0455 -1.1977
  169SAPE  C21719118   2.801   2.045   8.136 -0.0945  0.1077  0.4739
  169SAPE  H17R19119   2.882   1.971   8.117 -0.8115 -0.9061  1.3952
  169SAPE  H17S19120   2.703   2.000   8.161 -1.1804  1.8285 -0.5856
  169SAPE  C21819121   2.839   2.144   8.243  0.1457  0.2892  0.8059
  169SAPE  H18R19122   2.767   2.227   8.233  0.7414  0.4864 -2.4197
  169SAPE  H18S19123   2.937   2.190   8.217 -1.1035  2.1870 -0.6892
  169SAPE  C21919124   2.847   2.103   8.389 -0.6020  0.3662  0.4065
  169SAPE  H19R19125   2.742   2.095   8.424 -1.0826 -2.8344 -1.6240
  169SAPE  H19S19126   2.892   2.178   8.459  0.4928  0.1340 -0.0435
  169SAPE  C22019127   2.920   1.967   8.413  0.4072 -0.1716 -1.1665
  169SAPE  H20R19128   3.018   1.946   8.365  1.4378  0.1585  0.7431
  169SAPE  H20S19129   2.848   1.886   8.386  0.5749 -0.9614  0.7375
  169SAPE  H20T19130   2.930   1.975   8.523  1.9627  0.9618 -1.3795
  169SAPE   C3319131   2.171   1.979   6.962  0.1363 -0.2667 -0.0554
  169SAPE   H3X19132   2.087   1.908   6.977 -0.8994  0.6690 -1.3513
  169SAPE   H3Y19133   2.143   2.038   6.872  1.0298  0.4522  0.1253
  169SAPE   C3419134   2.179   2.061   7.091 -0.6116  0.1000  0.4025
  169SAPE   H4X19135   2.082   2.115   7.084  0.2097  1.5438 -0.0832
  169SAPE   H4Y19136   2.266   2.130   7.094  0.5236 -1.3704  2.6453
  169SAPE   C3519137   2.179   1.963   7.211 -0.4440 -0.4120  0.2459
  169SAPE   H5X19138   2.276   1.911   7.226 -0.4597 -0.9830 -1.6040
  169SAPE   H5Y19139   2.100   1.885   7.205  0.3206 -1.3399  1.7857
  169SAPE   C3619140   2.141   2.035   7.340 -0.9704  0.3965  0.3385
  169SAPE   H6X19141   2.052   2.101   7.335 -1.2692  0.0830  1.4971
  169SAPE   H6Y19142   2.233   2.093   7.361  0.8704 -1.9531 -0.9055
  169SAPE   C3719143   2.111   1.933   7.451  0.0765  0.1311  0.1659
  169SAPE   H7X19144   2.206   1.876   7.463 -0.0751 -0.2161 -0.2817
  169SAPE   H7Y19145   2.030   1.861   7.428 -0.9364  1.0568  0.7959
  169SAPE   C3819146   2.092   1.998   7.589 -0.0040  0.0381 -0.2741
  169SAPE   H8X19147   2.015   2.077   7.580  1.4962  1.5070 -0.2881
  169SAPE   H8Y19148   2.183   2.054   7.617  0.4231 -1.0697  0.5853
  169SAPE   C3919149   2.066   1.887   7.690  0.2482 -0.2648  0.3008
  169SAPE   H9X19150   2.127   1.801   7.654  1.6369  0.1295  1.6528
  169SAPE   H9Y19151   1.963   1.854   7.667  0.4934 -0.5063 -0.4577
  169SAPE  C31019152   2.076   1.929   7.838 -0.2925 -0.2174  0.1465
  169SAPE  H10X19153   2.029   2.028   7.859 -1.3384 -1.2506  2.8693
  169SAPE  H10Y19154   2.185   1.934   7.859 -0.2699 -0.1608  0.0198
  169SAPE  C31119155   1.996   1.833   7.937  0.3999 -0.3789  0.5488
  169SAPE  H11X19156   2.017   1.727   7.909  2.6854  0.0394  0.5884
  169SAPE  H11Y19157   1.887   1.847   7.924  0.1963 -1.7262  0.6811
  169SAPE  C31219158   2.018   1.849   8.085  0.5987  0.6756  0.2658
  169SAPE  H12X19159   1.988   1.954   8.108  1.4891  0.8949  0.4406
  169SAPE  H12Y19160   2.127   1.844   8.104  0.2105  1.6553  3.1299
  169SAPE  C31319161   1.937   1.739   8.167 -0.5879 -0.5745  0.1420
  169SAPE  H13X19162   1.981   1.638   8.174 -2.8353 -1.5335  0.8302
  169SAPE  H13Y19163   1.844   1.714   8.112 -1.2967  0.5379  0.8336
  169SAPE  C31419164   1.897   1.785   8.304  0.4235  0.8089  0.0890
  169SAPE  H14X19165   1.843   1.703   8.357 -1.5611  2.2152  0.3185
  169SAPE  H14Y19166   1.822   1.866   8.296  0.2179  0.4260 -1.9393
  169SAPE  C31519167   2.016   1.832   8.396  0.1406 -0.6317  0.3118
  169SAPE  H15X19168   2.054   1.930   8.360  2.7132 -0.8723  2.2586
  169SAPE  H15Y19169   2.097   1.762   8.367  0.7482  0.2005 -0.0130
  169SAPE  C31619170   1.980   1.841   8.544  0.4344 -0.7084  0.0903
  169SAPE  H16X19171   2.065   1.891   8.596 -1.2150  0.5158  1.6414
  169SAPE  H16Y19172   1.974   1.741   8.593  2.1056 -2.1063 -2.4615
  169SAPE  C31719173   1.856   1.923   8.587 -0.3874  0.2905 -0.1728
  169SAPE  H17X19174   1.769   1.882   8.533  0.0348 -0.0675 -0.5814
  169SAPE  H17Y19175   1.868   2.028   8.552  0.6352 -1.0127 -3.8662
  169SAPE  C31819176   1.834   1.923   8.741 -0.2395  0.2247 -0.1801
  169SAPE  H18X19177   1.898   1.992   8.800  0.3236 -0.2082 -0.2801
  169SAPE  H18Y19178   1.861   1.824   8.782  3.0199  1.3296  0.5410
  169SAPE  H18Z19179   1.725   1.930   8.760 -0.2213 -0.3003  0.1129
  170SAPE     N19180   4.141   6.449   6.357  0.1976  0.1960  0.4258
  170SAPE   HN119181   4.108   6.377   6.290  0.5282 -0.1039  0.5842
  170SAPE   HN219182   4.176   6.522   6.291 -0.5063 -1.5174 -1.8739
  170SAPE   HN319183   4.220   6.417   6.417  0.1638  0.1704  0.4557
  170SAPE   C1219184   4.027   6.501   6.435  0.9998 -0.3421  0.2582
  170SAPE  H12A19185   3.947   6.534   6.365  1.7292 -2.2821 -1.5094
  170SAPE  H12B19186   4.065   6.581   6.502 -2.8311  0.2650  1.8552
  170SAPE   C1119187   3.961   6.381   6.505  0.2024  0.7108  0.3397
  170SAPE  H11A19188   3.874   6.422   6.562 -0.7100  0.4113 -0.8281
  170SAPE  H11B19189   4.031   6.342   6.582  1.3547  0.6758 -0.7079
  170SAPE     P19190   3.809   6.287   6.306  0.6252  0.2949 -0.1971
  170SAPE   O1319191   3.864   6.367   6.197  0.4929 -0.6279  0.1498
  170SAPE   O1419192   3.761   6.151   6.273  0.2099  0.2955 -0.1520
  170SAPE   O1219193   3.923   6.278   6.417 -0.5028 -0.3007  0.4565
  170SAPE   O1119194   3.688   6.360   6.382 -0.2615  0.5709 -0.0667
  170SAPE    C119195   3.598   6.292   6.469 -0.5071  0.3492  0.6221
  170SAPE    HA19196   3.505   6.276   6.411 -0.0504 -2.6753  0.6418
  170SAPE    HB19197   3.636   6.194   6.506  1.8718  1.0896  0.2308
  170SAPE    C219198   3.551   6.384   6.586  0.2211  0.0692  0.1178
  170SAPE    HS19199   3.480   6.456   6.540  0.3338  0.2043  0.1540
  170SAPE   O2119200   3.657   6.456   6.645 -0.1338  0.0967 -0.4789
  170SAPE   C2119201   3.625   6.578   6.704 -0.0686 -0.1118 -1.0322
  170SAPE   O2219202   3.514   6.624   6.693  0.0712 -0.0152 -0.3519
  170SAPE   C2219203   3.751   6.648   6.742 -0.3167  0.3013 -0.0288
  170SAPE   H2R19204   3.840   6.610   6.688 -0.9382  1.9378 -2.2732
  170SAPE   H2S19205   3.734   6.747   6.695 -1.8785  0.7359  1.3871
  170SAPE    C319206   3.484   6.302   6.693 -0.5324 -0.4886  0.1445
  170SAPE    HX19207   3.456   6.371   6.776  0.7464 -1.1300  1.1237
  170SAPE    HY19208   3.556   6.233   6.742 -0.0172 -0.9055 -1.1646
  170SAPE   O3119209   3.374   6.226   6.646 -0.6699  0.0084 -0.6278
  170SAPE   C3119210   3.341   6.119   6.723  0.7514 -0.0299  0.5198
  170SAPE   O3219211   3.389   6.091   6.831  0.1505 -0.2597 -0.4882
  170SAPE   C3219212   3.225   6.043   6.655  0.0947 -0.1563 -0.2421
  170SAPE   H2X19213   3.246   5.937   6.679  1.7339  0.2525  0.2120
  170SAPE   H2Y19214   3.215   6.056   6.545 -0.3565 -2.4108 -0.4724
  170SAPE   C2319215   3.781   6.677   6.893 -1.1406  0.4244 -0.4251
  170SAPE   H3R19216   3.709   6.730   6.959  0.2760 -0.2523  1.6997
  170SAPE   H3S19217   3.865   6.750   6.886 -0.6968 -0.2589 -2.6342
  170SAPE   C2419218   3.849   6.557   6.970 -0.5162 -0.3659  0.6203
  170SAPE   H4R19219   3.893   6.590   7.067  0.8241 -2.5936  0.7772
  170SAPE   H4S19220   3.926   6.504   6.912 -0.0278  0.3492  0.6082
  170SAPE   C2519221   3.726   6.471   6.996 -0.4174 -0.1769 -0.2222
  170SAPE   H5R19222   3.686   6.420   6.907  0.9536 -1.1726 -0.2793
  170SAPE   C2619223   3.656   6.458   7.113 -1.1274  0.7473 -0.7320
  170SAPE   H6R19224   3.567   6.393   7.108 -0.8608  0.3051  0.0649
  170SAPE   C2719225   3.701   6.521   7.243 -0.4610 -0.1604  0.5726
  170SAPE   H7R19226   3.762   6.611   7.221 -2.0762  1.0850  1.0910
  170SAPE   H7S19227   3.760   6.452   7.308 -0.9775 -0.8656  0.2943
  170SAPE   C2819228   3.578   6.566   7.321 -0.0650  0.0707  0.0677
  170SAPE   H8R19229   3.544   6.669   7.304 -0.5016 -0.2121 -0.8111
  170SAPE   C2919230   3.524   6.492   7.413 -0.6430 -0.2285 -0.5532
  170SAPE   H9R19231   3.448   6.542   7.475  0.7586  0.3579  0.7105
  170SAPE  C21019232   3.577   6.355   7.447  0.4960  0.0932  0.1489
  170SAPE  H10R19233   3.682   6.361   7.483  1.0660  1.8150 -1.7606
  170SAPE  H10S19234   3.590   6.296   7.354 -1.2100  1.6312 -1.1041
  170SAPE  C21119235   3.486   6.279   7.547 -0.3832  0.2232  0.1648
  170SAPE  H11R19236   3.385   6.263   7.507 -0.1336  1.9117 -1.1698
  170SAPE  C21219237   3.524   6.238   7.673 -0.3045 -0.8218 -0.1811
  170SAPE  H12R19238   3.448   6.193   7.737 -0.9427 -1.5178 -1.4114
  170SAPE  C21319239   3.663   6.255   7.737 -0.4350 -0.1872 -0.3893
  170SAPE  H13R19240   3.737   6.259   7.654  0.8736  1.1508  0.8185
  170SAPE  H13S19241   3.684   6.164   7.797  1.2587 -0.5010 -1.4238
  170SAPE  C21419242   3.680   6.381   7.820 -0.5415 -0.3648 -0.2231
  170SAPE  H14R19243   3.629   6.467   7.775 -1.6285  0.2315  2.1019
  170SAPE  C21519244   3.743   6.404   7.937 -0.1228  0.3281  0.2329
  170SAPE  H15R19245   3.735   6.506   7.978 -0.5619  1.0303 -1.5481
  170SAPE  C21619246   3.812   6.296   8.019 -0.0589 -0.3145  0.5986
  170SAPE  H16R19247   3.902   6.349   8.057 -0.7094  1.7130 -0.6221
  170SAPE  H16S19248   3.860   6.212   7.964 -0.7502  0.4725 -1.2487
  170SAPE  C21719249   3.726   6.254   8.148  0.0947  1.1283  0.3571
  170SAPE  H17R19250   3.634   6.200   8.116  0.3614  1.3731 -0.8759
  170SAPE  H17S19251   3.690   6.349   8.192 -0.5945  0.9409  0.2133
  170SAPE  C21819252   3.814   6.178   8.247 -0.1947 -0.0225 -0.0177
  170SAPE  H18R19253   3.911   6.223   8.276 -0.9331  0.8496  1.1946
  170SAPE  H18S19254   3.846   6.086   8.193  0.3007  0.1770 -0.0600
  170SAPE  C21919255   3.736   6.146   8.376  0.1355 -0.3702  1.0220
  170SAPE  H19R19256   3.655   6.078   8.342  0.1452 -0.0100  0.2852
  170SAPE  H19S19257   3.700   6.241   8.421  1.2941  0.0630  1.0407
  170SAPE  C22019258   3.816   6.083   8.484  0.4467 -0.1506  0.0525
  170SAPE  H20R19259   3.891   6.020   8.430  0.5456  0.3987 -0.4526
  170SAPE  H20S19260   3.756   6.014   8.547  1.6906 -2.5118 -1.2714
  170SAPE  H20T19261   3.871   6.164   8.537  0.4739 -1.8879  2.7929
  170SAPE   C3319262   3.084   6.085   6.720 -0.2428 -0.1467  0.2738
  170SAPE   H3X19263   3.005   6.025   6.669 -1.2645 -0.9738  2.7495
  170SAPE   H3Y19264   3.068   6.188   6.682  1.0810  0.9626  2.5998
  170SAPE   C3419265   3.071   6.057   6.868 -0.6343 -0.2772 -0.3067
  170SAPE   H4X19266   3.144   6.104   6.937 -2.4215  0.7064  0.9393
  170SAPE   H4Y19267   3.088   5.948   6.881 -1.7437 -0.3509  0.6480
  170SAPE   C3519268   2.923   6.080   6.905  0.0227 -0.6175  0.4646
  170SAPE   H5X19269   2.853   6.042   6.827  2.2995  0.5338 -2.2406
  170SAPE   H5Y19270   2.898   6.189   6.911 -0.1810 -0.4273 -2.6742
  170SAPE   C3619271   2.890   6.009   7.040  0.0987 -0.1463 -0.4361
  170SAPE   H6X19272   2.963   6.044   7.116  0.7395 -0.8440 -0.7206
  170SAPE   H6Y19273   2.898   5.898   7.043  0.6560 -0.1557 -1.7616
  170SAPE   C3719274   2.750   6.054   7.097 -0.1983  0.0500 -0.3440
  170SAPE   H7X19275   2.668   6.015   7.033 -0.4688  0.0411  0.0129
  170SAPE   H7Y19276   2.763   6.164   7.093  0.3629  0.0919  1.9631
  170SAPE   C3819277   2.739   6.027   7.250  0.4948 -0.3209  0.0892
  170SAPE   H8X19278   2.828   6.073   7.298 -0.3522  2.3509 -0.7688
  170SAPE   H8Y19279   2.740   5.917   7.261  0.8920 -0.4984 -1.6523
  170SAPE   C3919280   2.612   6.095   7.305  0.1144 -0.5152 -0.4422
  170SAPE   H9X19281   2.520   6.034   7.295  0.1876 -0.5130 -1.1998
  170SAPE   H9Y19282   2.602   6.190   7.248 -1.1297 -0.7911 -0.6867
  170SAPE  C31019283   2.620   6.139   7.459  0.0487  0.2623 -0.0381
  170SAPE  H10X19284   2.710   6.201   7.478 -1.1450  1.2206  2.6090
  170SAPE  H10Y19285   2.626   6.041   7.512 -1.3547  0.1892 -0.0009
  170SAPE  C31119286   2.491   6.197   7.524 -0.6327  0.2283 -0.5687
  170SAPE  H11X19287   2.410   6.123   7.507 -0.4189 -0.5389  1.6241
  170SAPE  H11Y19288   2.476   6.297   7.476 -0.2453  0.0504 -1.0627
  170SAPE  C31219289   2.499   6.201   7.681 -0.4594  0.0125  0.2570
  170SAPE  H12X19290   2.592   6.258   7.704  0.8429 -1.9805 -0.0043
  170SAPE  H12Y19291   2.511   6.095   7.710  0.2091  0.4636  1.7246
  170SAPE  C31319292   2.378   6.255   7.765 -0.4869 -0.0874  0.0841
  170SAPE  H13X19293   2.304   6.177   7.737  0.7454 -1.5677  0.8729
  170SAPE  H13Y19294   2.339   6.356   7.740  0.5425  0.6594  1.3884
  170SAPE  C31419295   2.414   6.249   7.912  0.1792  0.3344 -0.1759
  170SAPE  H14X19296   2.505   6.310   7.931  0.9703 -0.6379 -0.8341
  170SAPE  H14Y19297   2.443   6.152   7.957 -0.3220  0.0485 -0.4627
  170SAPE  C31519298   2.314   6.318   8.004  0.0677 -0.6007  0.3756
  170SAPE  H15X19299   2.228   6.254   8.032 -0.1477  0.2250  1.6781
  170SAPE  H15Y19300   2.271   6.409   7.957 -1.9025 -0.9066  1.5160
  170SAPE  C31619301   2.380   6.366   8.130 -0.2703 -0.3392  0.0998
  170SAPE  H16X19302   2.473   6.421   8.107 -0.7477  0.6923  0.5985
  170SAPE  H16Y19303   2.408   6.279   8.193  1.1392  0.0904  0.0762
  170SAPE  C31719304   2.302   6.467   8.209  0.5899  0.5780  0.4123
  170SAPE  H17X19305   2.204   6.416   8.218 -0.4030  2.2357 -0.7136
  170SAPE  H17Y19306   2.286   6.565   8.158  0.9086 -0.0849 -0.9725
  170SAPE  C31819307   2.359   6.499   8.344 -0.0221  0.6244 -0.6788
  170SAPE  H18X19308   2.462   6.541   8.346  0.7689 -1.2894  0.7337
  170SAPE  H18Y19309   2.362   6.397   8.388  0.0218  0.9814  0.1513
  170SAPE  H18Z19310   2.293   6.555   8.414  2.1329  0.4656  1.5512
  171SAPE     N19311   5.039   0.602   6.215  0.0481 -0.0384 -0.3757
  171SAPE   HN119312   5.134   0.639   6.193 -1.2962  2.0533 -2.9571
  171SAPE   HN219313   4.986   0.675   6.265 -0.1385  0.1714 -0.8712
  171SAPE   HN319314   5.057   0.533   6.291 -0.3804  0.3219  0.0526
  171SAPE   C1219315   4.965   0.534   6.101  0.5717 -0.1211  0.4848
  171SAPE  H12A19316   5.009   0.432   6.106 -0.4884 -0.6242 -0.1467
  171SAPE  H12B19317   4.988   0.595   6.011  0.5641 -0.4693  0.2466
  171SAPE   C1119318   4.818   0.511   6.117  0.1929 -0.6524 -0.7194
  171SAPE  H11A19319   4.782   0.455   6.027 -1.5414 -1.2282  0.3215
  171SAPE  H11B19320   4.756   0.603   6.125  0.7528 -0.2752 -0.6873
  171SAPE     P19321   4.736   0.294   6.230  0.1436  0.0296 -0.1436
  171SAPE   O1319322   4.603   0.305   6.171  0.1242 -0.3040  0.0953
  171SAPE   O1419323   4.836   0.207   6.165  0.2035 -0.1726  0.1818
  171SAPE   O1219324   4.801   0.442   6.241  0.0821  0.2316 -0.7419
  171SAPE   O1119325   4.716   0.245   6.379 -0.0568  0.2866 -0.4512
  171SAPE    C119326   4.744   0.342   6.485 -0.4814  0.0272  0.4630
  171SAPE    HA19327   4.848   0.379   6.470 -0.5314 -1.0325 -2.8393
  171SAPE    HB19328   4.675   0.428   6.495 -1.5946 -0.8218  0.1649
  171SAPE    C219329   4.755   0.265   6.622  0.3384 -0.8507  0.2029
  171SAPE    HS19330   4.656   0.215   6.636 -0.7514  1.9055  2.8106
  171SAPE   O2119331   4.788   0.362   6.722  0.2924 -0.0337 -0.3782
  171SAPE   C2119332   4.677   0.414   6.780 -0.4096 -0.1461  0.3403
  171SAPE   O2219333   4.565   0.399   6.733  0.3130  0.1615  1.0555
  171SAPE   C2219334   4.713   0.509   6.892 -0.1085  0.4846 -0.9092
  171SAPE   H2R19335   4.810   0.484   6.940 -0.5745  0.2777 -0.0739
  171SAPE   H2S19336   4.719   0.616   6.863  0.2230  0.4769 -0.8714
  171SAPE    C319337   4.863   0.151   6.615 -0.0027  0.1263  0.4334
  171SAPE    HX19338   4.964   0.198   6.609 -0.0018  0.5196  2.7925
  171SAPE    HY19339   4.858   0.070   6.540  1.8076 -0.4006  0.8536
  171SAPE   O3119340   4.878   0.092   6.746 -0.5129  0.2155  0.0241
  171SAPE   C3119341   4.789  -0.007   6.773  0.0906 -0.2301 -0.1535
  171SAPE   O3219342   4.712  -0.056   6.692  0.0779  0.1535 -0.0027
  171SAPE   C3219343   4.793  -0.037   6.923 -0.1366  0.4741 -0.2187
  171SAPE   H2X19344   4.778   0.054   6.985 -0.6244  1.0481 -1.1818
  171SAPE   H2Y19345   4.894  -0.077   6.944  0.0093 -0.0307 -1.8050
  171SAPE   C2319346   4.605   0.491   7.003 -0.4263 -0.3764 -0.3036
  171SAPE   H3R19347   4.604   0.383   7.029  2.7662 -0.2246  0.5635
  171SAPE   H3S19348   4.497   0.499   6.978 -0.9075 -1.2132  1.4149
  171SAPE   C2419349   4.622   0.583   7.123  0.1549  0.1521 -0.2818
  171SAPE   H4R19350   4.545   0.575   7.204  0.6517 -1.5471  0.0439
  171SAPE   H4S19351   4.622   0.687   7.086  1.1084 -0.3942 -1.8781
  171SAPE   C2519352   4.762   0.552   7.179 -0.0591  0.4803 -0.5666
  171SAPE   H5R19353   4.848   0.603   7.133 -0.0787  2.5678  1.6313
  171SAPE   C2619354   4.794   0.489   7.297 -0.0850  0.3079  0.2277
  171SAPE   H6R19355   4.897   0.463   7.324  0.1455  0.6882 -0.2775
  171SAPE   C2719356   4.708   0.429   7.400  0.3172 -0.0809  0.0395
  171SAPE   H7R19357   4.628   0.503   7.419 -1.3838 -1.8159 -0.2655
  171SAPE   H7S19358   4.757   0.434   7.500  3.3803  2.5427 -1.4647
  171SAPE   C2819359   4.645   0.297   7.374  0.1371  0.4282  0.1102
  171SAPE   H8R19360   4.632   0.269   7.269  2.1508  0.4421 -0.1685
  171SAPE   C2919361   4.626   0.205   7.473  0.3883 -0.0428  0.0753
  171SAPE   H9R19362   4.590   0.109   7.434 -1.4469  0.5167  0.3324
  171SAPE  C21019363   4.657   0.199   7.624  0.6207  0.0747  0.3080
  171SAPE  H10R19364   4.673   0.303   7.658  0.9381 -0.2869  1.2659
  171SAPE  H10S19365   4.749   0.138   7.621  0.3046 -0.5445  2.3571
  171SAPE  C21119366   4.559   0.147   7.716  0.4329  0.0377  0.7157
  171SAPE  H11R19367   4.453   0.131   7.691 -0.4716 -0.0599  4.2410
  171SAPE  C21219368   4.593   0.121   7.848 -0.2518  0.0678  1.3551
  171SAPE  H12R19369   4.527   0.051   7.903 -0.7345  0.7663  1.6824
  171SAPE  C21319370   4.731   0.131   7.907 -0.0523 -0.0528  0.4411
  171SAPE  H13R19371   4.777   0.226   7.870 -2.7164  0.8582 -0.7084
  171SAPE  H13S19372   4.790   0.045   7.869  0.0003 -1.6624  4.0152
  171SAPE  C21419373   4.730   0.132   8.056 -0.0195  0.2250 -0.5082
  171SAPE  H14R19374   4.634   0.133   8.108  1.9385 -1.9873  3.3294
  171SAPE  C21519375   4.844   0.137   8.132  0.9428 -0.1520 -0.2695
  171SAPE  H15R19376   4.841   0.145   8.242 -1.4493  2.0548 -0.4435
  171SAPE  C21619377   4.980   0.160   8.071 -1.7235 -0.2434  0.1363
  171SAPE  H16R19378   4.972   0.248   8.004 -0.0123  1.7280  2.4499
  171SAPE  H16S19379   5.012   0.067   8.018 -0.3365  0.0365  0.4625
  171SAPE  C21719380   5.084   0.196   8.174  0.0352 -0.0745  0.1287
  171SAPE  H17R19381   5.047   0.278   8.239 -0.1774  1.0395 -1.3690
  171SAPE  H17S19382   5.169   0.230   8.111  0.1008 -0.0605  0.2262
  171SAPE  C21819383   5.131   0.084   8.260  0.6015  0.3658 -0.0040
  171SAPE  H18R19384   5.165  -0.007   8.206  0.3104 -0.5465  1.3276
  171SAPE  H18S19385   5.037   0.050   8.308 -0.2320  1.4564 -0.8218
  171SAPE  C21919386   5.238   0.118   8.353 -0.1904  0.3261 -0.3116
  171SAPE  H19R19387   5.254   0.226   8.375 -0.7001  0.3861 -0.2332
  171SAPE  H19S19388   5.325   0.088   8.291 -0.5070 -1.3847  0.0534
  171SAPE  C22019389   5.247   0.034   8.477  0.0162 -0.5563  0.1086
  171SAPE  H20R19390   5.319  -0.049   8.465  1.5634  0.9182 -1.1837
  171SAPE  H20S19391   5.150  -0.011   8.508  0.8560 -1.3171  1.6755
  171SAPE  H20T19392   5.285   0.088   8.566 -1.1469 -2.1130  1.5807
  171SAPE   C3319393   4.699  -0.148   6.957  0.4939 -0.0825 -0.0220
  171SAPE   H3X19394   4.719  -0.247   6.910  1.6893 -0.2600  0.8171
  171SAPE   H3Y19395   4.592  -0.123   6.944  0.0775 -1.6013  0.3675
  171SAPE   C3419396   4.715  -0.181   7.112  0.6018 -0.0123  0.4976
  171SAPE   H4X19397   4.717  -0.087   7.173 -0.4273 -0.6743  1.5792
  171SAPE   H4Y19398   4.815  -0.225   7.133  1.2726 -0.0072 -2.5303
  171SAPE   C3519399   4.610  -0.284   7.174  1.0495 -0.0067 -0.0398
  171SAPE   H5X19400   4.609  -0.382   7.121 -2.6778 -0.9663  1.6208
  171SAPE   H5Y19401   4.510  -0.237   7.166  1.1668  0.2113 -0.2147
  171SAPE   C3619402   4.646  -0.321   7.320  0.3470 -0.1407 -0.5952
  171SAPE   H6X19403   4.665  -0.233   7.386  0.7860  0.1256 -1.0764
  171SAPE   H6Y19404   4.747  -0.367   7.320  1.7551  2.6683  3.0129
  171SAPE   C3719405   4.551  -0.412   7.395  0.0501  0.1065  0.0049
  171SAPE   H7X19406   4.538  -0.492   7.320  0.9874 -0.9443  0.9544
  171SAPE   H7Y19407   4.452  -0.366   7.416 -0.1781 -0.6101  0.5033
  171SAPE   C3819408   4.609  -0.462   7.526  0.1999 -0.4739 -0.3581
  171SAPE   H8X19409   4.714  -0.490   7.502  0.4553 -0.3867  0.6419
  171SAPE   H8Y19410   4.554  -0.553   7.559 -1.5877 -0.0068 -1.9337
  171SAPE   C3919411   4.594  -0.365   7.645 -0.4729  0.2265 -0.0254
  171SAPE   H9X19412   4.484  -0.365   7.658 -0.5130  1.2073 -0.3874
  171SAPE   H9Y19413   4.627  -0.263   7.616 -1.5930  0.5329 -0.2421
  171SAPE  C31019414   4.659  -0.407   7.778  0.6966 -1.0954  0.4859
  171SAPE  H10X19415   4.626  -0.513   7.787 -0.4074 -0.6168  2.1545
  171SAPE  H10Y19416   4.614  -0.343   7.856 -0.2591 -2.4698  1.0784
  171SAPE  C31119417   4.814  -0.393   7.787 -0.7590  0.3041 -0.2165
  171SAPE  H11X19418   4.845  -0.293   7.749  1.7302 -0.1115  0.6568
  171SAPE  H11Y19419   4.849  -0.477   7.724  0.8463  1.4009 -0.8195
  171SAPE  C31219420   4.855  -0.405   7.933 -0.1904  0.1775 -0.1417
  171SAPE  H12X19421   4.842  -0.504   7.982  2.1405 -0.5879 -0.9875
  171SAPE  H12Y19422   4.785  -0.347   7.997  0.3329 -2.0304  2.5525
  171SAPE  C31319423   5.005  -0.345   7.963  0.4190 -0.4114  0.5629
  171SAPE  H13X19424   5.012  -0.239   7.932  4.2566 -0.5955  0.6458
  171SAPE  H13Y19425   5.074  -0.406   7.901 -0.6630  0.3773 -1.4958
  171SAPE  C31419426   5.055  -0.359   8.108 -0.1667  0.3442  0.3300
  171SAPE  H14X19427   4.982  -0.294   8.162 -0.1671  1.2194 -0.7081
  171SAPE  H14Y19428   5.155  -0.312   8.121  0.5086 -1.0174  0.1477
  171SAPE  C31519429   5.047  -0.504   8.158  0.5186  0.0242  0.6568
  171SAPE  H15X19430   5.100  -0.569   8.085 -0.1485  0.7027 -0.4374
  171SAPE  H15Y19431   4.940  -0.534   8.161  0.4696 -0.0894 -1.4325
  171SAPE  C31619432   5.100  -0.530   8.297 -0.2933  0.3069  0.3395
  171SAPE  H16X19433   5.033  -0.473   8.364 -0.4686  0.2404  0.2217
  171SAPE  H16Y19434   5.200  -0.482   8.302 -0.8228  1.4657 -0.0108
  171SAPE  C31719435   5.110  -0.681   8.340 -0.1147 -0.5891 -0.9056
  171SAPE  H17X19436   5.178  -0.720   8.261  1.3502  1.6545 -0.8088
  171SAPE  H17Y19437   5.011  -0.730   8.332  0.0203 -1.0723  0.2350
  171SAPE  C31819438   5.151  -0.704   8.483 -0.0557 -0.1980 -0.0720
  171SAPE  H18X19439   5.068  -0.680   8.552  1.0301  1.1764  0.7854
  171SAPE  H18Y19440   5.232  -0.633   8.510 -0.9564  0.5039  0.7963
  171SAPE  H18Z19441   5.175  -0.812   8.491 -1.5131 -0.4937  0.3696
  172SAPE     N19442   4.128   5.564   6.050  0.1715  0.1040 -0.2231
  172SAPE   HN119443   4.045   5.582   5.990 -0.6471  0.0883  0.8778
  172SAPE   HN219444   4.199   5.517   5.991 -0.3494 -0.7410 -0.1813
  172SAPE   HN319445   4.095   5.487   6.111  0.1358 -1.4775 -2.1913
  172SAPE   C1219446   4.172   5.689   6.121  0.2638 -0.0264 -0.4612
  172SAPE  H12A19447   4.101   5.715   6.203 -0.0838 -1.5863 -0.2420
  172SAPE  H12B19448   4.174   5.763   6.038 -0.5734 -1.4282 -1.7574
  172SAPE   C1119449   4.309   5.675   6.192  0.5015  0.3907 -0.6301
  172SAPE  H11A19450   4.311   5.754   6.270  1.1161  1.6062 -1.8568
  172SAPE  H11B19451   4.390   5.706   6.123  1.2540 -2.0278 -0.8705
  172SAPE     P19452   4.420   5.532   6.381  0.1273 -0.2609 -0.2421
  172SAPE   O1319453   4.547   5.462   6.358 -0.2626  0.2644  0.1371
  172SAPE   O1419454   4.421   5.655   6.457  0.6074 -0.3051 -0.5126
  172SAPE   O1219455   4.336   5.546   6.246  0.1899 -0.1949 -0.1771
  172SAPE   O1119456   4.323   5.428   6.457 -0.3522 -0.3983  0.4338
  172SAPE    C119457   4.179   5.449   6.472  0.3356 -0.4625 -0.2047
  172SAPE    HA19458   4.138   5.535   6.416  0.0670  0.8550  1.9262
  172SAPE    HB19459   4.117   5.365   6.436 -1.5140  1.2783 -1.1405
  172SAPE    C219460   4.149   5.495   6.616 -0.0468  0.4200  0.4744
  172SAPE    HS19461   4.217   5.584   6.621  1.1977 -0.5310  0.7773
  172SAPE   O2119462   4.173   5.394   6.718  0.2732  0.3808  0.1677
  172SAPE   C2119463   4.273   5.412   6.802 -0.3366  0.1298  0.6791
  172SAPE   O2219464   4.358   5.497   6.789 -0.0294  0.5992 -0.2554
  172SAPE   C2219465   4.271   5.311   6.918  0.3473 -0.4614 -0.0661
  172SAPE   H2R19466   4.165   5.282   6.933 -0.2460  2.1880  1.0550
  172SAPE   H2S19467   4.341   5.227   6.898 -1.6926 -1.8098 -1.8229
  172SAPE    C319468   4.007   5.531   6.646 -0.0539 -0.2478 -0.1084
  172SAPE    HX19469   3.946   5.439   6.634 -0.2840 -0.0803 -0.2345
  172SAPE    HY19470   3.969   5.604   6.571 -0.5105  1.4617  1.7333
  172SAPE   O3119471   3.987   5.583   6.778 -0.0282  0.1133 -0.2930
  172SAPE   C3119472   3.859   5.592   6.820 -0.8019 -0.0659  0.1854
  172SAPE   O3219473   3.766   5.560   6.752 -0.6581  0.1171  0.0052
  172SAPE   C3219474   3.851   5.664   6.950  0.3925 -0.7702 -0.0293
  172SAPE   H2X19475   3.744   5.691   6.959 -0.1444 -2.5460 -0.9358
  172SAPE   H2Y19476   3.906   5.760   6.945 -1.2967  0.2959  1.1565
  172SAPE   C2319477   4.320   5.390   7.043  0.1760  0.4018  1.1654
  172SAPE   H3R19478   4.256   5.481   7.051 -1.7206 -0.8637  0.6246
  172SAPE   H3S19479   4.425   5.425   7.027  0.7028 -1.3019  0.7627
  172SAPE   C2419480   4.299   5.306   7.172 -0.7797 -0.1780 -0.9932
  172SAPE   H4R19481   4.195   5.267   7.169  0.0087 -2.2871 -2.7807
  172SAPE   H4S19482   4.304   5.382   7.253  0.4081  0.3411 -1.5374
  172SAPE   C2519483   4.412   5.206   7.189 -0.2408 -0.6342  0.0180
  172SAPE   H5R19484   4.409   5.121   7.121 -0.7044 -1.2958  0.8544
  172SAPE   C2619485   4.498   5.203   7.290 -0.3002 -0.1267 -0.3063
  172SAPE   H6R19486   4.573   5.122   7.288 -0.1945 -0.0395  0.0494
  172SAPE   C2719487   4.512   5.291   7.405  0.8183  0.2654  0.0871
  172SAPE   H7R19488   4.470   5.391   7.379  0.5077  0.0173 -0.3772
  172SAPE   H7S19489   4.618   5.313   7.430  0.6233  2.0770 -0.6048
  172SAPE   C2819490   4.425   5.241   7.520  0.3102  0.0550 -0.3318
  172SAPE   H8R19491   4.318   5.238   7.494 -0.1855 -0.0522  1.5927
  172SAPE   C2919492   4.459   5.213   7.647 -0.1245  0.0004  0.7409
  172SAPE   H9R19493   4.384   5.191   7.725 -0.7461  0.4684  0.2766
  172SAPE  C21019494   4.598   5.220   7.692 -0.6770 -0.9754 -0.1172
  172SAPE  H10R19495   4.598   5.327   7.721 -0.7621  0.0341 -3.5721
  172SAPE  H10S19496   4.670   5.207   7.609 -1.1026  0.6743 -0.7606
  172SAPE  C21119497   4.633   5.127   7.806 -0.0916  0.2879 -0.0372
  172SAPE  H11R19498   4.671   5.033   7.762  3.3627  1.5084  0.1918
  172SAPE  C21219499   4.596   5.138   7.938 -0.3569 -0.1289  0.4459
  172SAPE  H12R19500   4.640   5.073   8.015 -1.9376 -0.0322  1.4419
  172SAPE  C21319501   4.524   5.260   7.997 -0.0823 -0.0374 -0.1524
  172SAPE  H13R19502   4.414   5.241   7.992 -0.3322  0.9944  1.0114
  172SAPE  H13S19503   4.526   5.343   7.924  1.5824 -0.9900 -1.2341
  172SAPE  C21419504   4.567   5.301   8.134  0.1209  0.2708  0.7096
  172SAPE  H14R19505   4.670   5.336   8.148  0.4748  0.0179 -1.1389
  172SAPE  C21519506   4.482   5.316   8.240 -0.8089  0.2378 -0.1350
  172SAPE  H15R19507   4.519   5.360   8.333 -0.6919 -1.0987  0.4678
  172SAPE  C21619508   4.334   5.288   8.238 -0.3447 -0.2203  0.3403
  172SAPE  H16R19509   4.316   5.184   8.205 -3.0650 -0.0167  1.0511
  172SAPE  H16S19510   4.275   5.347   8.164 -0.2204  3.1788  2.8031
  172SAPE  C21719511   4.266   5.316   8.375 -0.2049  0.7235  0.1724
  172SAPE  H17R19512   4.326   5.280   8.461  0.5880 -1.3440 -1.1872
  172SAPE  H17S19513   4.168   5.265   8.385  0.4108 -0.4187  0.4475
  172SAPE  C21819514   4.231   5.468   8.409 -0.3463  0.2518  0.1029
  172SAPE  H18R19515   4.150   5.512   8.346 -0.0442  1.8850  0.8283
  172SAPE  H18S19516   4.321   5.523   8.375  0.0823 -1.1726 -1.1362
  172SAPE  C21919517   4.201   5.495   8.557 -0.1019  0.3032 -0.4212
  172SAPE  H19R19518   4.115   5.432   8.585 -0.5772  1.3747  0.5566
  172SAPE  H19S19519   4.169   5.601   8.566  0.6126  0.4142  0.9000
  172SAPE  C22019520   4.319   5.471   8.651 -0.0304  0.8218  0.2783
  172SAPE  H20R19521   4.297   5.503   8.756 -2.8906 -1.1993  0.3650
  172SAPE  H20S19522   4.414   5.517   8.616  0.9150 -0.7668  0.7210
  172SAPE  H20T19523   4.340   5.363   8.657 -0.4767  0.7699  1.0330
  172SAPE   C3319524   3.891   5.565   7.065 -0.2178 -0.1271 -1.5786
  172SAPE   H3X19525   3.988   5.517   7.041  1.2808  2.9382 -1.7595
  172SAPE   H3Y19526   3.808   5.491   7.065 -1.4294  1.1537  1.5038
  172SAPE   C3419527   3.906   5.613   7.206 -0.6612 -0.2788  0.6209
  172SAPE   H4X19528   3.809   5.629   7.257  0.2307  2.5782  1.4745
  172SAPE   H4Y19529   3.973   5.700   7.222 -0.7674  0.3648 -2.2491
  172SAPE   C3519530   3.970   5.498   7.288 -0.1334  0.2604  0.1614
  172SAPE   H5X19531   4.077   5.490   7.257  0.0040  0.2561  0.6312
  172SAPE   H5Y19532   3.926   5.398   7.270  0.1061  0.1196  0.3456
  172SAPE   C3619533   3.976   5.511   7.442 -0.2635  0.0680 -0.3343
  172SAPE   H6X19534   3.883   5.477   7.491  0.1728 -1.6253 -0.6553
  172SAPE   H6Y19535   3.996   5.618   7.465  0.9575 -0.0017 -1.0120
  172SAPE   C3719536   4.099   5.438   7.510  0.1806  0.7252  0.3785
  172SAPE   H7X19537   4.183   5.482   7.452  1.0795 -1.5402 -0.1251
  172SAPE   H7Y19538   4.112   5.329   7.493  0.9623  0.4630  2.5622
  172SAPE   C3819539   4.098   5.464   7.659 -0.3225  0.4068 -0.9634
  172SAPE   H8X19540   4.064   5.569   7.675  0.5458  0.5484  0.0233
  172SAPE   H8Y19541   4.198   5.452   7.705 -0.8457 -0.3992 -0.0130
  172SAPE   C3919542   4.020   5.369   7.751 -0.3226  0.7272  0.3170
  172SAPE   H9X19543   4.064   5.268   7.738 -0.7438  0.4384  1.1033
  172SAPE   H9Y19544   3.914   5.365   7.719  0.1434 -0.3630 -1.1519
  172SAPE  C31019545   4.018   5.416   7.899 -0.5812 -0.9492 -0.4712
  172SAPE  H10X19546   3.947   5.501   7.897  2.0703  1.4849  2.8136
  172SAPE  H10Y19547   4.105   5.471   7.942  0.4482 -1.3350 -2.0040
  172SAPE  C31119548   3.972   5.302   7.997 -0.2029 -0.6638  0.0622
  172SAPE  H11X19549   4.057   5.233   8.018 -0.3801 -1.0605 -0.4934
  172SAPE  H11Y19550   3.896   5.244   7.939 -0.9587  0.8028 -0.4205
  172SAPE  C31219551   3.915   5.361   8.126 -0.0660 -0.2511 -0.1277
  172SAPE  H12X19552   3.828   5.428   8.107 -0.8449 -0.8370  1.2919
  172SAPE  H12Y19553   3.990   5.429   8.174  0.8866  1.7904 -4.2271
  172SAPE  C31319554   3.857   5.259   8.226 -0.1059 -1.2609 -0.3271
  172SAPE  H13X19555   3.939   5.185   8.243 -2.5403 -3.3953  2.7299
  172SAPE  H13Y19556   3.767   5.212   8.181 -0.7229  0.6423 -1.0983
  172SAPE  C31419557   3.815   5.325   8.356  0.1463  0.7061  0.2133
  172SAPE  H14X19558   3.723   5.385   8.336  0.5520  1.4147  0.4397
  172SAPE  H14Y19559   3.901   5.386   8.391 -0.9755  0.6886  3.1923
  172SAPE  C31519560   3.786   5.217   8.462 -0.3176 -0.5553 -0.6050
  172SAPE  H15X19561   3.860   5.135   8.446 -1.5624 -1.9231  0.4583
  172SAPE  H15Y19562   3.688   5.168   8.443  0.6053 -1.7973 -2.3000
  172SAPE  C31619563   3.813   5.275   8.603  0.1390 -0.1214  0.3535
  172SAPE  H16X19564   3.731   5.347   8.624  1.2716  0.9073  1.2975
  172SAPE  H16Y19565   3.910   5.329   8.602 -0.2086  0.4954 -0.1215
  172SAPE  C31719566   3.807   5.181   8.725 -0.4225 -0.3570 -0.1301
  172SAPE  H17X19567   3.806   5.249   8.813  1.3458  0.4893 -0.7232
  172SAPE  H17Y19568   3.903   5.125   8.735 -0.3066 -0.1902 -0.2898
  172SAPE  C31819569   3.692   5.083   8.726  0.1675 -0.6817  0.2898
  172SAPE  H18X19570   3.711   5.007   8.648  2.3262 -0.8653  0.9609
  172SAPE  H18Y19571   3.591   5.128   8.713 -0.2323 -1.9400 -1.0990
  172SAPE  H18Z19572   3.688   5.027   8.822  0.8370  0.4645  1.0091
  173SOPE     N19573   4.106   3.197  11.033  0.0858  0.1979 -0.3572
  173SOPE   HN119574   4.009   3.166  11.050 -1.2781  3.7786 -1.2690
  173SOPE   HN219575   4.129   3.163  10.937 -0.6426 -1.1773 -0.0523
  173SOPE   HN319576   4.159   3.146  11.106  2.3587  3.4678  0.4003
  173SOPE   C1219577   4.125   3.344  11.055  0.2223 -0.3846 -0.2567
  173SOPE  H12A19578   4.107   3.366  11.163 -0.2082 -1.4290 -0.1151
  173SOPE  H12B19579   4.041   3.393  11.002  1.9274  0.4874 -2.1861
  173SOPE   C1119580   4.260   3.397  11.022 -0.4043  0.0469 -0.3166
  173SOPE  H11A19581   4.319   3.369  11.111  1.0337  0.6512 -1.0714
  173SOPE  H11B19582   4.270   3.507  11.013 -2.1542  0.1482 -1.4704
  173SOPE     P19583   4.465   3.315  10.895  0.2578 -0.1475 -0.6123
  173SOPE   O1319584   4.506   3.202  10.982 -0.4804 -0.0964 -0.0715
  173SOPE   O1419585   4.538   3.444  10.902 -0.1435  0.3379 -0.0571
  173SOPE   O1219586   4.305   3.340  10.899 -0.9210  0.4025  0.2104
  173SOPE   O1119587   4.471   3.247  10.755  0.5737  0.1383  0.7640
  173SOPE    C119588   4.405   3.294  10.641 -0.4132  0.1833  0.7674
  173SOPE    HA19589   4.423   3.402  10.621 -1.0409 -0.2431 -2.3014
  173SOPE    HB19590   4.299   3.261  10.646  0.2201 -2.2691 -0.9384
  173SOPE    C219591   4.465   3.219  10.522 -0.2283 -0.9292 -0.0012
  173SOPE    HS19592   4.576   3.233  10.516  0.1765 -3.9648 -0.1845
  173SOPE   O2119593   4.395   3.254  10.399 -0.6372 -0.6747  0.0640
  173SOPE   C2119594   4.442   3.369  10.346 -0.3057 -0.0224 -0.3276
  173SOPE   O2219595   4.544   3.422  10.377  0.2670  0.1526 -0.5835
  173SOPE   C2219596   4.342   3.426  10.250 -0.1530 -0.1992  0.4899
  173SOPE   H2R19597   4.292   3.518  10.287 -1.3412 -0.7671  0.3177
  173SOPE   H2S19598   4.274   3.341  10.230 -1.0708  1.0418 -1.7690
  173SOPE    C319599   4.443   3.065  10.538  0.1772 -0.4981 -0.2990
  173SOPE    HX19600   4.334   3.060  10.560 -0.1215  0.6979 -1.4796
  173SOPE    HY19601   4.499   3.029  10.628 -2.2384  1.2693  1.9747
  173SOPE   O3119602   4.469   2.984  10.423  0.3025  0.2502  0.0911
  173SOPE   C3119603   4.600   2.971  10.385  0.2952 -0.0726 -0.0984
  173SOPE   O3219604   4.691   2.999  10.458  0.0748 -0.0151  0.0010
  173SOPE   C3219605   4.622   2.931  10.235 -0.0208 -0.1702 -0.5221
  173SOPE   H2X19606   4.723   2.886  10.245 -0.9023 -1.9143  0.9162
  173SOPE   H2Y19607   4.614   3.027  10.181 -3.2032  0.0709  0.2891
  173SOPE   C2319608   4.408   3.467  10.117 -0.6949  0.2978 -0.1497
  173SOPE   H3R19609   4.502   3.524  10.128 -0.5902 -0.1330  1.3288
  173SOPE   H3S19610   4.338   3.523  10.052 -1.6524  1.0414  1.4857
  173SOPE   C2419611   4.448   3.340  10.028 -0.6893 -0.2190  0.0814
  173SOPE   H4R19612   4.541   3.304  10.076 -1.0815 -1.3023  0.0221
  173SOPE   H4S19613   4.375   3.259  10.046 -1.7583  0.5534 -0.7029
  173SOPE   C2519614   4.466   3.386   9.881  0.1057  0.2642 -0.4641
  173SOPE   H5R19615   4.384   3.449   9.840  0.3584  0.1342 -1.1781
  173SOPE   H5S19616   4.562   3.442   9.876  0.2047  0.1291 -0.0901
  173SOPE   C2619617   4.471   3.259   9.792  0.0086 -0.6516 -0.1915
  173SOPE   H6R19618   4.540   3.186   9.842  1.1196  1.7125  1.8159
  173SOPE   H6S19619   4.368   3.217   9.790  0.3490 -1.5639  0.8201
  173SOPE   C2719620   4.520   3.285   9.648  0.0462  0.0988 -0.0114
  173SOPE   H7R19621   4.435   3.304   9.580 -0.0471  4.5224  1.1632
  173SOPE   H7S19622   4.585   3.375   9.649  0.5476 -0.2579 -0.2116
  173SOPE   C2819623   4.605   3.172   9.590  0.3519 -0.0314 -0.0783
  173SOPE   H8R19624   4.641   3.206   9.491 -0.1649 -0.1740 -0.3216
  173SOPE   H8S19625   4.693   3.160   9.656  0.3994 -1.0152 -0.3122
  173SOPE   C2919626   4.541   3.039   9.592 -1.1707  0.0043  0.6728
  173SOPE   H9119627   4.525   2.983   9.686  2.0650 -1.5999  0.3430
  173SOPE  C21019628   4.479   2.974   9.490  0.0851  0.0605  0.0801
  173SOPE  H10119629   4.438   2.874   9.508  0.3590 -0.2221 -0.8115
  173SOPE  C21119630   4.460   3.028   9.347  0.0235  0.3000 -0.2230
  173SOPE  H11R19631   4.557   3.067   9.310  0.3515 -1.1794 -0.9585
  173SOPE  H11S19632   4.388   3.113   9.352 -2.5582 -1.7796 -0.6900
  173SOPE  C21219633   4.400   2.929   9.249 -0.1490 -0.3118  0.1773
  173SOPE  H12R19634   4.300   2.891   9.277 -1.0975  2.7633  1.1765
  173SOPE  H12S19635   4.470   2.842   9.251  2.7429  1.9433  0.3504
  173SOPE  C21319636   4.383   2.997   9.115  0.9162  0.6678 -0.3037
  173SOPE  H13R19637   4.482   3.040   9.094  0.4706  1.1088 -1.5567
  173SOPE  H13S19638   4.322   3.089   9.129  1.2334  1.1952 -2.1855
  173SOPE  C21419639   4.329   2.904   9.003  0.4427 -0.0264 -0.1345
  173SOPE  H14R19640   4.222   2.878   9.017  0.0637  0.3636 -2.0857
  173SOPE  H14S19641   4.392   2.812   9.006  0.5751  0.0795  0.3978
  173SOPE  C21519642   4.340   2.966   8.860  0.0799 -0.3178  0.1339
  173SOPE  H15R19643   4.446   2.981   8.833 -0.2456  2.1971  0.1279
  173SOPE  H15S19644   4.283   3.061   8.868 -1.8267 -1.5773  2.0591
  173SOPE  C21619645   4.269   2.882   8.744  0.4463  0.8980  0.4300
  173SOPE  H16R19646   4.249   2.775   8.769 -0.2620  0.1877 -2.8655
  173SOPE  H16S19647   4.322   2.885   8.646 -2.4792  0.0821 -1.2740
  173SOPE  C21719648   4.137   2.951   8.711 -0.1253  0.0897  0.5266
  173SOPE  H17R19649   4.162   3.050   8.669  1.7021 -1.5516 -2.4316
  173SOPE  H17S19650   4.073   2.954   8.802  0.6330  0.6231  1.0472
  173SOPE  C21819651   4.057   2.873   8.599  0.0451  0.1076  0.4394
  173SOPE  H18R19652   4.102   2.884   8.498 -1.9894  1.6550 -0.3385
  173SOPE  H18S19653   3.948   2.894   8.607  0.0100  0.4464 -0.7638
  173SOPE  H18T19654   4.060   2.763   8.616 -0.8741  0.1062  0.6260
  173SOPE   C3319655   4.517   2.828  10.184  0.6484 -0.3490  0.2121
  173SOPE   H3X19656   4.414   2.843  10.222  0.1835 -0.9813 -0.7844
  173SOPE   H3Y19657   4.546   2.737  10.241 -1.3583  0.0683  1.9428
  173SOPE   C3419658   4.517   2.796  10.032  0.5904 -0.4605 -0.0662
  173SOPE   H4X19659   4.465   2.697  10.028 -0.8002  0.2706 -0.6141
  173SOPE   H4Y19660   4.624   2.792  10.004  0.0986  1.9002 -2.4971
  173SOPE   C3519661   4.446   2.905   9.952 -1.1088  0.7604 -0.9168
  173SOPE   H5X19662   4.507   2.995   9.930 -0.2823  0.1904 -0.9818
  173SOPE   H5Y19663   4.370   2.940  10.024  1.2983  0.5624  1.8213
  173SOPE   C3619664   4.371   2.861   9.821 -0.4459 -0.3266 -0.5944
  173SOPE   H6X19665   4.446   2.802   9.765  0.1643 -0.5804  0.4747
  173SOPE   H6Y19666   4.345   2.952   9.763  0.3023 -0.7706 -1.6384
  173SOPE   C3719667   4.247   2.787   9.862 -0.2645  0.2346  0.3095
  173SOPE   H7X19668   4.194   2.855   9.931  0.2429  0.9637 -0.0181
  173SOPE   H7Y19669   4.269   2.690   9.912  0.6364 -0.4254 -1.3012
  173SOPE   C3819670   4.154   2.746   9.743  0.1950 -0.1658 -0.0653
  173SOPE   H8X19671   4.211   2.672   9.683  1.0202  1.7507 -1.6944
  173SOPE   H8Y19672   4.135   2.835   9.679 -1.4719  1.5054  2.6914
  173SOPE   C3919673   4.022   2.676   9.788 -0.1587 -0.5600 -0.6810
  173SOPE   H9X19674   3.960   2.756   9.833  0.3015 -1.0154  0.8031
  173SOPE   H9Y19675   4.043   2.605   9.871 -0.0527 -0.3291 -0.5122
  173SOPE  C31019676   3.945   2.610   9.677 -0.1720 -0.5430  0.3596
  173SOPE  H10X19677   4.007   2.527   9.636 -0.1435 -0.6557  0.6316
  173SOPE  H10Y19678   3.960   2.680   9.591 -0.0368  0.8475  1.5020
  173SOPE  C31119679   3.803   2.569   9.699 -0.2856  0.5723 -0.6174
  173SOPE  H11X19680   3.745   2.663   9.682 -1.3633 -0.1925 -1.2808
  173SOPE  H11Y19681   3.790   2.542   9.806 -0.2780 -1.3406 -1.0809
  173SOPE  C31219682   3.750   2.466   9.601 -0.0391  0.8753  0.0962
  173SOPE  H12X19683   3.802   2.368   9.605 -2.4520 -0.4471  0.2330
  173SOPE  H12Y19684   3.757   2.507   9.498  2.1310 -1.2381 -0.6603
  173SOPE  C31319685   3.599   2.453   9.635  0.2266  0.3827 -0.0761
  173SOPE  H13X19686   3.553   2.431   9.536 -1.6983 -0.1270  0.9028
  173SOPE  H13Y19687   3.563   2.554   9.662  1.1378  0.5434  0.5402
  173SOPE  C31419688   3.547   2.351   9.739  0.3071 -0.2091 -0.5744
  173SOPE  H14X19689   3.580   2.251   9.705  0.5678 -0.7177  1.1414
  173SOPE  H14Y19690   3.437   2.347   9.727 -0.0300 -1.8188  2.8128
  173SOPE  C31519691   3.580   2.385   9.877 -0.0213  0.3844  0.7543
  173SOPE  H15X19692   3.558   2.491   9.905 -0.0953  0.0790  1.8890
  173SOPE  H15Y19693   3.690   2.374   9.893  0.1293  1.7661  0.7150
  173SOPE  C31619694   3.516   2.295   9.976 -0.2711  0.4512 -0.7926
  173SOPE  H16X19695   3.513   2.191   9.938 -2.2440 -0.3760  1.4511
  173SOPE  H16Y19696   3.411   2.329   9.992 -0.0176  1.3117 -0.9491
  173SOPE  C31719697   3.590   2.289  10.114 -0.3530 -0.5147 -0.6470
  173SOPE  H17X19698   3.631   2.386  10.148  0.3126 -0.7315 -0.8110
  173SOPE  H17Y19699   3.682   2.234  10.082  0.2391 -0.1951  0.4806
  173SOPE  C31819700   3.511   2.213  10.225 -0.0444  0.1093 -0.4573
  173SOPE  H18X19701   3.405   2.247  10.220 -1.1264 -2.5928  2.5554
  173SOPE  H18Y19702   3.559   2.224  10.325 -0.8534  2.1671 -0.2661
  173SOPE  H18Z19703   3.511   2.106  10.196  0.8837 -0.2296  0.7301
  174SOPE     N19704   4.143   2.602  10.894 -0.0151 -0.0046 -0.5530
  174SOPE   HN119705   4.169   2.510  10.934  0.7199  0.8874  1.0802
  174SOPE   HN219706   4.056   2.586  10.840  0.2306  2.6157 -1.8342
  174SOPE   HN319707   4.223   2.625  10.831 -0.1945  0.8477 -0.4864
  174SOPE   C1219708   4.123   2.701  11.005 -0.5503  0.3763 -0.1016
  174SOPE  H12A19709   4.202   2.693  11.083 -0.0556 -0.3833 -0.6676
  174SOPE  H12B19710   4.035   2.667  11.063  0.9354  0.1991  2.1305
  174SOPE   C1119711   4.102   2.843  10.960  0.1326  0.1320 -0.5290
  174SOPE  H11A19712   4.199   2.881  10.920  0.7960 -0.1654  0.7851
  174SOPE  H11B19713   4.075   2.911  11.043  0.7954 -0.7097  0.3792
  174SOPE     P19714   3.977   2.975  10.762  0.0720  0.1075 -0.0012
  174SOPE   O1319715   4.076   3.080  10.788 -0.0292  0.7224 -0.7376
  174SOPE   O1419716   3.832   3.010  10.758 -0.1637  0.1035  0.1021
  174SOPE   O1219717   3.997   2.854  10.864  0.0933 -0.1028 -0.1594
  174SOPE   O1119718   4.027   2.909  10.626 -0.2532 -0.7215 -0.1565
  174SOPE    C119719   4.122   2.812  10.616  0.5528  0.3121  0.4080
  174SOPE    HA19720   4.074   2.722  10.659 -1.6965  0.1417 -2.3471
  174SOPE    HB19721   4.216   2.835  10.671  1.6424 -0.8427 -0.9559
  174SOPE    C219722   4.170   2.797  10.463 -0.3156 -0.3563 -0.7408
  174SOPE    HS19723   4.213   2.891  10.422  1.0424 -0.6793 -0.1094
  174SOPE   O2119724   4.051   2.758  10.386  0.0970  0.0708  0.3255
  174SOPE   C2119725   4.064   2.749  10.258  1.1102  0.2950 -0.7202
  174SOPE   O2219726   4.157   2.778  10.186  0.2433 -1.3174  0.4539
  174SOPE   C2219727   3.942   2.669  10.211 -0.6272  0.5094  0.0431
  174SOPE   H2R19728   3.906   2.596  10.287  0.5912 -2.4249 -2.0678
  174SOPE   H2S19729   3.980   2.605  10.128 -0.6791  0.2114  0.2473
  174SOPE    C319730   4.279   2.691  10.453  0.2201 -0.3285  0.0982
  174SOPE    HX19731   4.358   2.708  10.529 -1.3732  1.5800  1.3523
  174SOPE    HY19732   4.317   2.688  10.348 -0.1208  0.1410 -0.0402
  174SOPE   O3119733   4.234   2.558  10.477 -0.4708  0.0682  0.5942
  174SOPE   C3119734   4.327   2.456  10.477  0.3568 -0.1133  1.0028
  174SOPE   O3219735   4.447   2.469  10.464 -0.3445 -0.2146 -0.2276
  174SOPE   C3219736   4.260   2.314  10.476 -0.3001 -0.2522  0.3035
  174SOPE   H2X19737   4.153   2.320  10.504  0.0171  0.6024  1.3596
  174SOPE   H2Y19738   4.294   2.246  10.556 -2.0768  2.4768  3.4844
  174SOPE   C2319739   3.821   2.758  10.177  0.2481 -0.1059  0.2593
  174SOPE   H3R19740   3.868   2.837  10.114  1.7055 -0.7265  0.5487
  174SOPE   H3S19741   3.783   2.804  10.271 -0.5609 -0.3922  0.0777
  174SOPE   C2419742   3.724   2.675  10.093  0.4896  0.2141  0.1265
  174SOPE   H4R19743   3.786   2.626  10.016 -1.7947 -2.3428 -0.1569
  174SOPE   H4S19744   3.684   2.595  10.159  3.6314 -0.3006  1.5009
  174SOPE   C2519745   3.618   2.757  10.017  0.3805 -0.0554  0.0537
  174SOPE   H5R19746   3.556   2.679   9.968 -1.5060  0.4213  1.6279
  174SOPE   H5S19747   3.551   2.808  10.089  1.2140  0.4474  0.4774
  174SOPE   C2619748   3.668   2.839   9.900  0.5186  0.5437 -0.2170
  174SOPE   H6R19749   3.725   2.927   9.935 -2.9430  2.3608  1.1848
  174SOPE   H6S19750   3.742   2.780   9.841 -1.1902 -0.5352 -1.3432
  174SOPE   C2719751   3.540   2.885   9.820  0.9361 -0.0716 -0.1390
  174SOPE   H7R19752   3.473   2.803   9.787  0.1977 -1.1959  3.8730
  174SOPE   H7S19753   3.474   2.939   9.891  1.0016  0.2068 -0.2865
  174SOPE   C2819754   3.583   2.984   9.710  0.2764 -0.1080 -1.0754
  174SOPE   H8R19755   3.494   3.041   9.675 -0.2807  1.1911  2.2437
  174SOPE   H8S19756   3.642   3.064   9.758  0.8822  0.0841 -2.1425
  174SOPE   C2919757   3.662   2.918   9.602 -0.2472  0.2022  0.4206
  174SOPE   H9119758   3.771   2.924   9.613  0.0395 -0.1178 -2.0088
  174SOPE  C21019759   3.608   2.858   9.494  0.4181 -0.0580 -0.5420
  174SOPE  H10119760   3.669   2.818   9.412 -3.0431  1.3614 -3.9748
  174SOPE  C21119761   3.460   2.842   9.466  0.0645 -0.2913 -0.9020
  174SOPE  H11R19762   3.393   2.896   9.536  2.9277  1.3320  0.6751
  174SOPE  H11S19763   3.435   2.737   9.490  0.6582  0.0222  1.1439
  174SOPE  C21219764   3.441   2.869   9.319  0.3284 -0.1595 -0.6045
  174SOPE  H12R19765   3.471   2.779   9.262  0.6885 -0.0694 -0.5597
  174SOPE  H12S19766   3.507   2.953   9.289  0.7762 -0.2379  0.1386
  174SOPE  C21319767   3.293   2.890   9.282  0.1620  0.6231 -0.3850
  174SOPE  H13R19768   3.257   2.963   9.358 -3.2983 -1.7735  0.3936
  174SOPE  H13S19769   3.255   2.791   9.314 -0.4910  0.8298 -0.5171
  174SOPE  C21419770   3.260   2.931   9.145  0.1281 -0.1053  0.2790
  174SOPE  H14R19771   3.298   3.035   9.136 -2.1384  0.4789 -3.5180
  174SOPE  H14S19772   3.149   2.929   9.137  0.2075 -1.8620 -0.5140
  174SOPE  C21519773   3.301   2.832   9.040  0.5288  0.1193  0.1683
  174SOPE  H15R19774   3.240   2.740   9.055 -1.2562  1.3040  0.4342
  174SOPE  H15S19775   3.409   2.808   9.048  0.5368  0.1945  0.2873
  174SOPE  C21619776   3.265   2.869   8.895 -0.2557 -0.1459  0.0756
  174SOPE  H16R19777   3.323   2.959   8.865  1.6610 -1.3419  0.0991
  174SOPE  H16S19778   3.156   2.888   8.890 -0.1334  1.3415  2.3028
  174SOPE  C21719779   3.300   2.763   8.798 -0.3739  0.2385 -0.0862
  174SOPE  H17R19780   3.230   2.678   8.807  2.9648 -2.6723 -0.5388
  174SOPE  H17S19781   3.402   2.735   8.832 -0.1708 -0.4947 -1.2761
  174SOPE  C21819782   3.291   2.817   8.658 -0.2403  0.0320  0.4294
  174SOPE  H18R19783   3.186   2.845   8.634 -0.2022  1.7669  2.1197
  174SOPE  H18S19784   3.315   2.740   8.582  0.2426  0.6407 -0.0412
  174SOPE  H18T19785   3.366   2.897   8.638 -0.6666  0.4252  0.4122
  174SOPE   C3319786   4.270   2.249  10.335 -0.8508 -0.2171 -0.0923
  174SOPE   H3X19787   4.226   2.149  10.354  0.1716 -0.6159  0.1553
  174SOPE   H3Y19788   4.376   2.229  10.308 -0.1508  3.0376 -0.0114
  174SOPE   C3419789   4.196   2.319  10.222 -0.3737 -0.3691 -0.1527
  174SOPE   H4X19790   4.250   2.414  10.199  0.6862 -0.5974  1.3030
  174SOPE   H4Y19791   4.094   2.333  10.265 -0.0430  0.6322  0.3271
  174SOPE   C3519792   4.193   2.236  10.094  0.6600  0.2010 -0.0219
  174SOPE   H5X19793   4.179   2.127  10.115  0.3789  0.5325  1.5440
  174SOPE   H5Y19794   4.297   2.230  10.055  1.1575 -0.1389  1.3486
  174SOPE   C3619795   4.107   2.274   9.977  0.3632  0.1967  0.2837
  174SOPE   H6X19796   4.134   2.375   9.940 -0.7934 -0.2056 -1.7266
  174SOPE   H6Y19797   4.002   2.291  10.010  0.1065 -0.2796 -0.2893
  174SOPE   C3719798   4.124   2.185   9.858 -0.5004  0.6313  1.1714
  174SOPE   H7X19799   4.114   2.078   9.888 -1.1331  0.5061  0.5143
  174SOPE   H7Y19800   4.225   2.177   9.812 -0.5263  1.6574  0.9293
  174SOPE   C3819801   4.015   2.208   9.751  0.1161  0.2577  0.0955
  174SOPE   H8X19802   4.039   2.304   9.700  1.4338 -0.3039 -0.3407
  174SOPE   H8Y19803   3.916   2.214   9.801  0.0487 -0.2000  0.0177
  174SOPE   C3919804   4.000   2.098   9.641 -0.4857  0.4034 -0.1787
  174SOPE   H9X19805   3.899   2.053   9.647 -0.5757  0.2748 -2.3633
  174SOPE   H9Y19806   4.094   2.039   9.650  1.0675  2.9900  1.2653
  174SOPE  C31019807   4.001   2.172   9.507 -0.6792 -0.1331 -0.2076
  174SOPE  H10X19808   4.075   2.254   9.503 -0.2453 -0.5175 -0.1869
  174SOPE  H10Y19809   3.906   2.221   9.478 -1.5745 -1.4394  0.4211
  174SOPE  C31119810   4.037   2.078   9.390 -0.0107  0.3166 -0.0394
  174SOPE  H11X19811   3.962   1.997   9.394  0.0040  0.3128  0.1302
  174SOPE  H11Y19812   4.134   2.026   9.409 -0.9975 -1.3163  0.6372
  174SOPE  C31219813   4.036   2.156   9.255 -0.0953  0.6408 -0.2695
  174SOPE  H12X19814   4.117   2.231   9.260 -2.1176  2.7323  2.1498
  174SOPE  H12Y19815   3.938   2.207   9.247 -0.7877 -0.7249 -0.6861
  174SOPE  C31319816   4.066   2.059   9.143 -0.3393 -0.5055  0.1457
  174SOPE  H13X19817   3.970   2.009   9.118 -0.4815 -0.5103  0.6964
  174SOPE  H13Y19818   4.138   1.984   9.182 -0.1281 -0.5269 -0.2834
  174SOPE  C31419819   4.105   2.126   9.012  0.0039 -0.2811 -0.1900
  174SOPE  H14X19820   4.120   2.036   8.948  3.4767 -0.3619  0.6323
  174SOPE  H14Y19821   4.210   2.163   9.013  0.0646 -0.4191 -1.1768
  174SOPE  C31519822   4.002   2.227   8.960 -0.8125  0.2446  0.0348
  174SOPE  H15X19823   4.004   2.325   9.012 -2.0849  0.4886 -0.3534
  174SOPE  H15Y19824   3.902   2.182   8.980 -0.2520 -0.7733  0.6034
  174SOPE  C31619825   4.007   2.244   8.802 -0.2155 -1.0072 -0.4096
  174SOPE  H16X19826   4.027   2.145   8.757 -1.2269 -1.4802  0.1581
  174SOPE  H16Y19827   4.103   2.299   8.788 -0.4173 -0.5384  0.0155
  174SOPE  C31719828   3.882   2.311   8.749 -0.3619 -0.4610  0.0650
  174SOPE  H17X19829   3.797   2.241   8.762 -1.4664  0.7826 -0.3018
  174SOPE  H17Y19830   3.890   2.325   8.639  0.2073 -3.3398 -0.2865
  174SOPE  C31819831   3.855   2.442   8.821 -0.1980  0.4392 -0.2320
  174SOPE  H18X19832   3.796   2.428   8.914 -2.1226 -1.9146 -1.7358
  174SOPE  H18Y19833   3.801   2.512   8.753 -0.1858 -0.1879 -0.8965
  174SOPE  H18Z19834   3.955   2.487   8.838  0.2058 -0.7052  0.4083
  175SOPE     N19835   6.465   4.278  10.588  0.5733  0.1700  0.3969
  175SOPE   HN119836   6.381   4.279  10.526  2.0730  1.2578 -1.6671
  175SOPE   HN219837   6.522   4.365  10.586  0.8285  0.0874  2.7019
  175SOPE   HN319838   6.527   4.198  10.563  0.0665  0.7549 -3.0004
  175SOPE   C1219839   6.413   4.259  10.730 -0.1275  0.5771 -0.6782
  175SOPE  H12A19840   6.388   4.362  10.760  0.4609  1.5497 -3.3748
  175SOPE  H12B19841   6.496   4.208  10.783  0.8951  0.6886 -2.1454
  175SOPE   C1119842   6.287   4.170  10.736 -0.3781  0.0881 -0.1851
  175SOPE  H11A19843   6.252   4.176  10.841 -0.1991  1.2398 -0.1808
  175SOPE  H11B19844   6.314   4.067  10.705 -0.8758 -0.1008  0.0092
  175SOPE     P19845   6.068   4.153  10.605  0.4655  0.5234  0.0064
  175SOPE   O1319846   5.944   4.238  10.600  0.2393 -0.4707  0.1129
  175SOPE   O1419847   6.050   4.034  10.695 -0.3146 -0.0413 -0.2252
  175SOPE   O1219848   6.193   4.236  10.652 -0.4315  0.5722 -0.0068
  175SOPE   O1119849   6.110   4.111  10.458  0.3106  0.5050 -0.0406
  175SOPE    C119850   6.175   4.204  10.369 -0.5805  0.3021  0.3828
  175SOPE    HA19851   6.277   4.171  10.341 -0.9921 -1.5849  1.0524
  175SOPE    HB19852   6.174   4.310  10.400  0.8447  0.0027  1.5139
  175SOPE    C219853   6.101   4.210  10.234  0.0108 -0.5705  0.0291
  175SOPE    HS19854   6.122   4.307  10.182 -3.7917 -0.3392 -1.1726
  175SOPE   O2119855   5.960   4.194  10.249 -0.1252  0.1493 -0.7402
  175SOPE   C2119856   5.904   4.292  10.302 -1.0099  0.0853  0.1961
  175SOPE   O2219857   5.957   4.407  10.318  0.7218  0.1618 -0.3954
  175SOPE   C2219858   5.762   4.251  10.339 -0.2236  0.5990 -0.4622
  175SOPE   H2R19859   5.744   4.275  10.446 -0.0667 -0.3836 -0.2138
  175SOPE   H2S19860   5.749   4.143  10.319  2.2440 -0.1428  1.6703
  175SOPE    C319861   6.160   4.094  10.143  0.2113 -0.1069  0.6852
  175SOPE    HX19862   6.140   3.996  10.191  0.0148  0.2769  1.3942
  175SOPE    HY19863   6.268   4.120  10.137 -0.7768  4.3559  0.1777
  175SOPE   O3119864   6.100   4.101  10.006  0.4859 -0.7554  0.1823
  175SOPE   C3119865   6.012   4.009   9.980 -0.2723 -0.3127 -0.1070
  175SOPE   O3219866   5.982   3.915  10.049 -0.0611 -0.0191  0.2349
  175SOPE   C3219867   5.961   4.023   9.839 -0.6173  0.3752 -0.1954
  175SOPE   H2X19868   5.850   4.027   9.844 -0.6610 -0.0409 -0.7676
  175SOPE   H2Y19869   5.998   3.937   9.780  2.6242  0.5484  1.4913
  175SOPE   C2319870   5.657   4.329  10.258  0.6530  0.1176  0.1473
  175SOPE   H3R19871   5.652   4.433  10.297 -0.5469 -0.2101  0.9068
  175SOPE   H3S19872   5.554   4.295  10.282 -0.5885  2.7789 -1.2255
  175SOPE   C2419873   5.678   4.334  10.107 -0.2683  0.2581  0.0846
  175SOPE   H4R19874   5.629   4.428  10.072  0.7817  0.7209 -0.1735
  175SOPE   H4S19875   5.784   4.333  10.075  0.3169  1.3893  1.8896
  175SOPE   C2519876   5.603   4.218  10.039  0.8792  1.0887 -0.2276
  175SOPE   H5R19877   5.667   4.128  10.040 -2.1190 -1.1040  1.8413
  175SOPE   H5S19878   5.509   4.184  10.085  0.5452 -1.5630 -2.7492
  175SOPE   C2619879   5.575   4.252   9.897 -0.5051  0.4390  0.0856
  175SOPE   H6R19880   5.520   4.348   9.899 -2.1444 -0.4826  2.7423
  175SOPE   H6S19881   5.672   4.269   9.847  0.4057 -1.3223  1.1796
  175SOPE   C2719882   5.494   4.149   9.812 -0.3110 -0.3934  0.1582
  175SOPE   H7R19883   5.546   4.051   9.817  1.3654  0.4568 -0.2643
  175SOPE   H7S19884   5.386   4.148   9.842 -0.1024 -0.5963  0.9166
  175SOPE   C2819885   5.504   4.189   9.663  0.3373  0.2550 -0.1206
  175SOPE   H8R19886   5.440   4.280   9.667 -0.5018 -0.2644 -1.6692
  175SOPE   H8S19887   5.608   4.201   9.626 -1.0190  2.6000 -3.3333
  175SOPE   C2919888   5.427   4.082   9.588  0.5922  0.5304  0.9211
  175SOPE   H9119889   5.433   3.978   9.625 -2.9285 -0.4837 -1.0729
  175SOPE  C21019890   5.352   4.105   9.478  0.0626 -0.1451 -0.4340
  175SOPE  H10119891   5.303   4.014   9.439 -0.3627 -0.5272  0.9428
  175SOPE  C21119892   5.321   4.232   9.405  0.2220  0.5442  0.3934
  175SOPE  H11R19893   5.412   4.293   9.386  1.9279 -1.8969  0.4514
  175SOPE  H11S19894   5.244   4.287   9.463  0.5197 -1.0682  2.3734
  175SOPE  C21219895   5.269   4.210   9.259 -0.1607 -0.1492  0.4749
  175SOPE  H12R19896   5.242   4.310   9.218  2.2153  0.8779  1.3043
  175SOPE  H12S19897   5.179   4.146   9.267 -0.1896  0.0616  1.9035
  175SOPE  C21319898   5.377   4.148   9.169 -0.8053  0.1424 -0.2284
  175SOPE  H13R19899   5.404   4.050   9.214  3.0344  1.2488  0.0358
  175SOPE  H13S19900   5.467   4.213   9.177  0.6163 -1.7034 -1.0444
  175SOPE  C21419901   5.349   4.143   9.018 -0.1091 -0.4036  0.0384
  175SOPE  H14R19902   5.301   4.242   9.006  1.5376  0.3845 -0.1289
  175SOPE  H14S19903   5.262   4.074   9.009 -1.3879  0.9631  1.6394
  175SOPE  C21519904   5.472   4.096   8.936  0.0920  0.2629  0.0779
  175SOPE  H15R19905   5.496   3.992   8.966 -0.3999  0.0357 -0.2962
  175SOPE  H15S19906   5.552   4.171   8.956  0.0012  0.2622  0.4368
  175SOPE  C21619907   5.430   4.101   8.793  0.2196 -0.8208  0.6624
  175SOPE  H16R19908   5.378   4.197   8.771  2.1987  0.7298  2.5190
  175SOPE  H16S19909   5.349   4.028   8.772 -0.5137  0.1605  0.0197
  175SOPE  C21719910   5.560   4.085   8.717  0.5515  0.1485  0.4618
  175SOPE  H17R19911   5.612   3.988   8.733  0.9769  0.3423  0.2530
  175SOPE  H17S19912   5.626   4.167   8.753 -0.1723  0.3381  1.3582
  175SOPE  C21819913   5.530   4.095   8.568 -0.0268  0.6075 -0.0924
  175SOPE  H18R19914   5.488   4.002   8.523 -1.5017  1.1192  0.1660
  175SOPE  H18S19915   5.623   4.130   8.519  0.7107  2.5663  2.5739
  175SOPE  H18T19916   5.464   4.184   8.551  2.5026  2.5963  0.2693
  175SOPE   C3319917   6.004   4.145   9.763 -0.0100  0.9838 -0.8860
  175SOPE   H3X19918   6.115   4.140   9.755 -0.0264 -0.0267 -0.6009
  175SOPE   H3Y19919   5.978   4.235   9.822 -1.1799 -0.0176  0.1168
  175SOPE   C3419920   5.945   4.149   9.622  0.2009 -0.3834  0.5114
  175SOPE   H4X19921   5.834   4.152   9.623  0.2375  1.0676  1.4836
  175SOPE   H4Y19922   5.976   4.055   9.571 -1.9416 -0.5032 -0.6278
  175SOPE   C3519923   6.000   4.258   9.532 -0.0632 -0.9981 -0.1611
  175SOPE   H5X19924   6.111   4.246   9.535  0.0837 -0.2103 -1.8401
  175SOPE   H5Y19925   5.977   4.361   9.567  0.1409 -0.5797 -1.2222
  175SOPE   C3619926   5.945   4.245   9.383  0.5690 -0.2640 -0.4184
  175SOPE   H6X19927   5.849   4.301   9.374  2.3084  2.5718 -1.9533
  175SOPE   H6Y19928   5.937   4.140   9.348  0.1524 -0.7448  1.0902
  175SOPE   C3719929   6.032   4.310   9.278 -0.2782 -0.9695  0.0247
  175SOPE   H7X19930   6.139   4.279   9.285  0.1218  0.6319  1.3211
  175SOPE   H7Y19931   6.041   4.419   9.294  0.4119 -0.2957 -4.3606
  175SOPE   C3819932   5.989   4.286   9.129  0.1179  0.4952  0.1085
  175SOPE   H8X19933   5.878   4.293   9.124  0.1835  2.0644  0.7340
  175SOPE   H8Y19934   6.006   4.179   9.102 -0.6740  0.1212  1.0510
  175SOPE   C3919935   6.065   4.378   9.028 -0.0058 -0.2339 -0.2258
  175SOPE   H9X19936   6.176   4.370   9.027  0.1197  1.3230 -0.4435
  175SOPE   H9Y19937   6.043   4.478   9.072 -2.2935 -1.2282  0.9975
  175SOPE  C31019938   6.002   4.372   8.891 -0.0228 -0.7041 -0.6163
  175SOPE  H10X19939   5.898   4.410   8.895 -0.7130 -2.5136 -1.0317
  175SOPE  H10Y19940   6.017   4.266   8.861  3.2008 -0.9574  1.5370
  175SOPE  C31119941   6.082   4.452   8.789  0.3205  0.3650  0.6318
  175SOPE  H11X19942   6.186   4.417   8.805  0.3035 -1.8228 -3.3584
  175SOPE  H11Y19943   6.079   4.561   8.810 -1.9229  0.5777 -0.6694
  175SOPE  C31219944   6.033   4.415   8.646  0.1935 -0.0093 -0.3742
  175SOPE  H12X19945   5.923   4.405   8.639  0.2357 -1.0532  0.3489
  175SOPE  H12Y19946   6.067   4.312   8.621  0.1427  0.1366 -1.0555
  175SOPE  C31319947   6.069   4.524   8.541 -0.9091  0.2122 -0.1693
  175SOPE  H13X19948   6.178   4.516   8.523 -0.7539 -1.1276  1.2437
  175SOPE  H13Y19949   6.045   4.625   8.583 -6.2942 -1.8025  1.9937
  175SOPE  C31419950   5.995   4.514   8.413  0.2735 -0.4193 -0.1433
  175SOPE  H14X19951   6.029   4.593   8.343  1.4434 -0.9645 -0.1921
  175SOPE  H14Y19952   5.890   4.539   8.440 -0.5047 -2.5611 -1.0712
  175SOPE  C31519953   6.005   4.382   8.340 -0.2633  0.4862 -0.2343
  175SOPE  H15X19954   6.016   4.300   8.415 -0.7799 -0.2301 -0.9382
  175SOPE  H15Y19955   6.088   4.382   8.267 -0.2461 -0.6866 -0.2264
  175SOPE  C31619956   5.884   4.338   8.258  0.2264  0.0465  0.2108
  175SOPE  H16X19957   5.897   4.245   8.198 -0.1692  0.4023 -0.4256
  175SOPE  H16Y19958   5.870   4.421   8.186 -0.6477  0.2208  0.5746
  175SOPE  C31719959   5.755   4.306   8.338 -0.1342 -0.2363  0.2142
  175SOPE  H17X19960   5.774   4.332   8.444 -0.5910  0.3544  0.1554
  175SOPE  H17Y19961   5.758   4.195   8.341 -1.2241 -0.2396  1.4165
  175SOPE  C31819962   5.613   4.351   8.281 -0.0644  0.0605  0.7368
  175SOPE  H18X19963   5.590   4.459   8.284 -0.7334 -0.1061  1.7857
  175SOPE  H18Y19964   5.534   4.292   8.333  1.5607 -0.8843  2.1888
  175SOPE  H18Z19965   5.611   4.313   8.176 -1.8463 -0.6918  1.0170
  176SOPE     N19966   5.644   3.421  10.957 -0.0379 -0.2069  0.2476
  176SOPE   HN119967   5.690   3.415  11.050 -0.4019  1.0269  0.5198
  176SOPE   HN219968   5.548   3.448  10.985 -0.6135 -2.0887  0.1602
  176SOPE   HN319969   5.623   3.329  10.914 -0.3543 -0.2017  0.3897
  176SOPE   C1219970   5.721   3.515  10.861 -0.2044 -0.7406  0.4593
  176SOPE  H12A19971   5.831   3.498  10.869  0.1826  1.3835 -0.0918
  176SOPE  H12B19972   5.706   3.621  10.891 -1.5060 -0.9635  0.5852
  176SOPE   C1119973   5.671   3.496  10.713  0.1194  0.9566 -0.7347
  176SOPE  H11A19974   5.698   3.586  10.653 -0.0957  2.1142  0.8725
  176SOPE  H11B19975   5.561   3.492  10.726  0.1386  3.6755  0.7972
  176SOPE     P19976   5.664   3.237  10.659  0.1214  0.4932 -0.3764
  176SOPE   O1319977   5.593   3.225  10.791  0.1301 -0.0189  0.3817
  176SOPE   O1419978   5.761   3.133  10.622  0.0120  0.5380 -0.0342
  176SOPE   O1219979   5.740   3.378  10.660  0.8090 -0.0696  0.0648
  176SOPE   O1119980   5.551   3.250  10.548 -0.5980 -0.9224 -0.5556
  176SOPE    C119981   5.503   3.125  10.502  0.2440 -0.2878 -0.0868
  176SOPE    HA19982   5.452   3.062  10.577 -2.3515 -1.5471 -2.8238
  176SOPE    HB19983   5.579   3.069  10.444 -0.9168  0.0686 -1.9902
  176SOPE    C219984   5.384   3.144  10.409  0.1831  0.3622  0.0438
  176SOPE    HS19985   5.356   3.043  10.374 -0.2167  0.7813 -0.8453
  176SOPE   O2119986   5.420   3.237  10.307  0.1065  0.4201  0.5320
  176SOPE   C2119987   5.483   3.171  10.204 -0.0887 -0.3084 -0.5628
  176SOPE   O2219988   5.486   3.052  10.181 -0.3224 -0.1535 -0.0619
  176SOPE   C2219989   5.552   3.278  10.109  0.1070 -0.0878  0.0452
  176SOPE   H2R19990   5.658   3.250  10.128 -0.6216 -3.0061  0.1445
  176SOPE   H2S19991   5.531   3.380  10.148 -0.1140 -0.0877 -0.0746
  176SOPE    C319992   5.260   3.188  10.491 -0.7289 -0.0340 -0.2759
  176SOPE    HX19993   5.279   3.288  10.536  0.9596 -0.3288 -0.2988
  176SOPE    HY19994   5.242   3.122  10.578  0.3657  0.8484  0.6397
  176SOPE   O3119995   5.146   3.196  10.399 -0.1598  0.1407  0.2750
  176SOPE   C3119996   5.076   3.085  10.381 -0.2717  0.1303  0.8006
  176SOPE   O3219997   5.079   2.989  10.459 -0.3719 -0.6065 -0.4891
  176SOPE   C3219998   4.996   3.086  10.248 -0.3698  0.6730 -0.2499
  176SOPE   H2X19999   4.915   3.161  10.260  0.7799  1.4270  3.1399
  176SOPE   H2Y20000   4.955   2.983  10.236  1.3594  0.0795 -1.2990
  176SOPE   C2320001   5.494   3.253   9.969 -0.8658 -0.5722  0.7931
  176SOPE   H3R20002   5.398   3.308   9.965 -0.4207  0.3016  1.8547
  176SOPE   H3S20003   5.471   3.145   9.964  2.3236 -1.2251 -1.1951
  176SOPE   C2420004   5.588   3.287   9.856 -0.5130 -0.9220 -0.6479
  176SOPE   H4R20005   5.599   3.396   9.841 -0.8258 -0.8727 -0.5307
  176SOPE   H4S20006   5.688   3.241   9.870  0.8299  1.8491 -0.8745
  176SOPE   C2520007   5.529   3.233   9.735 -0.6888  0.0162 -0.0081
  176SOPE   H5R20008   5.498   3.128   9.753  2.1289 -0.8484  0.0104
  176SOPE   H5S20009   5.442   3.298   9.711  0.4110  1.3920 -0.3050
  176SOPE   C2620010   5.621   3.242   9.613 -0.1803 -0.2819  0.3070
  176SOPE   H6R20011   5.662   3.345   9.617 -1.9668  0.4447  0.1030
  176SOPE   H6S20012   5.710   3.177   9.628 -0.3132 -0.2376  1.3849
  176SOPE   C2720013   5.531   3.203   9.491 -0.3600 -0.8256  0.9669
  176SOPE   H7R20014   5.482   3.109   9.525 -0.0014 -1.3643  0.0244
  176SOPE   H7S20015   5.448   3.277   9.482 -0.3584 -0.6090  2.5950
  176SOPE   C2820016   5.629   3.198   9.376 -0.5249  0.5704  0.7342
  176SOPE   H8R20017   5.667   3.296   9.338 -0.8384  0.0857 -0.8986
  176SOPE   H8S20018   5.714   3.137   9.412 -0.8975 -1.0237 -1.0023
  176SOPE   C2920019   5.564   3.121   9.260  0.0079  0.0681 -0.0650
  176SOPE   H9120020   5.527   3.021   9.287  0.3373 -0.0620 -0.0926
  176SOPE  C21020021   5.561   3.159   9.131 -1.0325  0.0269  0.7049
  176SOPE  H10120022   5.515   3.093   9.056 -2.8225  0.5139  1.3531
  176SOPE  C21120023   5.612   3.293   9.074  0.0743  0.0386 -0.0097
  176SOPE  H11R20024   5.600   3.380   9.142 -2.0156 -0.0614 -0.2035
  176SOPE  H11S20025   5.549   3.329   8.990 -0.2544  1.1412  0.6996
  176SOPE  C21220026   5.752   3.280   9.014 -0.0389  0.3428  0.0233
  176SOPE  H12R20027   5.767   3.355   8.933 -0.4739  0.8783  0.4350
  176SOPE  H12S20028   5.764   3.181   8.965  1.9912  1.6721 -2.3120
  176SOPE  C21320029   5.872   3.294   9.112  0.2513 -0.2690 -0.7534
  176SOPE  H13R20030   5.970   3.271   9.065  0.6754 -0.3271  0.1465
  176SOPE  H13S20031   5.873   3.228   9.201 -0.7401 -1.2842 -1.4858
  176SOPE  C21420032   5.875   3.445   9.163  0.6640  0.5898 -0.0461
  176SOPE  H14R20033   5.789   3.462   9.231 -0.6403  0.8546 -1.7111
  176SOPE  H14S20034   5.841   3.508   9.077 -1.5366  2.9105  2.4199
  176SOPE  C21520035   6.014   3.481   9.214 -0.0842 -0.0241  0.6611
  176SOPE  H15R20036   6.006   3.587   9.248 -0.4652 -0.0102  0.5232
  176SOPE  H15S20037   6.085   3.459   9.131 -1.5665 -3.4825  0.2499
  176SOPE  C21620038   6.056   3.403   9.338  0.6421 -0.2104 -0.4190
  176SOPE  H16R20039   6.053   3.292   9.337  0.3847 -0.2478  1.9964
  176SOPE  H16S20040   5.988   3.446   9.415 -0.1625  1.1652 -1.8715
  176SOPE  C21720041   6.194   3.441   9.399  0.1619 -0.3033  0.1277
  176SOPE  H17R20042   6.200   3.546   9.436 -0.1499 -0.4736  0.6587
  176SOPE  H17S20043   6.266   3.442   9.314 -0.2979  0.7300 -0.2598
  176SOPE  C21820044   6.245   3.343   9.502  0.7375 -0.1054  0.8193
  176SOPE  H18R20045   6.352   3.360   9.526  0.2398  0.7910  2.4374
  176SOPE  H18S20046   6.235   3.240   9.463 -0.6076 -0.4396  2.0276
  176SOPE  H18T20047   6.191   3.348   9.598  1.1037 -1.8582  1.1362
  176SOPE   C3320048   5.072   3.115  10.121 -0.3065  0.2990 -0.5846
  176SOPE   H3X20049   5.159   3.048  10.108 -0.5876 -0.1517 -0.1733
  176SOPE   H3Y20050   5.129   3.210  10.132  0.4140 -0.3202  1.1162
  176SOPE   C3420051   4.985   3.121   9.999  0.0913 -0.4850 -0.2898
  176SOPE   H4X20052   4.894   3.178  10.025  1.9326  1.9300  1.0240
  176SOPE   H4Y20053   4.944   3.024   9.963 -0.2556  0.1068 -1.4910
  176SOPE   C3520054   5.058   3.170   9.869  0.0615  0.1370  0.0538
  176SOPE   H5X20055   5.133   3.089   9.857 -1.0398 -0.8972  0.0662
  176SOPE   H5Y20056   5.084   3.276   9.890  0.0794  0.1077  0.1781
  176SOPE   C3620057   4.972   3.162   9.744 -0.3631 -0.5555  0.9910
  176SOPE   H6X20058   4.900   3.247   9.755  0.3367  0.3358 -1.1119
  176SOPE   H6Y20059   4.907   3.072   9.740  0.8588 -1.4070  0.1717
  176SOPE   C3720060   5.047   3.183   9.613 -0.4029 -0.8799  0.2399
  176SOPE   H7X20061   5.113   3.096   9.591  1.2075  0.3011  0.2769
  176SOPE   H7Y20062   5.105   3.277   9.619 -0.2073 -0.9774 -0.1148
  176SOPE   C3820063   4.946   3.209   9.493  0.1214 -0.7697 -0.6940
  176SOPE   H8X20064   4.883   3.298   9.516 -0.2519 -1.0420 -0.6512
  176SOPE   H8Y20065   4.884   3.118   9.503 -1.3572  0.2055 -0.8081
  176SOPE   C3920066   5.019   3.209   9.359  0.1206 -0.0977 -0.0992
  176SOPE   H9X20067   5.094   3.128   9.368 -2.9736 -3.0275 -0.1063
  176SOPE   H9Y20068   5.069   3.308   9.345  2.5744 -1.0447  1.5058
  176SOPE  C31020069   4.920   3.185   9.240 -0.3175  0.1088  0.0490
  176SOPE  H10X20070   4.836   3.251   9.272  0.2749  2.8172 -3.6071
  176SOPE  H10Y20071   4.888   3.080   9.224 -0.0909  0.1293 -0.5345
  176SOPE  C31120072   4.965   3.241   9.103 -0.0368  0.4925  0.6686
  176SOPE  H11X20073   5.040   3.177   9.051 -0.2187  1.0323 -0.2760
  176SOPE  H11Y20074   5.018   3.336   9.126 -0.6975  0.6483  1.5442
  176SOPE  C31220075   4.845   3.279   9.014 -0.0855  0.2601  0.3553
  176SOPE  H12X20076   4.783   3.354   9.067 -0.2723  0.2933  0.0896
  176SOPE  H12Y20077   4.774   3.198   8.989  0.6034 -0.3912  0.4847
  176SOPE  C31320078   4.878   3.363   8.879  1.0924 -0.7613  1.1150
  176SOPE  H13X20079   4.947   3.448   8.897 -1.1481  1.3348  0.1482
  176SOPE  H13Y20080   4.783   3.398   8.832  1.6509 -1.4270 -0.5767
  176SOPE  C31420081   4.933   3.277   8.768  0.3961  0.0598  0.3046
  176SOPE  H14X20082   4.866   3.194   8.739  1.0576 -0.4374  0.1932
  176SOPE  H14Y20083   5.020   3.228   8.815 -0.6520 -1.5960  0.5488
  176SOPE  C31520084   4.975   3.372   8.652 -0.0940 -0.0887  0.5001
  176SOPE  H15X20085   5.031   3.457   8.697 -0.0738  1.6673 -2.6926
  176SOPE  H15Y20086   4.888   3.427   8.612  0.3585  0.9343  0.9065
  176SOPE  C31620087   5.047   3.295   8.542 -0.7895  0.4096  0.5074
  176SOPE  H16X20088   5.153   3.272   8.566 -0.8140 -0.3152 -0.0718
  176SOPE  H16Y20089   5.050   3.373   8.463 -2.0399  0.6260  0.6699
  176SOPE  C31720090   4.979   3.168   8.484 -0.3706 -0.5501 -0.5917
  176SOPE  H17X20091   4.967   3.093   8.565 -0.6504 -1.6142 -1.6127
  176SOPE  H17Y20092   5.040   3.111   8.411 -0.7450 -0.8647 -0.6593
  176SOPE  C31820093   4.844   3.197   8.407  0.0894 -0.1859 -0.6959
  176SOPE  H18X20094   4.765   3.231   8.477 -1.1972 -0.7974 -1.8261
  176SOPE  H18Y20095   4.817   3.103   8.354 -1.5271  0.2900 -0.7609
  176SOPE  H18Z20096   4.872   3.275   8.334 -0.3175  1.2576  0.6643
  177SOPE     N20097   5.379   1.351  10.837 -0.1866  0.3585  0.1499
  177SOPE   HN120098   5.404   1.251  10.850  3.4450  1.1145 -0.3629
  177SOPE   HN220099   5.300   1.352  10.770  0.2181  0.3343 -0.3330
  177SOPE   HN320100   5.463   1.387  10.786 -0.1540 -1.7307 -1.3398
  177SOPE   C1220101   5.356   1.414  10.966 -0.0378  0.5755 -0.1534
  177SOPE  H12A20102   5.389   1.520  10.976  2.2381  0.1156 -2.2340
  177SOPE  H12B20103   5.417   1.353  11.036  0.7160  0.7324 -0.6646
  177SOPE   C1120104   5.203   1.398  11.013  0.7248  0.0443 -0.4760
  177SOPE  H11A20105   5.149   1.461  10.939 -1.7267 -1.5492 -0.1082
  177SOPE  H11B20106   5.179   1.465  11.098 -0.0610  0.7395 -1.2415
  177SOPE     P20107   5.006   1.236  10.987 -0.3041 -0.0582  0.0018
  177SOPE   O1320108   4.929   1.349  11.046 -0.5430  1.2988 -0.2854
  177SOPE   O1420109   4.962   1.100  11.032 -0.0210  0.0772 -0.0718
  177SOPE   O1220110   5.161   1.257  11.023  0.2125  0.0023  0.0113
  177SOPE   O1120111   4.996   1.244  10.828  0.1089  1.0842 -0.6722
  177SOPE    C120112   5.071   1.160  10.749 -0.0518  0.0857 -0.6387
  177SOPE    HA20113   5.052   1.053  10.771 -0.1632 -0.1169 -1.7097
  177SOPE    HB20114   5.179   1.170  10.771 -0.4965 -0.1125  1.7953
  177SOPE    C220115   5.048   1.188  10.594  0.3615  0.0668  0.4674
  177SOPE    HS20116   5.128   1.151  10.526 -0.6442 -1.1918 -0.0714
  177SOPE   O2120117   5.008   1.324  10.581 -0.3490 -0.4098 -0.1929
  177SOPE   C2120118   5.105   1.413  10.594 -0.0540  0.0846 -0.2941
  177SOPE   O2220119   5.223   1.387  10.622  0.0834  0.1014  0.1673
  177SOPE   C2220120   5.052   1.556  10.581 -0.2762 -0.0410  0.2650
  177SOPE   H2R20121   5.140   1.624  10.583 -0.5233  0.2600  3.4652
  177SOPE   H2S20122   4.994   1.565  10.675 -0.9800  1.0164 -0.2649
  177SOPE    C320123   4.924   1.102  10.551 -0.1919 -0.1025  0.0338
  177SOPE    HX20124   4.839   1.104  10.623  0.1156  0.2867  0.3882
  177SOPE    HY20125   4.960   0.998  10.539  0.9776  0.3637 -0.6169
  177SOPE   O3120126   4.873   1.138  10.415  0.3812 -0.4532 -0.8790
  177SOPE   C3120127   4.778   1.225  10.398 -0.0483 -0.1115 -1.0415
  177SOPE   O3220128   4.738   1.296  10.490  0.3211 -0.6013 -0.5004
  177SOPE   C3220129   4.728   1.225  10.259 -0.0138  0.1332  0.7969
  177SOPE   H2X20130   4.668   1.131  10.257  1.4725 -0.8081 -0.7919
  177SOPE   H2Y20131   4.817   1.218  10.194 -2.4682 -0.5557 -2.6061
  177SOPE   C2320132   4.972   1.570  10.447 -0.2326 -0.5179 -0.0757
  177SOPE   H3R20133   4.910   1.661  10.464  1.0947  0.2335  0.8602
  177SOPE   H3S20134   4.905   1.481  10.436 -0.1960 -0.5264 -0.2316
  177SOPE   C2420135   5.060   1.586  10.320 -1.0075 -0.1259  0.7792
  177SOPE   H4R20136   5.133   1.668  10.332 -0.1987 -1.0681  2.3668
  177SOPE   H4S20137   5.117   1.495  10.292 -0.8373  1.1379 -3.2665
  177SOPE   C2520138   4.966   1.626  10.201 -0.4393  0.4099 -0.2053
  177SOPE   H5R20139   4.958   1.537  10.136 -1.9933 -0.6121  1.3598
  177SOPE   H5S20140   4.866   1.657  10.239 -0.9977 -2.3077  0.6374
  177SOPE   C2620141   5.014   1.730  10.105 -0.4116 -0.2331  0.1896
  177SOPE   H6R20142   5.025   1.825  10.162 -2.5733  0.3492 -0.3128
  177SOPE   H6S20143   5.106   1.694  10.054  0.0374  0.9381  0.1574
  177SOPE   C2720144   4.904   1.743   9.998 -0.2473 -0.0597 -0.2008
  177SOPE   H7R20145   4.883   1.647   9.947 -1.3257  0.8459 -1.4752
  177SOPE   H7S20146   4.813   1.779  10.050  0.1187  0.5561  0.0148
  177SOPE   C2820147   4.953   1.858   9.903 -0.2771  0.4181 -1.1866
  177SOPE   H8R20148   4.962   1.946   9.970 -0.7090 -0.1668 -0.3466
  177SOPE   H8S20149   5.051   1.824   9.865 -0.6861 -1.2192 -0.8555
  177SOPE   C2920150   4.851   1.883   9.802  0.3662  0.2088  0.2968
  177SOPE   H9120151   4.764   1.945   9.830 -1.5788 -2.9658  1.4909
  177SOPE  C21020152   4.878   1.853   9.674  0.2466 -0.3469  0.5935
  177SOPE  H10120153   4.808   1.883   9.595 -0.2637  0.5688  1.3776
  177SOPE  C21120154   4.998   1.776   9.619  0.5197 -0.4313  0.4018
  177SOPE  H11R20155   5.037   1.711   9.701 -1.1424 -1.5033  0.3580
  177SOPE  H11S20156   5.081   1.839   9.580  1.0864 -0.6659  1.2154
  177SOPE  C21220157   4.955   1.691   9.494  0.3538  1.2340 -0.2258
  177SOPE  H12R20158   4.859   1.637   9.506 -1.0080  3.4810 -0.7256
  177SOPE  H12S20159   5.040   1.620   9.494 -1.2124 -0.7581  2.7910
  177SOPE  C21320160   4.963   1.780   9.369  0.2403  0.0948 -0.1568
  177SOPE  H13R20161   5.064   1.823   9.349  1.5026 -1.1362  3.2140
  177SOPE  H13S20162   4.889   1.863   9.377  0.2429  0.3491 -2.3921
  177SOPE  C21420163   4.930   1.709   9.230  0.2848  0.1533 -0.1636
  177SOPE  H14R20164   4.820   1.695   9.225 -0.1825  2.8306  1.2943
  177SOPE  H14S20165   4.982   1.612   9.226  0.5998  0.2745  0.9251
  177SOPE  C21520166   4.991   1.799   9.117  0.9914 -0.0343  0.2079
  177SOPE  H15R20167   5.100   1.809   9.136  1.4980  0.4750 -2.6928
  177SOPE  H15S20168   4.955   1.902   9.137  1.2768 -0.0149  0.6319
  177SOPE  C21620169   4.955   1.757   8.973  0.0807 -0.1322  0.0251
  177SOPE  H16R20170   4.849   1.759   8.937 -0.8240  2.1481  2.6052
  177SOPE  H16S20171   4.990   1.652   8.966 -0.7283 -0.3481 -0.9498
  177SOPE  C21720172   5.031   1.850   8.869  0.3922 -0.4330 -0.4730
  177SOPE  H17R20173   5.001   1.823   8.765  0.9101 -0.1628 -0.6926
  177SOPE  H17S20174   5.137   1.834   8.897  0.0127 -0.2610  1.0890
  177SOPE  C21820175   5.003   1.994   8.893  0.6964 -0.4034  0.2461
  177SOPE  H18R20176   5.062   2.040   8.975  0.4066  0.1313  0.1564
  177SOPE  H18S20177   4.896   1.996   8.920  0.5951 -2.6368  0.0710
  177SOPE  H18T20178   5.012   2.060   8.803  1.5176  0.6087  1.0590
  177SOPE   C3320179   4.645   1.354  10.240 -0.3846 -0.2876  0.0485
  177SOPE   H3X20180   4.701   1.446  10.265 -0.4706 -0.2963  0.2664
  177SOPE   H3Y20181   4.567   1.327  10.314 -1.1276 -1.8355 -1.2687
  177SOPE   C3420182   4.563   1.358  10.109  0.0641 -0.3998 -0.5063
  177SOPE   H4X20183   4.489   1.441  10.123  1.3493  1.1337 -2.5071
  177SOPE   H4Y20184   4.508   1.263  10.095  1.1145 -0.9132 -1.1519
  177SOPE   C3520185   4.641   1.398   9.991 -0.4538 -0.5503 -0.1504
  177SOPE   H5X20186   4.693   1.306   9.956  0.5815 -0.3575  0.8518
  177SOPE   H5Y20187   4.715   1.477  10.018 -0.0864 -0.8605 -0.2502
  177SOPE   C3620188   4.546   1.447   9.874  0.4341 -0.4620  0.2173
  177SOPE   H6X20189   4.475   1.520   9.916  0.1583 -0.5625 -0.0697
  177SOPE   H6Y20190   4.482   1.363   9.838 -1.5026  1.2946 -0.5203
  177SOPE   C3720191   4.614   1.495   9.750 -0.2895  0.4895  0.8789
  177SOPE   H7X20192   4.690   1.415   9.731 -1.0636 -0.6305  2.4058
  177SOPE   H7Y20193   4.662   1.594   9.767  0.9207 -0.4096  2.9913
  177SOPE   C3820194   4.520   1.504   9.627 -0.1673 -0.3741  0.2408
  177SOPE   H8X20195   4.445   1.586   9.635  0.4935  0.4515 -1.6799
  177SOPE   H8Y20196   4.476   1.402   9.634  0.7470 -0.6635  2.0423
  177SOPE   C3920197   4.597   1.514   9.491 -0.3749  0.3621 -0.6597
  177SOPE   H9X20198   4.690   1.455   9.483 -1.5976 -1.1733 -4.5915
  177SOPE   H9Y20199   4.622   1.622   9.476  1.1482  0.1182  0.0089
  177SOPE  C31020200   4.508   1.479   9.375  0.2187 -0.3128  0.1960
  177SOPE  H10X20201   4.422   1.548   9.381  0.2093 -0.2405 -0.7683
  177SOPE  H10Y20202   4.468   1.377   9.397  0.6725 -0.2024  1.6060
  177SOPE  C31120203   4.582   1.479   9.243  0.4208  0.4145 -0.0624
  177SOPE  H11X20204   4.670   1.412   9.257  1.1501  0.8361 -2.3664
  177SOPE  H11Y20205   4.623   1.581   9.229 -1.0300  0.7698 -1.9411
  177SOPE  C31220206   4.485   1.444   9.140 -0.3210  0.3695 -0.0419
  177SOPE  H12X20207   4.394   1.507   9.151 -1.3538 -1.2268  0.9607
  177SOPE  H12Y20208   4.445   1.340   9.145  0.6846 -0.1103 -1.6400
  177SOPE  C31320209   4.544   1.463   8.993  0.1008  0.3574 -0.7522
  177SOPE  H13X20210   4.639   1.405   8.986 -0.4742 -0.6392 -0.3091
  177SOPE  H13Y20211   4.551   1.573   8.975  2.2954  1.0609  3.7251
  177SOPE  C31420212   4.459   1.404   8.882  0.1748 -0.0056 -0.4086
  177SOPE  H14X20213   4.500   1.411   8.778  0.7987  0.0905 -0.1577
  177SOPE  H14Y20214   4.357   1.449   8.878  1.0881  2.1577 -0.3883
  177SOPE  C31520215   4.450   1.250   8.885  0.0909 -0.1013  0.1104
  177SOPE  H15X20216   4.398   1.216   8.977 -1.1471  0.0940 -0.5096
  177SOPE  H15Y20217   4.553   1.210   8.874  0.3598  0.4429  0.6248
  177SOPE  C31620218   4.376   1.195   8.755 -0.2858 -0.3698 -0.1127
  177SOPE  H16X20219   4.433   1.215   8.662  2.4485 -1.3470  1.3096
  177SOPE  H16Y20220   4.282   1.254   8.743  0.2345  1.0632  2.4497
  177SOPE  C31720221   4.345   1.039   8.757  0.3568  0.2585  0.4989
  177SOPE  H17X20222   4.294   1.013   8.852  1.4957  0.1717  1.0815
  177SOPE  H17Y20223   4.429   0.967   8.757 -1.3180 -1.7419  0.8002
  177SOPE  C31820224   4.261   0.996   8.638 -0.2943 -0.4040  0.4094
  177SOPE  H18X20225   4.182   1.069   8.608  0.7223  1.3182  1.8198
  177SOPE  H18Y20226   4.221   0.896   8.663 -1.3484  0.1685  1.0465
  177SOPE  H18Z20227   4.327   1.002   8.549 -1.4544  0.4933 -0.4143
  178SOPE     N20228   2.355   0.398  10.592 -0.4821 -0.2039 -0.0718
  178SOPE   HN120229   2.405   0.488  10.576  0.1180 -0.5422 -0.1147
  178SOPE   HN220230   2.253   0.418  10.600 -0.5058 -0.6793  0.8114
  178SOPE   HN320231   2.378   0.353  10.683  1.6122 -1.3692 -1.1330
  178SOPE   C1220232   2.396   0.299  10.481 -0.7042 -0.4772 -0.2551
  178SOPE  H12A20233   2.507   0.298  10.477 -0.6896  0.8863 -0.2974
  178SOPE  H12B20234   2.345   0.342  10.393 -1.9637 -0.5744  0.4135
  178SOPE   C1120235   2.361   0.157  10.516  0.1014 -0.3405  0.5347
  178SOPE  H11A20236   2.436   0.133  10.595  1.1418 -0.0152 -0.3475
  178SOPE  H11B20237   2.379   0.090  10.430  0.3647 -0.8192  0.9601
  178SOPE     P20238   2.154   0.011  10.591  0.1062 -0.5866  0.0962
  178SOPE   O1320239   2.013   0.039  10.629  0.2755 -0.2603 -0.6644
  178SOPE   O1420240   2.251  -0.066  10.674  0.1875  0.1379 -0.2733
  178SOPE   O1220241   2.223   0.152  10.556 -0.4645 -0.2722 -0.0240
  178SOPE   O1120242   2.162  -0.047  10.442  0.2694 -0.0401 -0.1942
  178SOPE    C120243   2.082   0.008  10.335 -0.3207 -0.1630  0.4387
  178SOPE    HA20244   2.130   0.098  10.291  1.8539 -0.4926  2.0686
  178SOPE    HB20245   1.992   0.057  10.376  0.5760  2.0742 -0.1992
  178SOPE    C220246   2.057  -0.093  10.222 -0.2269 -0.4276 -0.1181
  178SOPE    HS20247   1.997  -0.180  10.256 -0.8409  0.0472  0.0263
  178SOPE   O2120248   2.189  -0.128  10.169  0.2434 -0.7971 -0.3711
  178SOPE   C2120249   2.248  -0.238  10.216  0.4396 -0.0080  0.9850
  178SOPE   O2220250   2.199  -0.328  10.286 -0.2479 -0.3557  0.1577
  178SOPE   C2220251   2.377  -0.254  10.146  0.4173 -0.0528 -0.4183
  178SOPE   H2R20252   2.365  -0.298  10.045  2.7008 -1.6542 -0.0315
  178SOPE   H2S20253   2.438  -0.328  10.202  1.3671  0.8566 -0.2389
  178SOPE    C320254   1.974  -0.030  10.109 -0.6334 -0.0023 -0.5334
  178SOPE    HX20255   2.002   0.077  10.094 -2.5299  0.4009 -1.3678
  178SOPE    HY20256   1.868  -0.012  10.136 -0.7921 -2.4378  0.5546
  178SOPE   O3120257   1.974  -0.107   9.991 -0.7300  0.0057 -0.1445
  178SOPE   C3120258   2.067  -0.082   9.893 -0.1502  0.4686  0.3673
  178SOPE   O3220259   2.148   0.008   9.903  0.2775 -0.4047 -0.9858
  178SOPE   C3220260   2.032  -0.173   9.766  0.4919 -0.6317  0.8817
  178SOPE   H2X20261   1.964  -0.118   9.697  0.5832  0.9297  2.0246
  178SOPE   H2Y20262   1.970  -0.256   9.805 -1.6480  0.9865  1.0314
  178SOPE   C2320263   2.470  -0.126  10.155 -0.2904 -0.3488 -0.3873
  178SOPE   H3R20264   2.510  -0.123  10.259 -0.3853  1.9587 -0.3963
  178SOPE   H3S20265   2.411  -0.033  10.148 -0.3047 -0.5294 -2.9681
  178SOPE   C2420266   2.587  -0.118  10.063 -0.1482  0.1979  0.5764
  178SOPE   H4R20267   2.649  -0.028  10.083  1.2940 -0.5223 -0.6054
  178SOPE   H4S20268   2.647  -0.211  10.071 -0.9222 -0.2128  1.7903
  178SOPE   C2520269   2.542  -0.100   9.912 -0.6335  1.0944 -0.7718
  178SOPE   H5R20270   2.470  -0.176   9.875  0.3613  0.0507 -0.5914
  178SOPE   H5S20271   2.490  -0.001   9.909  0.3167  1.5879 -1.2493
  178SOPE   C2620272   2.660  -0.117   9.813  0.0219  0.3134  0.4849
  178SOPE   H6R20273   2.746  -0.050   9.834  0.8759 -0.9714  1.2260
  178SOPE   H6S20274   2.695  -0.221   9.834  0.2708 -0.2971 -2.7067
  178SOPE   C2720275   2.623  -0.116   9.669 -0.0342 -1.2223 -0.6314
  178SOPE   H7R20276   2.540  -0.181   9.633 -0.6337 -0.0000 -1.5323
  178SOPE   H7S20277   2.575  -0.018   9.644 -2.5321 -1.9720  0.9850
  178SOPE   C2820278   2.743  -0.125   9.573 -0.6373  0.0500 -0.1653
  178SOPE   H8R20279   2.713  -0.084   9.474  1.1272  1.2911 -0.2175
  178SOPE   H8S20280   2.825  -0.063   9.616  0.1821 -1.1549  0.0325
  178SOPE   C2920281   2.790  -0.268   9.559  0.2631  0.4583 -0.5981
  178SOPE   H9120282   2.804  -0.306   9.662 -1.0155  1.1933 -0.1389
  178SOPE  C21020283   2.790  -0.357   9.458  1.0110  0.0024 -1.2249
  178SOPE  H10120284   2.834  -0.458   9.467 -1.3095 -1.0340 -1.2649
  178SOPE  C21120285   2.755  -0.322   9.317 -0.2110  0.0153 -0.5655
  178SOPE  H11R20286   2.692  -0.230   9.322  0.3269  0.3270  0.6343
  178SOPE  H11S20287   2.692  -0.400   9.270  0.2419 -0.0354 -1.0905
  178SOPE  C21220288   2.868  -0.287   9.225 -0.2024  0.3738 -0.2615
  178SOPE  H12R20289   2.941  -0.370   9.211 -1.3454 -0.2347 -2.9318
  178SOPE  H12S20290   2.926  -0.204   9.272  0.3836 -0.1485 -0.0457
  178SOPE  C21320291   2.810  -0.258   9.080 -0.5185  0.3995 -0.0612
  178SOPE  H13R20292   2.766  -0.354   9.047  0.4932  0.8672 -2.8396
  178SOPE  H13S20293   2.891  -0.220   9.014  0.6027  0.4179  1.2741
  178SOPE  C21420294   2.701  -0.150   9.075 -0.6857  0.6367 -0.2175
  178SOPE  H14R20295   2.749  -0.069   9.133  3.3703 -3.2252  2.0736
  178SOPE  H14S20296   2.610  -0.182   9.131  0.1470 -0.4630  0.5141
  178SOPE  C21520297   2.656  -0.103   8.946  0.3107 -0.3799  0.0787
  178SOPE  H15R20298   2.739  -0.079   8.876  1.0742 -1.2291  0.6874
  178SOPE  H15S20299   2.602  -0.008   8.965  2.0443  0.5019  0.6923
  178SOPE  C21620300   2.575  -0.201   8.868 -0.0347  0.9153  0.4784
  178SOPE  H16R20301   2.639  -0.278   8.821  0.3882  1.8235 -0.4699
  178SOPE  H16S20302   2.538  -0.136   8.785 -1.8020 -0.4316  0.1976
  178SOPE  C21720303   2.446  -0.264   8.927 -0.2883  0.3282 -0.0294
  178SOPE  H17R20304   2.400  -0.196   9.001 -0.0612 -0.3804  0.7710
  178SOPE  H17S20305   2.472  -0.354   8.987 -0.4805 -1.2755 -2.2916
  178SOPE  C21820306   2.350  -0.312   8.819  0.0738  0.2751  0.3950
  178SOPE  H18R20307   2.308  -0.232   8.754  1.8097  1.1917  0.3872
  178SOPE  H18S20308   2.261  -0.364   8.861  1.0080 -0.0810  1.9469
  178SOPE  H18T20309   2.402  -0.380   8.748  1.6667 -0.8867  2.6314
  178SOPE   C3320310   2.160  -0.231   9.696 -0.3705 -0.4005 -0.0429
  178SOPE   H3X20311   2.237  -0.259   9.771  2.4984  2.2557 -1.8817
  178SOPE   H3Y20312   2.219  -0.162   9.632  0.7595 -0.3749  1.0051
  178SOPE   C3420313   2.130  -0.376   9.645 -0.2223  0.0163  0.0813
  178SOPE   H4X20314   2.029  -0.373   9.598  0.8985  1.3444 -2.3378
  178SOPE   H4Y20315   2.115  -0.443   9.733  2.1307 -0.9190 -0.2032
  178SOPE   C3520316   2.223  -0.439   9.547 -0.2392 -0.4822  0.2346
  178SOPE   H5X20317   2.214  -0.548   9.527 -0.2751 -0.7354  1.5592
  178SOPE   H5Y20318   2.325  -0.419   9.585  0.1440 -0.4221 -0.8078
  178SOPE   C3620319   2.206  -0.376   9.407  0.6598 -0.3903 -0.4247
  178SOPE   H6X20320   2.194  -0.267   9.421 -2.3692 -0.8639  0.8837
  178SOPE   H6Y20321   2.116  -0.422   9.361  0.1766 -1.8057  1.8749
  178SOPE   C3720322   2.327  -0.402   9.311  0.0399 -0.2650 -0.5677
  178SOPE   H7X20323   2.417  -0.387   9.375  0.7646 -2.5187 -1.0208
  178SOPE   H7Y20324   2.328  -0.331   9.225  0.6251 -0.8382 -1.0467
  178SOPE   C3820325   2.339  -0.539   9.250 -0.6974  0.1142 -0.0874
  178SOPE   H8X20326   2.327  -0.620   9.325 -0.0315  0.6764  0.6334
  178SOPE   H8Y20327   2.447  -0.549   9.223 -1.0136 -0.1836 -1.2974
  178SOPE   C3920328   2.239  -0.566   9.133  0.3958 -0.2347 -0.0315
  178SOPE   H9X20329   2.262  -0.505   9.044  0.4100  1.6831  1.2690
  178SOPE   H9Y20330   2.143  -0.535   9.178  0.1196 -0.3291 -0.5536
  178SOPE  C31020331   2.228  -0.712   9.089  0.2527  0.0889  0.0649
  178SOPE  H10X20332   2.221  -0.774   9.181 -1.2330  0.9896  0.5776
  178SOPE  H10Y20333   2.322  -0.745   9.040  1.6615  1.5473  1.7085
  178SOPE  C31120334   2.121  -0.747   8.988 -0.1230 -0.0069 -0.4626
  178SOPE  H11X20335   2.147  -0.714   8.885 -1.1272 -2.4137 -1.5315
  178SOPE  H11Y20336   2.028  -0.690   9.009  0.2748  0.4032  0.1710
  178SOPE  C31220337   2.082  -0.898   8.984 -0.2193  0.6804  0.4252
  178SOPE  H12X20338   2.053  -0.943   9.081 -2.0831  1.1322  0.1038
  178SOPE  H12Y20339   2.165  -0.958   8.941 -0.4054 -0.4423  1.6111
  178SOPE  C31320340   1.957  -0.921   8.895  0.7567  0.2276  0.1322
  178SOPE  H13X20341   1.970  -0.850   8.810 -0.8102 -1.3323 -1.4603
  178SOPE  H13Y20342   1.864  -0.896   8.951  0.4190 -0.7322  0.0100
  178SOPE  C31420343   1.954  -1.058   8.836 -0.2703  0.1758  0.1097
  178SOPE  H14X20344   1.869  -1.112   8.883  1.3080  0.0671  2.9454
  178SOPE  H14Y20345   2.048  -1.108   8.867  0.4538  0.8664 -0.9516
  178SOPE  C31520346   1.936  -1.081   8.684 -0.6153 -0.1776  0.2652
  178SOPE  H15X20347   1.838  -1.045   8.646 -0.3536  1.7058  1.3171
  178SOPE  H15Y20348   1.947  -1.190   8.669 -2.0391 -0.3381  0.3207
  178SOPE  C31620349   2.054  -1.020   8.594  0.4893 -0.5332 -0.0711
  178SOPE  H16X20350   2.144  -1.040   8.656  0.9718 -1.3029 -1.0012
  178SOPE  H16Y20351   2.024  -0.914   8.581 -1.3089 -1.2040 -1.6674
  178SOPE  C31720352   2.050  -1.091   8.457 -0.1960 -0.4516  0.4221
  178SOPE  H17X20353   2.038  -1.199   8.482 -2.3253  0.2402  2.5669
  178SOPE  H17Y20354   2.148  -1.079   8.406 -0.6723 -0.2704 -0.4678
  178SOPE  C31820355   1.949  -1.037   8.360 -0.5920 -0.1497  0.7008
  178SOPE  H18X20356   1.965  -1.081   8.259 -0.0777  0.7524  0.3796
  178SOPE  H18Y20357   1.963  -0.927   8.349  0.8078 -0.3265  0.6081
  178SOPE  H18Z20358   1.844  -1.056   8.390 -0.4350 -1.8133  0.2683
  179SOPE     N20359   0.595   1.721   6.467 -0.1856 -0.5919 -0.0402
  179SOPE   HN120360   0.496   1.753   6.462  0.9544  3.0967 -0.9854
  179SOPE   HN220361   0.656   1.800   6.498  1.2877 -2.3470  1.7058
  179SOPE   HN320362   0.631   1.697   6.373 -0.8671 -0.0045 -0.4558
  179SOPE   C1220363   0.617   1.629   6.573  0.1797 -0.1508  0.3923
  179SOPE  H12A20364   0.576   1.533   6.534  0.8406 -1.1003  1.9679
  179SOPE  H12B20365   0.561   1.663   6.663 -0.7433  2.1381 -0.9993
  179SOPE   C1120366   0.758   1.616   6.614  0.1951 -0.0068 -0.0755
  179SOPE  H11A20367   0.753   1.575   6.717  1.8270  0.6376  0.2706
  179SOPE  H11B20368   0.801   1.719   6.617 -0.1746  0.1430  0.1719
  179SOPE     P20369   0.881   1.388   6.562  0.3477  0.0984 -0.0799
  179SOPE   O1320370   1.004   1.359   6.483  0.2786  0.3179 -0.0393
  179SOPE   O1420371   0.770   1.296   6.539  0.6111  0.6502 -0.2759
  179SOPE   O1220372   0.836   1.534   6.518  0.1839  0.2009  0.3543
  179SOPE   O1120373   0.911   1.386   6.714  0.3111  0.4746  0.0548
  179SOPE    C120374   1.023   1.446   6.782 -0.3863 -0.0923  0.3187
  179SOPE    HA20375   0.992   1.473   6.885  0.6909  1.4028  0.2726
  179SOPE    HB20376   1.055   1.542   6.736 -1.5639 -0.0641 -0.4668
  179SOPE    C220377   1.153   1.366   6.794 -0.5178  0.0863  0.2342
  179SOPE    HS20378   1.185   1.339   6.690  2.8325  1.0162  0.9588
  179SOPE   O2120379   1.136   1.249   6.876 -0.1820 -0.0530  0.5537
  179SOPE   C2120380   1.234   1.157   6.883  0.0523  0.2739 -0.3834
  179SOPE   O2220381   1.345   1.170   6.833  0.6299 -0.4132  0.0893
  179SOPE   C2220382   1.191   1.039   6.968 -0.7120 -0.0945  0.1556
  179SOPE   H2R20383   1.220   0.948   6.911 -0.5362 -0.3378  0.6264
  179SOPE   H2S20384   1.082   1.034   6.989 -0.9802  0.5147 -1.0929
  179SOPE    C320385   1.266   1.460   6.852 -0.8986 -0.2466 -0.6692
  179SOPE    HX20386   1.288   1.550   6.790 -0.5183  0.3995  0.3801
  179SOPE    HY20387   1.362   1.405   6.858 -0.6721  0.1216 -0.8581
  179SOPE   O3120388   1.214   1.509   6.979 -0.1751  0.2461  0.0433
  179SOPE   C3120389   1.307   1.544   7.072  0.0364  0.1551 -0.0843
  179SOPE   O3220390   1.426   1.530   7.056 -0.1423 -0.1835 -0.1932
  179SOPE   C3220391   1.242   1.602   7.196  0.1517 -0.6695 -0.4746
  179SOPE   H2X20392   1.144   1.555   7.220 -0.2051  0.3509  0.1158
  179SOPE   H2Y20393   1.222   1.709   7.176  0.2389 -0.3050  1.2990
  179SOPE   C2320394   1.264   1.031   7.103 -0.2566  0.1479  0.6302
  179SOPE   H3R20395   1.373   1.044   7.085  0.0290 -0.5687  1.7195
  179SOPE   H3S20396   1.247   0.926   7.137 -1.8970  0.8157  1.9520
  179SOPE   C2420397   1.206   1.137   7.196 -0.6077 -0.0758 -0.1000
  179SOPE   H4R20398   1.190   1.228   7.134  0.1387  0.4809  0.5227
  179SOPE   H4S20399   1.108   1.106   7.239 -0.7375  1.5364  0.8251
  179SOPE   C2520400   1.291   1.180   7.320 -0.9943 -0.1552 -0.1859
  179SOPE   H5R20401   1.387   1.224   7.285 -0.7389 -1.0818 -0.6653
  179SOPE   H5S20402   1.241   1.263   7.374  2.2047  0.9801  1.1397
  179SOPE   C2620403   1.323   1.072   7.420  0.2898  0.5504  0.1665
  179SOPE   H6R20404   1.354   0.981   7.363  0.6190  1.3373 -0.9377
  179SOPE   H6S20405   1.393   1.114   7.494 -1.2204  1.4025  1.1242
  179SOPE   C2720406   1.196   1.022   7.503 -0.5097  0.1695  0.1992
  179SOPE   H7R20407   1.158   1.105   7.567 -0.0021  1.1864 -0.8083
  179SOPE   H7S20408   1.124   1.013   7.419  0.7493 -0.6294 -0.8139
  179SOPE   C2820409   1.222   0.894   7.579 -0.1171 -0.2160 -0.2398
  179SOPE   H8R20410   1.275   0.824   7.511  0.3128 -0.9268  0.8060
  179SOPE   H8S20411   1.302   0.926   7.649 -1.2597  2.5414 -0.1528
  179SOPE   C2920412   1.105   0.824   7.642 -0.4760 -0.2651 -0.5571
  179SOPE   H9120413   1.005   0.813   7.597  0.1494  0.3925 -2.1666
  179SOPE  C21020414   1.107   0.775   7.776  0.1330 -0.2751  0.2683
  179SOPE  H10120415   1.028   0.705   7.806 -0.0098 -0.4850 -0.5877
  179SOPE  C21120416   1.217   0.787   7.867 -0.3902 -0.2175 -0.7799
  179SOPE  H11R20417   1.244   0.892   7.890 -1.6040 -0.1815  0.5838
  179SOPE  H11S20418   1.307   0.740   7.822 -0.2368  0.1964 -0.9047
  179SOPE  C21220419   1.190   0.728   8.010 -0.4100  0.5462  1.0329
  179SOPE  H12R20420   1.138   0.630   8.006  1.9236 -0.6860  0.4479
  179SOPE  H12S20421   1.122   0.802   8.058 -0.8381  1.3592 -0.7956
  179SOPE  C21320422   1.323   0.727   8.086 -0.8618 -0.3610  0.8146
  179SOPE  H13R20423   1.388   0.812   8.056 -2.2223  0.3474 -0.1813
  179SOPE  H13S20424   1.370   0.631   8.057 -1.4867  0.2580 -2.4428
  179SOPE  C21420425   1.308   0.736   8.241 -0.2603  0.4157 -0.0862
  179SOPE  H14R20426   1.226   0.810   8.254  0.4250  1.1717  0.0346
  179SOPE  H14S20427   1.405   0.765   8.286  1.4780 -2.8785 -1.5523
  179SOPE  C21520428   1.267   0.603   8.302  0.0618  0.2250 -0.0143
  179SOPE  H15R20429   1.333   0.524   8.260 -1.8166 -0.7043 -1.3247
  179SOPE  H15S20430   1.169   0.567   8.264 -0.4318 -0.0947  1.5434
  179SOPE  C21620431   1.262   0.614   8.453  0.1835 -0.0750  0.0003
  179SOPE  H16R20432   1.183   0.687   8.478  0.0654  0.3874 -1.6938
  179SOPE  H16S20433   1.365   0.634   8.488  0.0820  0.5910 -0.0883
  179SOPE  C21720434   1.215   0.476   8.511  0.3381 -0.4244  0.0139
  179SOPE  H17R20435   1.284   0.395   8.479 -2.5258 -3.9474  2.4008
  179SOPE  H17S20436   1.116   0.448   8.469 -0.3494  0.7464  0.8196
  179SOPE  C21820437   1.212   0.473   8.666 -0.6475 -0.1753  0.7886
  179SOPE  H18R20438   1.173   0.374   8.699 -0.1381 -1.4817 -2.4231
  179SOPE  H18S20439   1.144   0.553   8.703  0.6283  1.1104  0.3929
  179SOPE  H18T20440   1.315   0.497   8.701  0.1251  0.3000 -1.7071
  179SOPE   C3320441   1.335   1.593   7.319  0.6135 -0.0321  0.1937
  179SOPE   H3X20442   1.440   1.624   7.305  0.5574 -0.0057 -0.1681
  179SOPE   H3Y20443   1.344   1.487   7.353  3.1579  0.8790  2.5318
  179SOPE   C3420444   1.271   1.685   7.428 -0.5860  0.3261 -0.5267
  179SOPE   H4X20445   1.161   1.674   7.418 -0.5852 -1.8018  1.5072
  179SOPE   H4Y20446   1.300   1.789   7.402 -0.7385  0.4362 -0.2619
  179SOPE   C3520447   1.309   1.644   7.571  0.0645  0.5822 -0.8178
  179SOPE   H5X20448   1.255   1.712   7.640 -1.2160 -3.2076  2.0400
  179SOPE   H5Y20449   1.416   1.659   7.595 -0.2592  1.8891 -0.1398
  179SOPE   C3620450   1.270   1.498   7.610 -0.5192 -0.2567 -0.9022
  179SOPE   H6X20451   1.353   1.427   7.588  1.1012  1.1475  0.4499
  179SOPE   H6Y20452   1.174   1.472   7.560 -2.1128  1.0667  1.3650
  179SOPE   C3720453   1.245   1.494   7.762  0.0007  0.6800  0.2482
  179SOPE   H7X20454   1.146   1.532   7.795  0.0178  0.2583  0.7877
  179SOPE   H7Y20455   1.325   1.555   7.809  0.0963 -1.2781  2.7023
  179SOPE   C3820456   1.253   1.345   7.822 -0.4069  0.7535 -0.0587
  179SOPE   H8X20457   1.326   1.279   7.771 -0.2424  0.2864  0.7690
  179SOPE   H8Y20458   1.153   1.298   7.815 -0.6379  1.4115 -1.2437
  179SOPE   C3920459   1.278   1.339   7.970  0.1772 -0.0220  0.3781
  179SOPE   H9X20460   1.222   1.419   8.023  0.0457 -0.1064  0.3653
  179SOPE   H9Y20461   1.382   1.366   7.999  1.1548 -2.0369 -1.1649
  179SOPE  C31020462   1.234   1.210   8.043  0.5883 -0.4496  0.4068
  179SOPE  H10X20463   1.270   1.115   7.997  1.7247  0.8553 -1.4255
  179SOPE  H10Y20464   1.123   1.212   8.029  0.7134  1.6383 -0.4344
  179SOPE  C31120465   1.280   1.214   8.186  0.5810  0.0666 -0.2931
  179SOPE  H11X20466   1.236   1.306   8.229 -2.8080 -0.2216 -2.9442
  179SOPE  H11Y20467   1.389   1.220   8.206  0.4509  0.9849  0.1604
  179SOPE  C31220468   1.211   1.101   8.263  0.4271  0.0958 -0.1962
  179SOPE  H12X20469   1.261   1.009   8.228  1.7706  0.0246  1.8460
  179SOPE  H12Y20470   1.102   1.108   8.239  0.0082 -1.7461  1.0188
  179SOPE  C31320471   1.229   1.110   8.414 -0.1804 -0.7505  0.6120
  179SOPE  H13X20472   1.175   1.025   8.462 -0.3885 -0.2265  1.3005
  179SOPE  H13Y20473   1.189   1.204   8.457  1.4721 -0.1297  0.7910
  179SOPE  C31420474   1.381   1.101   8.450  0.2442 -0.4847  0.5536
  179SOPE  H14X20475   1.440   1.191   8.422 -1.6785  0.2257 -1.3421
  179SOPE  H14Y20476   1.413   1.012   8.391 -1.3556 -0.4884 -0.3467
  179SOPE  C31520477   1.409   1.060   8.599 -0.5301 -0.3291 -0.3774
  179SOPE  H15X20478   1.360   0.965   8.627  0.7242 -1.0494 -0.5779
  179SOPE  H15Y20479   1.369   1.136   8.670 -1.6613 -3.2104  2.1758
  179SOPE  C31620480   1.556   1.020   8.625 -0.5055 -0.2225  0.9471
  179SOPE  H16X20481   1.614   1.114   8.635 -1.5481  0.6696 -1.0415
  179SOPE  H16Y20482   1.587   0.965   8.533 -1.8682 -1.9994  1.5237
  179SOPE  C31720483   1.581   0.946   8.764  0.1833  0.5259  0.2216
  179SOPE  H17X20484   1.503   0.868   8.771 -0.2136  0.7490 -1.4886
  179SOPE  H17Y20485   1.569   1.015   8.851 -0.4924  1.5707 -0.6778
  179SOPE  C31820486   1.715   0.866   8.778 -0.1312 -0.2333 -0.3306
  179SOPE  H18X20487   1.705   0.770   8.723 -0.4783 -0.2269 -0.2810
  179SOPE  H18Y20488   1.728   0.839   8.885 -1.7168 -0.4982 -0.1910
  179SOPE  H18Z20489   1.805   0.922   8.746 -0.4125 -0.1370 -0.9531
  180SOPE     N20490   0.526   1.276   6.397  0.5577  0.1559 -0.0969
  180SOPE   HN120491   0.474   1.348   6.450  0.6287 -0.2546  0.5394
  180SOPE   HN220492   0.617   1.268   6.447 -0.5132 -1.6723  1.6544
  180SOPE   HN320493   0.533   1.309   6.299 -2.2701 -0.6733 -0.6473
  180SOPE   C1220494   0.450   1.140   6.388  0.6879  0.6374  0.0116
  180SOPE  H12A20495   0.503   1.077   6.314  0.6700  1.4341 -0.6940
  180SOPE  H12B20496   0.348   1.164   6.351  0.2574  0.5049  1.0951
  180SOPE   C1120497   0.428   1.076   6.525  0.0996  0.1070 -0.1288
  180SOPE  H11A20498   0.386   1.156   6.590  0.1109  0.9595 -1.1744
  180SOPE  H11B20499   0.529   1.039   6.554  0.4468  1.7708  0.8415
  180SOPE     P20500   0.390   0.830   6.461 -0.2624 -0.1373  0.1196
  180SOPE   O1320501   0.505   0.845   6.373  0.3694 -0.2417  0.0753
  180SOPE   O1420502   0.279   0.745   6.403  0.0814 -0.0590 -0.6565
  180SOPE   O1220503   0.338   0.967   6.518 -0.0651 -0.3413  0.6524
  180SOPE   O1120504   0.434   0.759   6.599  0.6236  0.3085  0.0649
  180SOPE    C120505   0.560   0.782   6.658  0.6408 -0.4184 -0.3232
  180SOPE    HA20506   0.623   0.859   6.608  0.5410 -0.5339 -0.6269
  180SOPE    HB20507   0.624   0.692   6.648  3.2449  1.0219  2.3448
  180SOPE    C220508   0.549   0.817   6.813  0.3890 -0.0258 -0.3834
  180SOPE    HS20509   0.653   0.830   6.849  1.0646 -1.6678 -1.6426
  180SOPE   O2120510   0.476   0.712   6.882  0.4551 -0.2145  0.2029
  180SOPE   C2120511   0.541   0.599   6.897  0.2786  0.0836 -0.3027
  180SOPE   O2220512   0.639   0.568   6.831  0.3115 -0.1526 -0.0506
  180SOPE   C2220513   0.464   0.510   6.989 -0.4418  0.7770  0.4663
  180SOPE   H2R20514   0.397   0.444   6.929 -0.5230  0.7018  0.6391
  180SOPE   H2S20515   0.408   0.572   7.062 -1.6805  0.6790 -0.3818
  180SOPE    C320516   0.460   0.949   6.848  0.5033  0.1961 -0.2429
  180SOPE    HX20517   0.357   0.930   6.811 -0.7986  1.6549  2.4761
  180SOPE    HY20518   0.497   1.036   6.789  0.4097 -0.3576 -1.1278
  180SOPE   O3120519   0.463   0.970   6.987  0.5690 -0.2027  0.0241
  180SOPE   C3120520   0.370   1.044   7.028 -0.1689  0.4379  0.4561
  180SOPE   O3220521   0.288   1.108   6.962 -0.1915  0.5583 -0.0213
  180SOPE   C3220522   0.391   1.059   7.177  0.0201  0.1694  0.4334
  180SOPE   H2X20523   0.433   1.160   7.195  0.9056 -0.4018  1.6864
  180SOPE   H2Y20524   0.470   0.989   7.210 -0.4037 -1.0628 -1.1261
  180SOPE   C2320525   0.563   0.417   7.072 -0.7399  0.1622  0.3610
  180SOPE   H3R20526   0.651   0.477   7.103 -0.7166  0.7435 -0.7921
  180SOPE   H3S20527   0.600   0.337   7.004 -1.8837 -0.2736  0.2302
  180SOPE   C2420528   0.500   0.362   7.196  0.4270 -0.1758  0.3342
  180SOPE   H4R20529   0.478   0.450   7.261  0.5941  0.7382 -0.8404
  180SOPE   H4S20530   0.402   0.312   7.188 -0.7075  2.3260 -2.0192
  180SOPE   C2520531   0.593   0.265   7.277 -0.4509 -0.0342  0.4902
  180SOPE   H5R20532   0.621   0.178   7.215  1.2546  0.7445  0.1264
  180SOPE   H5S20533   0.688   0.323   7.287 -1.6349  1.9693  0.5352
  180SOPE   C2620534   0.530   0.225   7.407 -0.4578  0.0136  0.1685
  180SOPE   H6R20535   0.482   0.307   7.464  0.4933  0.4371  0.3685
  180SOPE   H6S20536   0.452   0.147   7.390 -1.6161  0.9801  0.9650
  180SOPE   C2720537   0.625   0.159   7.509  0.4697 -0.0786  0.4150
  180SOPE   H7R20538   0.670   0.071   7.458 -1.2368  0.5180 -2.1992
  180SOPE   H7S20539   0.714   0.222   7.531 -0.7705  1.8297  0.0847
  180SOPE   C2820540   0.549   0.090   7.629  0.1018 -0.1928  0.5003
  180SOPE   H8R20541   0.471   0.031   7.575  1.0983  0.5687 -1.8438
  180SOPE   H8S20542   0.612   0.008   7.668  1.2582 -1.2945 -3.4239
  180SOPE   C2920543   0.490   0.184   7.730  0.1150 -0.6124 -0.2217
  180SOPE   H9120544   0.423   0.257   7.682  0.9598  1.4465  1.6728
  180SOPE  C21020545   0.503   0.187   7.861 -0.4540  0.0644  0.2751
  180SOPE  H10120546   0.446   0.255   7.926  0.8353  2.0734 -0.6510
  180SOPE  C21120547   0.591   0.101   7.938  0.7273 -0.4984  0.1401
  180SOPE  H11R20548   0.671   0.167   7.978  0.1455  1.0028 -1.1167
  180SOPE  H11S20549   0.629   0.015   7.878  1.4241  1.2187 -1.9286
  180SOPE  C21220550   0.520   0.034   8.058  0.0385  0.5968  0.7475
  180SOPE  H12R20551   0.599  -0.035   8.098  0.3949 -0.5667 -1.8397
  180SOPE  H12S20552   0.440  -0.031   8.016 -0.4915 -0.1597  2.8522
  180SOPE  C21320553   0.480   0.119   8.178  0.2047 -0.1025 -0.2157
  180SOPE  H13R20554   0.392   0.185   8.162 -0.9084 -1.4893  0.1222
  180SOPE  H13S20555   0.561   0.185   8.216  0.0720 -0.2514  0.3305
  180SOPE  C21420556   0.438   0.038   8.294  0.6446  0.5206 -0.3729
  180SOPE  H14R20557   0.416   0.106   8.379 -0.6447 -0.4865  0.1176
  180SOPE  H14S20558   0.519  -0.031   8.328  0.5345 -0.2938 -1.7388
  180SOPE  C21520559   0.319  -0.051   8.269 -0.2458  0.2131 -0.9122
  180SOPE  H15R20560   0.337  -0.128   8.191  0.1845  1.6614 -2.2693
  180SOPE  H15S20561   0.246   0.017   8.218 -0.2660  0.5542 -0.4342
  180SOPE  C21620562   0.264  -0.101   8.402  0.3952  0.1179 -0.1251
  180SOPE  H16R20563   0.230  -0.024   8.474  3.0350  0.7663  0.4771
  180SOPE  H16S20564   0.337  -0.170   8.449 -0.5499  1.0331  2.8172
  180SOPE  C21720565   0.146  -0.192   8.376  1.1703 -0.2566 -0.6602
  180SOPE  H17R20566   0.134  -0.251   8.470 -0.6099 -2.1290 -2.0099
  180SOPE  H17S20567   0.159  -0.252   8.284  2.6807  0.5387 -0.9805
  180SOPE  C21820568   0.020  -0.108   8.351  0.3950  0.0689 -0.0000
  180SOPE  H18R20569  -0.071  -0.160   8.314 -1.5740  2.1857  1.7229
  180SOPE  H18S20570   0.040  -0.036   8.269  2.5362 -1.7347 -1.1228
  180SOPE  H18T20571  -0.003  -0.034   8.430  1.4481 -0.3854  0.7307
  180SOPE   C3320572   0.255   1.050   7.258  0.2919 -0.4080 -0.5429
  180SOPE   H3X20573   0.206   0.950   7.250 -1.2469  0.3734 -1.1505
  180SOPE   H3Y20574   0.182   1.117   7.207 -0.4248 -0.7142  0.0678
  180SOPE   C3420575   0.270   1.094   7.406  0.3821  0.6833 -0.3105
  180SOPE   H4X20576   0.188   1.163   7.434  0.4726  0.1437  1.3576
  180SOPE   H4Y20577   0.364   1.151   7.421  0.5906 -0.0420  1.2469
  180SOPE   C3520578   0.262   0.987   7.516 -0.2764  0.8411 -0.0802
  180SOPE   H5X20579   0.357   0.929   7.517 -0.2199  0.9239  1.8442
  180SOPE   H5Y20580   0.183   0.910   7.503 -0.3584  0.2665  3.2792
  180SOPE   C3620581   0.229   1.037   7.655 -0.2841 -0.4095 -0.5829
  180SOPE   H6X20582   0.127   1.081   7.662  1.3961  3.4629  1.1627
  180SOPE   H6Y20583   0.304   1.115   7.681 -0.0499 -0.1122 -2.0939
  180SOPE   C3720584   0.229   0.921   7.764  0.1511 -0.6243  0.3476
  180SOPE   H7X20585   0.312   0.850   7.748  1.8454  0.9688  1.8659
  180SOPE   H7Y20586   0.138   0.860   7.745  0.7719 -1.2965 -0.4454
  180SOPE   C3820587   0.255   0.961   7.909  0.2027  0.1098 -0.8413
  180SOPE   H8X20588   0.180   1.036   7.939  0.1469  0.0901 -0.9317
  180SOPE   H8Y20589   0.353   1.013   7.915 -1.1103  2.7198 -1.5779
  180SOPE   C3920590   0.253   0.846   8.021 -0.0185 -0.3907  0.1774
  180SOPE   H9X20591   0.350   0.793   8.008 -1.0823 -1.5544 -3.4890
  180SOPE   H9Y20592   0.171   0.774   8.003  0.0597 -0.3244 -0.4729
  180SOPE  C31020593   0.243   0.890   8.165  0.2676  0.4623  0.8522
  180SOPE  H10X20594   0.260   0.800   8.228 -1.7708 -0.5231  0.0098
  180SOPE  H10Y20595   0.141   0.930   8.181  0.1322  2.3537 -3.9561
  180SOPE  C31120596   0.342   0.998   8.208 -0.0613 -0.2129 -0.8030
  180SOPE  H11X20597   0.332   1.089   8.144  1.7942 -0.4847 -1.4959
  180SOPE  H11Y20598   0.446   0.962   8.196  1.0259  1.7924  2.0459
  180SOPE  C31220599   0.332   1.048   8.356  0.3195  0.2579  0.2734
  180SOPE  H12X20600   0.410   1.125   8.375  1.4256 -0.4799 -1.1587
  180SOPE  H12Y20601   0.351   0.963   8.424 -0.2224  0.9571  1.2966
  180SOPE  C31320602   0.196   1.105   8.396 -0.0176  0.0973  0.0158
  180SOPE  H13X20603   0.191   1.125   8.505 -0.1958 -0.6111  0.1428
  180SOPE  H13Y20604   0.119   1.033   8.361  0.5509  0.9865 -3.2713
  180SOPE  C31420605   0.155   1.234   8.321 -0.4543  0.0674  0.3291
  180SOPE  H14X20606   0.152   1.219   8.211 -1.4150  0.1379  0.3492
  180SOPE  H14Y20607   0.232   1.313   8.337 -0.4217  0.0126  0.4463
  180SOPE  C31520608   0.006   1.285   8.354  0.4585 -0.4053  0.0058
  180SOPE  H15X20609  -0.051   1.190   8.339 -3.1714  1.7017 -0.0846
  180SOPE  H15Y20610  -0.022   1.363   8.280 -0.1329 -0.7826 -0.1736
  180SOPE  C31620611  -0.013   1.329   8.498 -1.0521  0.1650  0.0749
  180SOPE  H16X20612   0.064   1.405   8.522  1.1367 -1.5911 -1.1415
  180SOPE  H16Y20613   0.010   1.236   8.555 -1.0778 -0.1139 -0.3583
  180SOPE  C31720614  -0.149   1.369   8.542  0.1268 -0.0219  0.5616
  180SOPE  H17X20615  -0.224   1.288   8.529  0.2719 -0.1371  0.4374
  180SOPE  H17Y20616  -0.196   1.454   8.486 -0.3084 -0.1460  0.7363
  180SOPE  C31820617  -0.149   1.394   8.696 -0.0646  0.5772 -0.7193
  180SOPE  H18X20618  -0.103   1.306   8.746 -1.7559  0.9672  1.5595
  180SOPE  H18Y20619  -0.252   1.408   8.736  0.2493  0.1891  0.2324
  180SOPE  H18Z20620  -0.103   1.493   8.714  1.7268 -0.2149 -0.8394
  181SOPE     N20621   0.214   5.435   5.862  0.2780  0.0607 -0.1180
  181SOPE   HN120622   0.265   5.366   5.803 -0.5731 -0.6733 -0.0176
  181SOPE   HN220623   0.186   5.522   5.813 -0.2506 -0.3623 -0.5923
  181SOPE   HN320624   0.281   5.470   5.932  1.9996 -1.2078 -1.0996
  181SOPE   C1220625   0.098   5.371   5.937  0.0959  0.4229 -0.4163
  181SOPE  H12A20626   0.016   5.355   5.865 -0.4132  2.3554 -0.2981
  181SOPE  H12B20627   0.073   5.443   6.019  0.3927  0.5224 -0.4088
  181SOPE   C1120628   0.139   5.253   6.017  0.2340 -0.0417  0.1428
  181SOPE  H11A20629   0.046   5.203   6.053 -0.0429 -0.8766 -1.6733
  181SOPE  H11B20630   0.196   5.286   6.107  2.0045  2.4272 -1.8451
  181SOPE     P20631   0.307   5.045   6.017  0.0643  0.1886  0.0187
  181SOPE   O1320632   0.428   5.128   6.046 -0.2218  1.2114  0.4403
  181SOPE   O1420633   0.325   4.915   5.947 -0.0448  0.2381 -0.5940
  181SOPE   O1220634   0.203   5.152   5.938 -0.4550  1.0702  0.3871
  181SOPE   O1120635   0.226   5.027   6.148  0.5346  0.2310  0.0062
  181SOPE    C120636   0.270   4.948   6.261  0.2284  0.0600 -0.5945
  181SOPE    HA20637   0.342   4.869   6.232 -0.7502 -1.0252 -0.1108
  181SOPE    HB20638   0.177   4.900   6.299  0.3907  0.2109 -0.0009
  181SOPE    C220639   0.332   5.034   6.371  0.7966  0.2166 -0.4854
  181SOPE    HS20640   0.314   4.984   6.468 -0.6318  0.4494 -0.6316
  181SOPE   O2120641   0.252   5.157   6.368 -0.2557 -1.0500  0.8165
  181SOPE   C2120642   0.131   5.141   6.425  0.2416 -0.3684 -0.0023
  181SOPE   O2220643   0.087   5.046   6.481  0.3509 -0.1829  0.2776
  181SOPE   C2220644   0.042   5.265   6.401  0.2062  0.7893  0.8700
  181SOPE   H2R20645  -0.058   5.241   6.358  0.6860 -0.3359  0.3424
  181SOPE   H2S20646   0.100   5.332   6.333 -0.5391  0.3674 -0.1950
  181SOPE    C320647   0.482   5.070   6.363  0.1082 -0.5928  0.1534
  181SOPE    HX20648   0.492   5.131   6.271  0.1605  0.4234  0.8279
  181SOPE    HY20649   0.551   4.985   6.345 -0.3659 -1.0373  0.3877
  181SOPE   O3120650   0.527   5.150   6.470 -0.4568 -0.1845 -0.5853
  181SOPE   C3120651   0.582   5.088   6.575  0.3677  1.0167 -0.3771
  181SOPE   O3220652   0.603   4.964   6.584  0.3818  0.2688  0.5084
  181SOPE   C3220653   0.633   5.190   6.660  0.6092 -0.5127  1.0453
  181SOPE   H2X20654   0.629   5.291   6.614 -1.3908 -0.6104  0.9988
  181SOPE   H2Y20655   0.738   5.168   6.691 -0.0476 -1.4908  2.6402
  181SOPE   C2320656   0.019   5.340   6.536  0.1605 -0.1026  0.7803
  181SOPE   H3R20657  -0.041   5.280   6.608  0.5042 -2.3948 -0.7797
  181SOPE   H3S20658  -0.033   5.434   6.508  3.1548  0.9262 -1.6124
  181SOPE   C2420659   0.142   5.385   6.615  0.1892  0.2896  0.3729
  181SOPE   H4R20660   0.207   5.305   6.655 -0.8867 -0.0286  1.5295
  181SOPE   H4S20661   0.203   5.444   6.544 -2.5796  1.1290 -1.3920
  181SOPE   C2520662   0.108   5.476   6.731  0.4762  0.5348  0.0720
  181SOPE   H5R20663   0.180   5.561   6.720 -0.1640  0.9238 -1.2870
  181SOPE   H5S20664   0.012   5.530   6.717  2.3863  3.1392 -4.0624
  181SOPE   C2620665   0.108   5.408   6.872 -0.0323  0.1004 -0.1173
  181SOPE   H6R20666   0.051   5.314   6.857 -0.7898  0.0276  2.7944
  181SOPE   H6S20667   0.209   5.390   6.913  0.2049  1.2423 -0.1757
  181SOPE   C2720668   0.022   5.493   6.973 -0.6043  0.3751  0.1812
  181SOPE   H7R20669   0.066   5.594   6.962 -1.0250  0.4707 -0.6852
  181SOPE   H7S20670  -0.087   5.496   6.950 -0.5349  0.5916 -0.1232
  181SOPE   C2820671   0.042   5.455   7.121 -0.9881  0.2310 -0.9239
  181SOPE   H8R20672  -0.025   5.367   7.136  0.2900 -0.2676  2.5132
  181SOPE   H8S20673   0.151   5.437   7.138 -0.8708  1.3754 -0.4539
  181SOPE   C2920674  -0.004   5.562   7.227 -1.1105  0.2106 -0.5834
  181SOPE   H9120675  -0.012   5.669   7.201  0.6521  0.6067  0.4277
  181SOPE  C21020676  -0.004   5.539   7.363  0.6963  0.0897  0.0725
  181SOPE  H10120677  -0.017   5.628   7.426 -0.8480 -0.2335  0.2447
  181SOPE  C21120678   0.043   5.418   7.432 -0.5496 -0.1763  0.6000
  181SOPE  H11R20679   0.140   5.430   7.484 -1.2193  3.4229  1.1624
  181SOPE  H11S20680   0.050   5.335   7.358 -3.2596  1.7935 -1.9958
  181SOPE  C21220681  -0.058   5.365   7.530  0.1126 -0.3398 -0.7605
  181SOPE  H12R20682  -0.016   5.267   7.562  2.5878  0.7965 -0.3960
  181SOPE  H12S20683  -0.159   5.351   7.486 -0.8526 -2.1642  1.9507
  181SOPE  C21320684  -0.077   5.448   7.655 -0.6815  0.1226 -0.0846
  181SOPE  H13R20685  -0.117   5.542   7.611  0.4225 -0.9714 -3.5412
  181SOPE  H13S20686   0.019   5.481   7.699  0.7638 -1.8926 -1.6646
  181SOPE  C21420687  -0.154   5.383   7.777  0.0377 -0.0208 -0.0044
  181SOPE  H14R20688  -0.086   5.301   7.810 -0.3727  0.0535  1.0366
  181SOPE  H14S20689  -0.238   5.326   7.732 -1.6040  0.3550  2.5091
  181SOPE  C21520690  -0.202   5.482   7.879 -0.8688 -0.1585  0.2783
  181SOPE  H15R20691  -0.275   5.557   7.842  0.6047  0.9300 -0.4621
  181SOPE  H15S20692  -0.117   5.542   7.918 -0.3936 -1.3933  1.1715
  181SOPE  C21620693  -0.275   5.412   7.994  0.2401 -0.2330  0.4243
  181SOPE  H16R20694  -0.221   5.323   8.033 -2.9196 -2.0822  0.7837
  181SOPE  H16S20695  -0.373   5.375   7.957  1.1403 -1.1100 -1.1520
  181SOPE  C21720696  -0.314   5.507   8.113 -0.4969 -0.0426  0.9942
  181SOPE  H17R20697  -0.381   5.587   8.076  0.8703 -0.6592 -3.1019
  181SOPE  H17S20698  -0.225   5.553   8.159 -1.4941 -0.0953  3.0297
  181SOPE  C21820699  -0.408   5.438   8.217 -0.3415 -0.2062 -0.2562
  181SOPE  H18R20700  -0.498   5.390   8.171  0.9701 -3.0458  0.0180
  181SOPE  H18S20701  -0.440   5.513   8.292  1.2975  1.2125 -0.9447
  181SOPE  H18T20702  -0.350   5.363   8.275  0.2123  0.1875 -0.2956
  181SOPE   C3320703   0.552   5.196   6.792 -0.5073  0.1281  0.8271
  181SOPE   H3X20704   0.445   5.170   6.777 -0.8316  0.0750  3.1782
  181SOPE   H3Y20705   0.543   5.300   6.830  0.3938  0.6569 -0.3830
  181SOPE   C3420706   0.607   5.125   6.921 -0.1884  0.1023  0.1931
  181SOPE   H4X20707   0.626   5.018   6.899  2.1546  1.0320 -2.5813
  181SOPE   H4Y20708   0.539   5.128   7.009  0.3732  1.1828  0.5988
  181SOPE   C3520709   0.736   5.187   6.974 -0.9154  0.8778 -0.2810
  181SOPE   H5X20710   0.728   5.298   6.979  0.9572  1.0194  0.0940
  181SOPE   H5Y20711   0.822   5.166   6.907  0.7177  2.0918  1.3749
  181SOPE   C3620712   0.790   5.142   7.112 -0.8163 -0.4819 -0.0923
  181SOPE   H6X20713   0.878   5.204   7.137 -0.8770 -0.4193 -0.0370
  181SOPE   H6Y20714   0.813   5.034   7.115 -0.0139 -0.2682  1.6082
  181SOPE   C3720715   0.697   5.172   7.229  0.4000 -0.6986  0.4352
  181SOPE   H7X20716   0.628   5.084   7.232 -0.8350  0.1991 -0.9088
  181SOPE   H7Y20717   0.629   5.255   7.200 -0.1915 -0.8676  1.3250
  181SOPE   C3820718   0.768   5.168   7.370 -0.0225 -0.2774 -0.1405
  181SOPE   H8X20719   0.849   5.243   7.357 -0.0858 -0.4297 -1.5651
  181SOPE   H8Y20720   0.824   5.072   7.373 -0.8610 -0.7792 -0.1816
  181SOPE   C3920721   0.669   5.161   7.486  0.6536 -0.2320 -0.4202
  181SOPE   H9X20722   0.612   5.069   7.461 -0.5957 -0.1192  1.8825
  181SOPE   H9Y20723   0.594   5.243   7.484 -0.4793 -1.2307  0.3442
  181SOPE  C31020724   0.736   5.144   7.620 -0.8923  0.0780  0.2523
  181SOPE  H10X20725   0.804   5.231   7.637  0.4398 -0.5175 -1.8167
  181SOPE  H10Y20726   0.799   5.052   7.618  0.6832  1.1339 -0.2853
  181SOPE  C31120727   0.645   5.145   7.747 -0.2609  0.0383  0.2551
  181SOPE  H11X20728   0.573   5.060   7.745 -1.7147  1.2658 -0.4814
  181SOPE  H11Y20729   0.592   5.243   7.746  2.3201  1.5152  1.2907
  181SOPE  C31220730   0.727   5.129   7.877 -0.3839 -0.3576  0.3474
  181SOPE  H12X20731   0.801   5.212   7.875 -0.5094 -0.0920  3.2145
  181SOPE  H12Y20732   0.775   5.031   7.895  0.8567  0.5524  2.1930
  181SOPE  C31320733   0.624   5.138   7.999  0.3734  0.8537 -0.1358
  181SOPE  H13X20734   0.542   5.069   7.969  1.1547  0.7041 -1.9395
  181SOPE  H13Y20735   0.580   5.239   7.989 -0.0760  0.6554 -0.2145
  181SOPE  C31420736   0.682   5.125   8.140  0.5574 -0.3840 -0.4425
  181SOPE  H14X20737   0.763   5.199   8.160 -0.2200  0.3557 -0.0142
  181SOPE  H14Y20738   0.729   5.025   8.145 -2.4626 -1.8773 -0.7947
  181SOPE  C31520739   0.570   5.136   8.251  0.5184  0.0550 -0.4120
  181SOPE  H15X20740   0.491   5.070   8.212 -0.1443  1.3824 -1.3392
  181SOPE  H15Y20741   0.533   5.241   8.256 -0.0587 -0.1736  0.1607
  181SOPE  C31620742   0.614   5.098   8.390  0.3130 -0.3530 -0.0524
  181SOPE  H16X20743   0.658   4.996   8.381 -1.7786 -1.0552 -2.9562
  181SOPE  H16Y20744   0.522   5.096   8.452 -0.3830  1.4739 -0.9906
  181SOPE  C31720745   0.722   5.191   8.457  0.0536  0.6069  0.5831
  181SOPE  H17X20746   0.691   5.240   8.551  2.7850  1.1575  1.2503
  181SOPE  H17Y20747   0.736   5.283   8.395  0.3005  1.1445  1.4277
  181SOPE  C31820748   0.859   5.124   8.467 -0.6299  0.5726  0.4109
  181SOPE  H18X20749   0.912   5.137   8.370 -0.0557  0.9883  0.7722
  181SOPE  H18Y20750   0.844   5.020   8.501  3.5251  0.4323  2.0882
  181SOPE  H18Z20751   0.917   5.186   8.538  0.3662 -0.4892  0.5220
  182SOPE     N20752   0.710   0.485   6.185 -0.2930  0.8006 -1.2642
  182SOPE   HN120753   0.724   0.383   6.174 -0.0519  0.7317 -0.3900
  182SOPE   HN220754   0.756   0.537   6.108  0.7164  0.2459 -1.0447
  182SOPE   HN320755   0.749   0.501   6.280  1.9559 -0.9873 -1.8271
  182SOPE   C1220756   0.561   0.502   6.207  0.6460  0.0685 -0.2171
  182SOPE  H12A20757   0.517   0.523   6.107  1.8949  2.6381 -0.2676
  182SOPE  H12B20758   0.547   0.583   6.282  0.1454 -0.0904 -0.1374
  182SOPE   C1120759   0.496   0.377   6.267  0.4451  0.3839  0.0326
  182SOPE  H11A20760   0.394   0.390   6.309  1.3888 -3.0025  3.6471
  182SOPE  H11B20761   0.553   0.357   6.360  0.5409 -1.8059 -0.4609
  182SOPE     P20762   0.608   0.162   6.187 -0.2165 -0.3471 -0.4488
  182SOPE   O1320763   0.735   0.226   6.152 -0.1447 -0.1525 -0.1215
  182SOPE   O1420764   0.574   0.045   6.102 -0.7196  0.8397  0.8021
  182SOPE   O1220765   0.490   0.266   6.172 -0.0115 -0.2295 -0.0274
  182SOPE   O1120766   0.594   0.127   6.335  0.3027  0.1772  0.1244
  182SOPE    C120767   0.493   0.059   6.414 -0.3884 -0.5175 -0.2941
  182SOPE    HA20768   0.525  -0.045   6.434  0.3048 -0.3655 -0.5821
  182SOPE    HB20769   0.391   0.063   6.370 -0.1636 -2.0392 -0.9992
  182SOPE    C220770   0.482   0.096   6.564 -0.0860 -0.4264 -1.0929
  182SOPE    HS20771   0.457   0.204   6.569  0.2281 -0.3542 -1.0203
  182SOPE   O2120772   0.609   0.060   6.641  0.6679  0.0742  0.7901
  182SOPE   C2120773   0.693   0.163   6.654 -0.4953  0.3324 -0.7678
  182SOPE   O2220774   0.672   0.281   6.615  0.0876  0.2219  0.2572
  182SOPE   C2220775   0.818   0.110   6.722  0.1999 -0.0563  0.3059
  182SOPE   H2R20776   0.905   0.105   6.653  1.5116 -0.3954  1.9490
  182SOPE   H2S20777   0.799   0.004   6.747 -1.0785 -0.2519 -1.4119
  182SOPE    C320778   0.366   0.020   6.637  0.7058 -0.0403  0.6889
  182SOPE    HX20779   0.408  -0.083   6.638  1.3463  0.2056 -0.0361
  182SOPE    HY20780   0.276   0.026   6.573  2.6796  1.8878 -2.0583
  182SOPE   O3120781   0.346   0.092   6.765  0.4791 -0.1793  0.3644
  182SOPE   C3120782   0.243   0.061   6.831  0.4748 -0.0102 -0.4915
  182SOPE   O3220783   0.148  -0.002   6.793  0.2131  0.4628 -0.7463
  182SOPE   C3220784   0.262   0.115   6.978 -0.2333 -0.1606  0.5757
  182SOPE   H2X20785   0.272   0.225   6.964 -0.9346  0.0396  1.5976
  182SOPE   H2Y20786   0.361   0.075   7.011 -0.5111 -0.2623  1.2896
  182SOPE   C2320787   0.841   0.192   6.842  0.3987 -0.0781 -0.0890
  182SOPE   H3R20788   0.896   0.130   6.917  0.6117 -0.9300 -0.9494
  182SOPE   H3S20789   0.753   0.220   6.904  0.5102  1.1323 -0.4485
  182SOPE   C2420790   0.924   0.316   6.812 -0.1663  0.0018 -0.7036
  182SOPE   H4R20791   1.013   0.285   6.754  0.0067 -0.9445  0.0406
  182SOPE   H4S20792   0.870   0.396   6.758  1.6055  0.7733 -1.3632
  182SOPE   C2520793   0.969   0.371   6.943 -0.4231 -0.3023  0.5789
  182SOPE   H5R20794   0.877   0.388   7.004 -0.8175 -1.4917  0.3316
  182SOPE   H5S20795   1.031   0.301   7.004  0.8717  0.8235  0.5714
  182SOPE   C2620796   1.062   0.494   6.925  0.0849 -0.6045 -0.1719
  182SOPE   H6R20797   1.162   0.469   6.883  0.0657 -1.0683  0.0491
  182SOPE   H6S20798   1.021   0.572   6.858  1.1224  0.6552  0.6309
  182SOPE   C2720799   1.081   0.561   7.059 -0.2175  0.0787  0.2596
  182SOPE   H7R20800   1.114   0.498   7.143  0.5881  0.3233  0.1365
  182SOPE   H7S20801   1.161   0.638   7.046 -0.9587  1.0639  1.4862
  182SOPE   C2820802   0.956   0.620   7.118 -0.0986 -0.8206  0.4633
  182SOPE   H8R20803   0.920   0.677   7.030  2.7882 -2.3240 -1.7656
  182SOPE   H8S20804   0.897   0.529   7.144 -0.7401 -1.2263 -2.2885
  182SOPE   C2920805   0.974   0.703   7.237 -0.5152  0.4044 -0.4065
  182SOPE   H9120806   1.073   0.751   7.248 -0.3114  0.3413 -1.9383
  182SOPE  C21020807   0.875   0.746   7.317  0.0529 -0.5187 -0.8327
  182SOPE  H10120808   0.888   0.812   7.405 -1.8720 -0.4403 -0.5777
  182SOPE  C21120809   0.725   0.715   7.306 -0.0840 -0.2034  0.7818
  182SOPE  H11R20810   0.705   0.671   7.206  3.5243 -0.0358 -0.1108
  182SOPE  H11S20811   0.672   0.812   7.319 -4.2232 -2.5839  2.5640
  182SOPE  C21220812   0.693   0.621   7.424 -0.1826 -0.4918  0.1021
  182SOPE  H12R20813   0.757   0.531   7.416  1.1800  0.5249 -0.6577
  182SOPE  H12S20814   0.587   0.588   7.420  0.2491 -2.0357  0.9879
  182SOPE  C21320815   0.720   0.695   7.560  0.0331 -0.2354 -0.2095
  182SOPE  H13R20816   0.670   0.794   7.567 -0.4006 -0.4392 -0.3983
  182SOPE  H13S20817   0.829   0.703   7.576 -0.3468  0.8829  1.9136
  182SOPE  C21420818   0.646   0.613   7.670 -0.1823 -0.4154 -0.2759
  182SOPE  H14R20819   0.692   0.512   7.678  0.5904 -0.1026 -0.6815
  182SOPE  H14S20820   0.540   0.604   7.638 -0.4834  0.5889  0.4155
  182SOPE  C21520821   0.635   0.674   7.812 -0.0159  0.8208  0.0676
  182SOPE  H15R20822   0.586   0.774   7.811 -0.4421  0.6253  1.1834
  182SOPE  H15S20823   0.738   0.701   7.843 -0.3170  0.9906  0.9404
  182SOPE  C21620824   0.565   0.583   7.914 -0.0560 -0.0052 -0.2084
  182SOPE  H16R20825   0.597   0.478   7.901 -0.0579 -0.0538  0.1584
  182SOPE  H16S20826   0.455   0.602   7.920 -0.3917 -1.3535 -1.8553
  182SOPE  C21720827   0.612   0.628   8.057 -0.2144  0.4651 -0.0722
  182SOPE  H17R20828   0.570   0.729   8.076  1.1512  0.9166  0.5933
  182SOPE  H17S20829   0.723   0.622   8.061 -0.1885  1.8551  1.5669
  182SOPE  C21820830   0.559   0.522   8.163  0.6213  0.3595  0.1784
  182SOPE  H18R20831   0.448   0.518   8.159  0.4573  3.1861  1.2666
  182SOPE  H18S20832   0.581   0.558   8.266  2.5271  0.8109 -0.3665
  182SOPE  H18T20833   0.599   0.422   8.136  1.0476  0.6821 -0.3933
  182SOPE   C3320834   0.153   0.067   7.072  0.4630 -0.4306  0.2683
  182SOPE   H3X20835   0.179  -0.035   7.108 -0.2957 -0.5419  0.4930
  182SOPE   H3Y20836   0.051   0.053   7.030  0.2233  1.3911  0.2295
  182SOPE   C3420837   0.133   0.164   7.185 -0.0571  0.2936 -1.1674
  182SOPE   H4X20838   0.082   0.251   7.139 -0.0272  0.7531 -0.3394
  182SOPE   H4Y20839   0.221   0.200   7.243 -2.0196 -0.7113  2.6508
  182SOPE   C3520840   0.044   0.104   7.293  0.3840 -0.0749 -0.5244
  182SOPE   H5X20841   0.078  -0.001   7.311 -0.3754 -0.1087  0.7964
  182SOPE   H5Y20842  -0.061   0.086   7.261  0.2991 -1.1577  0.2981
  182SOPE   C3620843   0.050   0.179   7.427 -0.5769 -1.0479 -0.5477
  182SOPE   H6X20844  -0.001   0.277   7.415  2.0878  0.4492 -0.1316
  182SOPE   H6Y20845   0.156   0.195   7.458 -0.0655 -1.7668 -1.8782
  182SOPE   C3720846  -0.019   0.122   7.552  0.0784  0.5203  0.3339
  182SOPE   H7X20847  -0.129   0.119   7.542  0.1655  0.4873 -0.6520
  182SOPE   H7Y20848   0.006   0.180   7.644  1.5850  0.8836 -0.2768
  182SOPE   C3820849   0.020  -0.028   7.584 -0.3529 -0.2324  0.0402
  182SOPE   H8X20850   0.013  -0.088   7.491 -2.5484  0.2874 -0.1753
  182SOPE   H8Y20851  -0.056  -0.082   7.645 -0.1181 -1.1468 -0.4807
  182SOPE   C3920852   0.152  -0.036   7.660 -0.6112 -0.4785 -0.7222
  182SOPE   H9X20853   0.136   0.020   7.754  2.0253  2.3288 -1.8543
  182SOPE   H9Y20854   0.228   0.031   7.615  1.9286 -2.2973  0.7184
  182SOPE  C31020855   0.206  -0.177   7.683  0.7822 -0.5910 -0.1381
  182SOPE  H10X20856   0.263  -0.196   7.589  4.3050  1.9537  1.3727
  182SOPE  H10Y20857   0.122  -0.246   7.703  1.2700 -2.0426 -2.8075
  182SOPE  C31120858   0.310  -0.180   7.791  0.0447  0.2187 -0.0168
  182SOPE  H11X20859   0.261  -0.163   7.889 -0.4830  0.0999 -0.2595
  182SOPE  H11Y20860   0.369  -0.087   7.782 -0.7951  0.6160 -1.6395
  182SOPE  C31220861   0.411  -0.300   7.785  0.2435 -0.3342  0.0125
  182SOPE  H12X20862   0.489  -0.279   7.709  0.1518  4.3633  1.0798
  182SOPE  H12Y20863   0.362  -0.396   7.756  3.6337 -1.7066 -1.3318
  182SOPE  C31320864   0.484  -0.318   7.928  0.2352  0.3235 -0.1051
  182SOPE  H13X20865   0.516  -0.222   7.972 -3.2851 -0.0443  3.5304
  182SOPE  H13Y20866   0.572  -0.383   7.909  0.0403  0.8129 -2.9915
  182SOPE  C31420867   0.403  -0.392   8.036 -0.2484 -0.6111  0.1700
  182SOPE  H14X20868   0.380  -0.494   8.001  1.2728  0.0448 -2.8528
  182SOPE  H14Y20869   0.310  -0.330   8.034  0.7690  0.9205 -0.1913
  182SOPE  C31520870   0.463  -0.382   8.180 -0.0834  0.4754  0.5020
  182SOPE  H15X20871   0.464  -0.275   8.209 -2.0835  0.6845 -0.0940
  182SOPE  H15Y20872   0.565  -0.424   8.175 -1.3401 -2.5867 -0.9343
  182SOPE  C31620873   0.385  -0.463   8.286  0.0967 -0.0550 -0.6393
  182SOPE  H16X20874   0.386  -0.566   8.245 -0.0961  0.0255 -0.8431
  182SOPE  H16Y20875   0.278  -0.437   8.280  0.0345 -0.5566 -1.9223
  182SOPE  C31720876   0.456  -0.459   8.423 -0.5249  0.4447 -0.2489
  182SOPE  H17X20877   0.386  -0.484   8.505  0.6475  0.0736  0.6474
  182SOPE  H17Y20878   0.494  -0.356   8.442 -1.8366  1.0383 -0.7015
  182SOPE  C31820879   0.570  -0.553   8.423  0.1792  0.7593 -0.5245
  182SOPE  H18X20880   0.650  -0.527   8.350  0.6783 -1.9385 -1.0171
  182SOPE  H18Y20881   0.543  -0.657   8.393  0.4062  0.7072 -0.5509
  182SOPE  H18Z20882   0.615  -0.561   8.524 -2.0040  0.5151  0.4427
  183SOPE     N20883   2.899   5.973   6.258  0.0873  0.1225  0.0591
  183SOPE   HN120884   2.931   5.926   6.171 -1.8057  2.4937 -1.9931
  183SOPE   HN220885   2.805   5.938   6.285  0.2734 -1.3963 -1.1345
  183SOPE   HN320886   2.900   6.076   6.246 -0.2496  0.2499  1.0339
  183SOPE   C1220887   2.998   5.943   6.369 -0.5358 -0.4798  0.5733
  183SOPE  H12A20888   2.991   6.022   6.447 -0.2601 -0.6095  0.7301
  183SOPE  H12B20889   3.101   5.943   6.330 -0.0271 -0.9689  1.8682
  183SOPE   C1120890   2.967   5.814   6.434 -0.8258 -0.1181 -0.1378
  183SOPE  H11A20891   2.868   5.828   6.484 -1.4692 -0.0951 -1.4012
  183SOPE  H11B20892   3.047   5.815   6.511  0.3402 -1.6069 -1.3096
  183SOPE     P20893   3.090   5.604   6.339  0.1164 -0.2442 -0.0472
  183SOPE   O1320894   3.209   5.666   6.274  0.7973 -0.5152  0.2334
  183SOPE   O1420895   3.045   5.486   6.270  0.4708  0.2569  0.7053
  183SOPE   O1220896   2.975   5.710   6.342 -0.6891  0.2854 -0.2555
  183SOPE   O1120897   3.121   5.574   6.491  0.3659  0.6145  0.1219
  183SOPE    C120898   3.096   5.443   6.541 -0.1017 -0.1300  0.3370
  183SOPE    HA20899   3.159   5.430   6.632  2.2764 -1.0692 -1.3998
  183SOPE    HB20900   3.125   5.362   6.471  0.5732  1.5133 -1.3309
  183SOPE    C220901   2.945   5.428   6.582  0.9608  0.2974 -0.1416
  183SOPE    HS20902   2.888   5.421   6.487  0.9202 -1.0929 -0.0227
  183SOPE   O2120903   2.909   5.537   6.665  0.3820 -0.4816  0.2443
  183SOPE   C2120904   2.791   5.596   6.638 -0.0613  0.7503 -0.3572
  183SOPE   O2220905   2.710   5.569   6.548 -0.1989 -0.4057 -0.2373
  183SOPE   C2220906   2.785   5.723   6.719 -0.2330  0.3126 -0.2499
  183SOPE   H2R20907   2.735   5.809   6.671  2.0447  1.6882 -0.2401
  183SOPE   H2S20908   2.885   5.759   6.754 -1.5389  2.7094  1.1766
  183SOPE    C320909   2.926   5.298   6.667 -0.0555 -0.1145  0.2311
  183SOPE    HX20910   3.021   5.270   6.719 -0.8570  1.8413  2.8650
  183SOPE    HY20911   2.900   5.228   6.585  0.6209  0.5953 -0.5893
  183SOPE   O3120912   2.833   5.313   6.772 -0.1435  0.0580 -0.5009
  183SOPE   C3120913   2.807   5.192   6.813 -1.3344 -0.8102 -0.1069
  183SOPE   O3220914   2.870   5.087   6.786 -0.4151  0.2604  0.1278
  183SOPE   C3220915   2.685   5.203   6.899  0.2808 -0.6929  0.2345
  183SOPE   H2X20916   2.604   5.239   6.832  1.0983 -2.2670 -1.6333
  183SOPE   H2Y20917   2.710   5.281   6.975 -3.3933  2.2428 -1.4011
  183SOPE   C2320918   2.696   5.698   6.846 -0.1869  0.0830 -0.3729
  183SOPE   H3R20919   2.599   5.662   6.807  0.1723 -0.2960 -0.9209
  183SOPE   H3S20920   2.683   5.789   6.909 -1.5864 -0.9687  0.9048
  183SOPE   C2420921   2.753   5.598   6.946  0.4892  0.1171  1.1625
  183SOPE   H4R20922   2.769   5.498   6.901 -0.4217  0.2820  0.4547
  183SOPE   H4S20923   2.853   5.640   6.969  1.5704  0.2802 -3.3757
  183SOPE   C2520924   2.670   5.581   7.073  0.1993  0.0335 -0.5178
  183SOPE   H5R20925   2.610   5.672   7.092 -0.6120 -0.4844 -0.5860
  183SOPE   H5S20926   2.590   5.507   7.049  0.8066 -1.5696  2.1737
  183SOPE   C2620927   2.754   5.519   7.186  0.5105  0.3018  0.4283
  183SOPE   H6R20928   2.805   5.423   7.162  1.1187  0.7843 -0.2409
  183SOPE   H6S20929   2.843   5.580   7.213  1.7313 -0.9331 -0.6935
  183SOPE   C2720930   2.676   5.500   7.318  0.2836 -0.0159  0.3868
  183SOPE   H7R20931   2.568   5.475   7.304  0.0229  0.7759  1.0054
  183SOPE   H7S20932   2.724   5.414   7.369  0.2771 -0.0550  0.3276
  183SOPE   C2820933   2.680   5.629   7.408 -0.0081  0.0933 -0.4502
  183SOPE   H8R20934   2.786   5.647   7.438  0.0007  0.6378 -0.7958
  183SOPE   H8S20935   2.634   5.717   7.358  1.6158  1.7060  0.7900
  183SOPE   C2920936   2.606   5.620   7.539  0.0305  0.3052 -0.7707
  183SOPE   H9120937   2.508   5.571   7.535 -0.4359  0.9664  1.6241
  183SOPE  C21020938   2.648   5.668   7.658  0.8408 -0.7539 -0.5957
  183SOPE  H10120939   2.587   5.651   7.747  1.5278  2.6799  0.5947
  183SOPE  C21120940   2.770   5.739   7.694  0.3788  0.5424 -0.3036
  183SOPE  H11R20941   2.828   5.782   7.609 -0.0252  1.0996 -0.3034
  183SOPE  H11S20942   2.833   5.672   7.757  0.6221  0.4986 -0.5899
  183SOPE  C21220943   2.740   5.861   7.788 -0.9040 -0.5715  0.2396
  183SOPE  H12R20944   2.654   5.923   7.753 -0.9144  0.8263  2.5612
  183SOPE  H12S20945   2.831   5.925   7.787 -0.9044 -0.5770 -0.2599
  183SOPE  C21320946   2.721   5.830   7.937  0.2572  0.2951  0.8948
  183SOPE  H13R20947   2.814   5.797   7.990  0.6092  0.2032  0.2201
  183SOPE  H13S20948   2.652   5.744   7.948  2.3121 -1.4471  0.3871
  183SOPE  C21420949   2.672   5.949   8.025 -0.0890  0.6698 -0.5223
  183SOPE  H14R20950   2.583   5.995   7.977 -1.1156 -0.1380  0.5915
  183SOPE  H14S20951   2.754   6.024   8.033 -0.0770  0.7977 -1.6523
  183SOPE  C21520952   2.629   5.913   8.172 -0.0624 -0.6598  0.3199
  183SOPE  H15R20953   2.552   5.834   8.169 -0.0790 -0.6276 -0.4272
  183SOPE  H15S20954   2.568   5.997   8.211 -2.3989 -0.6782 -3.0174
  183SOPE  C21620955   2.736   5.873   8.270 -0.2164  0.3577 -0.1057
  183SOPE  H16R20956   2.829   5.932   8.254  0.8320 -0.8263  1.3951
  183SOPE  H16S20957   2.767   5.767   8.252  0.1923  0.2489  1.1351
  183SOPE  C21720958   2.691   5.886   8.418 -0.2931  0.2369  0.6032
  183SOPE  H17R20959   2.657   5.991   8.436 -1.6879 -0.2220  0.7140
  183SOPE  H17S20960   2.787   5.861   8.469 -0.7831 -1.3440  0.7553
  183SOPE  C21820961   2.582   5.789   8.464 -0.5630 -0.3737 -0.2449
  183SOPE  H18R20962   2.610   5.686   8.433 -2.2687 -0.8505 -0.2421
  183SOPE  H18S20963   2.485   5.818   8.418 -1.4366 -4.6527 -1.3278
  183SOPE  H18T20964   2.558   5.799   8.572 -0.9856  1.0068 -0.4476
  183SOPE   C3320965   2.625   5.081   6.976 -0.3929  0.5176  0.5485
  183SOPE   H3X20966   2.711   5.049   7.039 -0.5317 -0.9258  0.0375
  183SOPE   H3Y20967   2.594   5.001   6.905  0.0888  2.2850 -1.7439
  183SOPE   C3420968   2.508   5.128   7.058 -0.4038 -0.1111  0.1435
  183SOPE   H4X20969   2.433   5.048   7.076 -1.0964  0.9290  2.0541
  183SOPE   H4Y20970   2.452   5.209   7.007 -3.7593 -2.5068 -0.1330
  183SOPE   C3520971   2.555   5.192   7.194 -0.3097  0.4024  0.1813
  183SOPE   H5X20972   2.471   5.235   7.253 -0.9330  1.6570 -1.5785
  183SOPE   H5Y20973   2.631   5.272   7.179 -0.3982  0.3398 -0.6320
  183SOPE   C3620974   2.629   5.098   7.291 -0.7715  0.2154 -0.3684
  183SOPE   H6X20975   2.738   5.096   7.270 -0.4793  1.0740  1.0164
  183SOPE   H6Y20976   2.595   4.995   7.270 -0.1479 -0.0722  0.0131
  183SOPE   C3720977   2.598   5.127   7.434 -0.0372  0.1623 -0.3322
  183SOPE   H7X20978   2.489   5.122   7.455 -0.3479  0.2424 -1.8790
  183SOPE   H7Y20979   2.629   5.231   7.457 -1.6969  0.7185 -0.5984
  183SOPE   C3820980   2.678   5.037   7.523  0.8012 -0.1714 -0.0484
  183SOPE   H8X20981   2.777   5.088   7.526  1.4250 -1.3555 -0.3710
  183SOPE   H8Y20982   2.681   4.938   7.474  0.7302 -0.5500  0.7107
  183SOPE   C3920983   2.619   5.037   7.659  0.0086  0.3681  0.1468
  183SOPE   H9X20984   2.684   4.986   7.733  0.1140 -0.6488 -0.6392
  183SOPE   H9Y20985   2.524   4.978   7.664  0.2342 -0.1959 -1.9981
  183SOPE  C31020986   2.587   5.179   7.721 -0.2834  0.0854 -0.6391
  183SOPE  H10X20987   2.495   5.201   7.663  1.6222  0.9686 -3.4665
  183SOPE  H10Y20988   2.675   5.240   7.691 -0.3069  0.1135 -0.6505
  183SOPE  C31120989   2.553   5.181   7.879 -0.1602 -0.5405  0.3631
  183SOPE  H11X20990   2.651   5.183   7.932  0.7742  0.2039 -1.3360
  183SOPE  H11Y20991   2.492   5.098   7.920 -0.7589 -1.7351 -2.8228
  183SOPE  C31220992   2.480   5.316   7.925 -0.3651 -0.0242 -0.1857
  183SOPE  H12X20993   2.370   5.307   7.907 -0.6315 -1.3250  1.9386
  183SOPE  H12Y20994   2.525   5.399   7.867 -0.8869 -0.6172 -1.4818
  183SOPE  C31320995   2.500   5.336   8.075 -0.3302 -0.2187  0.1839
  183SOPE  H13X20996   2.607   5.330   8.102 -1.0789 -1.3806  3.1530
  183SOPE  H13Y20997   2.447   5.246   8.114 -1.5996 -0.2233 -1.4917
  183SOPE  C31420998   2.434   5.461   8.116 -0.3548  0.1168 -0.1550
  183SOPE  H14X20999   2.329   5.464   8.080  0.3184  2.5853 -2.0998
  183SOPE  H14Y21000   2.480   5.550   8.067 -2.1962 -0.4905 -3.1312
  183SOPE  C31521001   2.450   5.491   8.266  0.3930  0.1299 -0.3741
  183SOPE  H15X21002   2.417   5.594   8.288  0.3812  0.1622 -0.5464
  183SOPE  H15Y21003   2.556   5.478   8.298  0.4795  2.2358  0.2884
  183SOPE  C31621004   2.363   5.395   8.353  0.3234  0.2622 -0.4216
  183SOPE  H16X21005   2.406   5.293   8.355  0.9928  0.5536  0.7402
  183SOPE  H16Y21006   2.267   5.385   8.298  0.0211 -0.6110  0.2602
  183SOPE  C31721007   2.332   5.445   8.496 -1.0651  0.3284  0.2280
  183SOPE  H17X21008   2.316   5.555   8.485  1.5778  0.8401  1.1483
  183SOPE  H17Y21009   2.428   5.440   8.551 -0.3713 -1.4771 -1.1142
  183SOPE  C31821010   2.215   5.375   8.572 -0.2910 -0.4284 -0.0053
  183SOPE  H18X21011   2.206   5.416   8.675 -2.5760 -0.0673 -0.3151
  183SOPE  H18Y21012   2.248   5.272   8.597  2.2309  0.8454  2.1985
  183SOPE  H18Z21013   2.120   5.382   8.516 -1.1897 -1.5218  1.3342
  184SOPE     N21014   1.707   5.310   6.033  0.6438  0.6952  0.1830
  184SOPE   HN121015   1.763   5.313   6.120 -0.0748  0.7578  0.6455
  184SOPE   HN221016   1.667   5.405   6.029  1.1081  0.8438 -1.2844
  184SOPE   HN321017   1.626   5.245   6.042  0.0803  1.5998  1.7436
  184SOPE   C1221018   1.805   5.295   5.915 -0.8786  0.2702 -0.0116
  184SOPE  H12A21019   1.751   5.315   5.820 -0.0676  0.4970 -0.4251
  184SOPE  H12B21020   1.848   5.192   5.919  0.3771  0.8299  0.9910
  184SOPE   C1121021   1.925   5.385   5.939 -0.3259  0.1844 -0.4346
  184SOPE  H11A21022   1.892   5.491   5.936  0.9544  0.5739 -1.0872
  184SOPE  H11B21023   1.996   5.362   5.857  1.0492 -0.0054  0.7893
  184SOPE     P21024   2.117   5.441   6.103 -0.1718 -0.4117  0.1790
  184SOPE   O1321025   2.135   5.559   6.016  0.2240  0.5265 -0.0493
  184SOPE   O1421026   2.239   5.360   6.128 -0.0876 -0.7493 -0.2379
  184SOPE   O1221027   1.993   5.349   6.056 -0.3323  0.4039 -0.6033
  184SOPE   O1121028   2.063   5.492   6.236  0.2992 -0.2841  0.1345
  184SOPE    C121029   2.087   5.423   6.361 -0.5651  0.1128 -0.3149
  184SOPE    HA21030   2.119   5.319   6.341  3.6895  1.4775 -1.0185
  184SOPE    HB21031   1.992   5.418   6.419 -0.2224  2.2443  0.4836
  184SOPE    C221032   2.191   5.494   6.454  0.4215  0.1081  0.3857
  184SOPE    HS21033   2.294   5.474   6.419  0.6979  0.7100  0.8341
  184SOPE   O2121034   2.155   5.443   6.586  0.1998 -0.0378 -0.0433
  184SOPE   C2121035   2.265   5.449   6.674  0.1807 -0.6065 -0.1248
  184SOPE   O2221036   2.380   5.470   6.643 -0.2221 -0.0844 -0.0644
  184SOPE   C2221037   2.208   5.418   6.811 -0.6834  0.3927 -0.0474
  184SOPE   H2R21038   2.198   5.308   6.812  0.0813  0.3113 -0.8752
  184SOPE   H2S21039   2.112   5.475   6.814  0.7722  3.0124 -1.6983
  184SOPE    C321040   2.176   5.648   6.441 -0.0880  0.2727 -0.2619
  184SOPE    HX21041   2.069   5.679   6.438 -0.4336 -0.5358  2.2359
  184SOPE    HY21042   2.214   5.676   6.341 -0.5744 -2.7374 -1.3220
  184SOPE   O3121043   2.242   5.722   6.553  0.0142 -0.0906  0.3186
  184SOPE   C3121044   2.363   5.775   6.530  0.4456 -0.2627  0.3837
  184SOPE   O3221045   2.418   5.780   6.423  0.3810 -0.2490  0.7408
  184SOPE   C3221046   2.418   5.842   6.651 -0.7459  0.6268  0.0706
  184SOPE   H2X21047   2.462   5.938   6.616 -1.0225 -0.0947 -2.3113
  184SOPE   H2Y21048   2.511   5.785   6.674  0.7091  1.7923 -2.7111
  184SOPE   C2321049   2.293   5.471   6.924  0.0570  0.4066 -1.1953
  184SOPE   H3R21050   2.330   5.575   6.911  3.5468 -0.4197  1.2206
  184SOPE   H3S21051   2.378   5.400   6.933  0.2656  0.9595  1.4989
  184SOPE   C2421052   2.215   5.468   7.059  0.3317  0.0794 -0.2030
  184SOPE   H4R21053   2.127   5.536   7.055  0.6888  0.6980  1.7788
  184SOPE   H4S21054   2.175   5.367   7.080  1.1160 -0.2950 -0.5036
  184SOPE   C2521055   2.298   5.515   7.177  0.5982  0.2641  0.2387
  184SOPE   H5R21056   2.361   5.428   7.205  0.0274  0.1582  1.2052
  184SOPE   H5S21057   2.366   5.599   7.151  0.7403  0.6309  1.7440
  184SOPE   C2621058   2.205   5.571   7.282 -0.1431  0.3971 -0.1541
  184SOPE   H6R21059   2.148   5.647   7.224 -0.6258 -0.6719 -1.0979
  184SOPE   H6S21060   2.129   5.505   7.329  0.5675 -0.2688  0.0585
  184SOPE   C2721061   2.275   5.660   7.389  0.6627  0.0981  0.0710
  184SOPE   H7R21062   2.311   5.588   7.466 -0.6297  0.1401  0.7196
  184SOPE   H7S21063   2.366   5.709   7.347  2.3127 -3.2542 -0.4437
  184SOPE   C2821064   2.177   5.757   7.461  0.3901  0.1425  0.3188
  184SOPE   H8R21065   2.117   5.802   7.379 -0.1437  0.2910  0.7917
  184SOPE   H8S21066   2.107   5.692   7.518  2.4367 -1.2461  1.3201
  184SOPE   C2921067   2.252   5.859   7.545 -0.4176  0.6599  0.0197
  184SOPE   H9121068   2.318   5.930   7.493  1.9412 -1.7650 -0.4213
  184SOPE  C21021069   2.246   5.866   7.679 -0.7920  0.7100  0.2956
  184SOPE  H10121070   2.299   5.950   7.727 -1.1806  3.5921 -4.0369
  184SOPE  C21121071   2.170   5.782   7.771 -0.2722  0.4499  1.0427
  184SOPE  H11R21072   2.235   5.694   7.792  0.5931  0.8809  0.1997
  184SOPE  H11S21073   2.086   5.737   7.713  1.9520 -0.3844 -1.6216
  184SOPE  C21221074   2.101   5.843   7.896  0.0658  0.3086  0.0134
  184SOPE  H12R21075   2.038   5.753   7.914  0.5020 -0.0306 -0.1417
  184SOPE  H12S21076   2.039   5.930   7.864 -1.1394 -0.5042  0.1096
  184SOPE  C21321077   2.188   5.865   8.014 -0.2975  0.1505  0.5775
  184SOPE  H13R21078   2.288   5.912   7.999 -0.0997 -0.5159 -0.2739
  184SOPE  H13S21079   2.196   5.770   8.071 -0.2558 -0.9112 -1.1386
  184SOPE  C21421080   2.119   5.963   8.114  0.4637 -0.1512  0.0700
  184SOPE  H14R21081   2.032   5.913   8.161  1.0223  0.5413  1.8503
  184SOPE  H14S21082   2.076   6.050   8.060 -0.5585 -0.7746 -0.1313
  184SOPE  C21521083   2.203   6.001   8.235 -0.4350  0.1373  0.1541
  184SOPE  H15R21084   2.284   6.057   8.181  0.3800 -0.1771  1.0460
  184SOPE  H15S21085   2.248   5.911   8.280  0.4880  0.4093 -0.1959
  184SOPE  C21621086   2.147   6.094   8.341  0.2593 -0.2341 -0.0143
  184SOPE  H16R21087   2.043   6.063   8.366 -0.5869  1.8900 -0.7357
  184SOPE  H16S21088   2.147   6.201   8.309 -1.4386 -0.4111 -0.6788
  184SOPE  C21721089   2.241   6.079   8.456 -0.1041  0.0257  0.5246
  184SOPE  H17R21090   2.342   6.094   8.411  0.0653  0.3538  1.0059
  184SOPE  H17S21091   2.230   5.975   8.493  0.6976 -0.2030  0.1377
  184SOPE  C21821092   2.214   6.164   8.583  0.1815 -0.7711 -0.6168
  184SOPE  H18R21093   2.105   6.183   8.593  0.2375 -1.2605  1.2653
  184SOPE  H18S21094   2.277   6.255   8.587  1.1387 -1.4508  0.4560
  184SOPE  H18T21095   2.240   6.110   8.677  2.0662  0.3407 -0.4724
  184SOPE   C3321096   2.321   5.879   6.767 -0.8994  0.7346  0.7064
  184SOPE   H3X21097   2.299   5.790   6.830  3.2451 -0.2797  0.8774
  184SOPE   H3Y21098   2.229   5.913   6.715 -0.3535 -0.2662 -0.9553
  184SOPE   C3421099   2.373   5.995   6.850 -0.4294  0.7726 -0.1863
  184SOPE   H4X21100   2.412   6.077   6.786  2.5334 -1.5356 -1.4352
  184SOPE   H4Y21101   2.459   5.965   6.912 -1.6984  1.8278  2.1484
  184SOPE   C3521102   2.255   6.028   6.950 -0.2347  0.4654  0.1668
  184SOPE   H5X21103   2.222   5.933   6.995  0.2370  1.5360  2.8846
  184SOPE   H5Y21104   2.164   6.060   6.894 -0.9353 -0.5612  0.7189
  184SOPE   C3621105   2.293   6.141   7.048 -0.4299  0.2116 -0.3422
  184SOPE   H6X21106   2.325   6.225   6.983  0.8217 -0.8076 -1.0633
  184SOPE   H6Y21107   2.377   6.104   7.111  0.1602  0.2347 -1.1079
  184SOPE   C3721108   2.168   6.177   7.136  0.5234 -0.4170  0.3687
  184SOPE   H7X21109   2.129   6.091   7.195  3.3925  0.4538  3.6732
  184SOPE   H7Y21110   2.088   6.205   7.064  1.0450 -1.8039 -0.7545
  184SOPE   C3821111   2.192   6.299   7.231 -0.3098 -0.1475  0.4294
  184SOPE   H8X21112   2.221   6.384   7.166  1.7247  1.4801  3.3331
  184SOPE   H8Y21113   2.273   6.281   7.305 -0.3467  0.5066  0.6306
  184SOPE   C3921114   2.074   6.334   7.314 -0.4189 -0.3520 -0.4292
  184SOPE   H9X21115   1.982   6.299   7.261 -0.1420  0.1519 -1.2649
  184SOPE   H9Y21116   2.063   6.443   7.330 -3.2753 -0.9214  1.9431
  184SOPE  C31021117   2.068   6.267   7.445  0.2691 -0.2331  0.0459
  184SOPE  H10X21118   2.157   6.291   7.508 -0.3277 -1.1364  1.2664
  184SOPE  H10Y21119   2.073   6.157   7.432  5.3480 -0.4314  2.5045
  184SOPE  C31121120   1.948   6.312   7.532  0.1676  0.0127 -0.2258
  184SOPE  H11X21121   1.852   6.284   7.484  0.1481 -0.4481  0.0818
  184SOPE  H11Y21122   1.952   6.422   7.548 -1.2984 -0.0458  0.6166
  184SOPE  C31221123   1.956   6.255   7.679 -0.4196 -0.0617  0.2405
  184SOPE  H12X21124   2.056   6.287   7.715  0.1946  0.4240 -1.7812
  184SOPE  H12Y21125   1.962   6.145   7.667  0.0167  0.1339 -1.6115
  184SOPE  C31321126   1.846   6.301   7.776 -0.1495  0.5063  0.1811
  184SOPE  H13X21127   1.753   6.259   7.733 -0.4354  1.7021 -0.3892
  184SOPE  H13Y21128   1.843   6.412   7.774 -2.1535  0.5690  3.3961
  184SOPE  C31421129   1.874   6.245   7.918  0.4194 -0.5445 -0.5931
  184SOPE  H14X21130   1.983   6.250   7.938  0.4388 -1.0678 -0.5721
  184SOPE  H14Y21131   1.855   6.137   7.930  1.5196 -0.6273  0.5059
  184SOPE  C31521132   1.791   6.320   8.020 -0.0144  0.6568  0.0120
  184SOPE  H15X21133   1.687   6.288   7.998  0.6908 -1.6529 -0.1259
  184SOPE  H15Y21134   1.788   6.429   8.002  1.0206  0.5537 -0.8301
  184SOPE  C31621135   1.838   6.301   8.158  0.4131  0.3122 -0.4244
  184SOPE  H16X21136   1.948   6.321   8.159  1.4354 -4.5625  0.0030
  184SOPE  H16Y21137   1.835   6.192   8.178 -0.0668  0.8610  2.7934
  184SOPE  C31721138   1.766   6.376   8.267 -0.2453 -0.5479 -0.2750
  184SOPE  H17X21139   1.725   6.471   8.227 -2.2529 -1.5148 -0.6321
  184SOPE  H17Y21140   1.844   6.387   8.345 -0.9063  2.6082  0.0036
  184SOPE  C31821141   1.652   6.301   8.338 -0.1541 -0.0761 -0.3076
  184SOPE  H18X21142   1.561   6.286   8.277 -0.0421  2.6005 -1.2457
  184SOPE  H18Y21143   1.624   6.364   8.425  0.4866 -0.8851  0.4874
  184SOPE  H18Z21144   1.692   6.213   8.392  0.2440  1.2313  1.5895
  185SAPI   C1221145   4.815   2.401  11.329  0.1833 -0.4161 -0.0559
  185SAPI    H221146   4.820   2.292  11.350 -1.6739 -0.2424  1.4465
  185SAPI    O221147   4.679   2.442  11.330  0.3796 -0.2032 -0.4483
  185SAPI   HO221148   4.635   2.400  11.256 -0.2158  0.5946 -0.5557
  185SAPI   C1321149   4.900   2.481  11.430 -0.0826  0.4548 -0.1590
  185SAPI    H321150   5.004   2.443  11.426 -0.3482 -0.3406  0.4280
  185SAPI    O321151   4.851   2.460  11.561  0.2884  0.1335  0.0610
  185SAPI   HO321152   4.862   2.528  11.629 -0.5296 -1.5035  1.8908
  185SAPI   C1421153   4.897   2.632  11.400 -0.1712  0.2921 -0.7052
  185SAPI    H421154   4.790   2.661  11.396 -0.2778  0.1662  0.8175
  185SAPI    O421155   4.951   2.715  11.504  0.0379  0.2660 -0.0930
  185SAPI   HO421156   5.044   2.693  11.516 -0.0476 -0.6397 -0.9629
  185SAPI   C1521157   4.964   2.658  11.262  0.5752  0.5023  0.8552
  185SAPI    H521158   5.070   2.623  11.268  0.7553  1.2943  2.7974
  185SAPI    O521159   4.970   2.795  11.227 -0.2102 -0.6882 -0.3300
  185SAPI   HO521160   5.054   2.794  11.180 -0.0990 -0.0090 -0.1496
  185SAPI   C1621161   4.892   2.572  11.159 -1.2913  0.3231 -1.0903
  185SAPI    H621162   4.786   2.601  11.148 -1.4188  0.1321 -0.3943
  185SAPI    O621163   4.961   2.588  11.030 -0.4190 -0.0183 -0.1165
  185SAPI   HO621164   4.900   2.583  10.956 -1.0246  1.4293  0.2673
  185SAPI   C1121165   4.885   2.422  11.200 -0.4140 -0.4654  0.2279
  185SAPI    H121166   4.993   2.395  11.206 -0.1334  1.0924  2.9605
  185SAPI     P21167   4.876   2.202  11.039 -0.2027  0.2150 -0.4200
  185SAPI   O1321168   4.763   2.126  10.976  0.2396 -0.1721  0.9771
  185SAPI   O1421169   4.948   2.124  11.141  0.1952 -0.2388  0.1623
  185SAPI   O1221170   4.814   2.342  11.106 -0.0772 -0.4844 -0.6741
  185SAPI   O1121171   4.972   2.249  10.927  0.1064 -0.1400  0.0136
  185SAPI    C121172   4.944   2.323  10.811 -0.0909 -0.1763 -0.6910
  185SAPI    HA21173   4.859   2.392  10.829  1.4508  1.8501 -0.9744
  185SAPI    HB21174   5.026   2.395  10.789  0.3298  0.3398  2.3630
  185SAPI    C221175   4.914   2.230  10.689 -0.6338 -0.5267  0.7769
  185SAPI    HS21176   4.825   2.166  10.706 -0.0055 -1.9407 -1.0960
  185SAPI   O2121177   5.036   2.167  10.651 -0.3757 -0.0717 -0.0907
  185SAPI   C2121178   5.033   2.037  10.642  0.9279 -0.1138 -0.0287
  185SAPI   O2221179   4.933   1.967  10.638  0.1071 -0.0239 -0.3393
  185SAPI   C2221180   5.174   1.974  10.637  0.3666  0.6414  0.5122
  185SAPI   H2R21181   5.250   2.036  10.689  1.7094 -0.6730  0.1551
  185SAPI   H2S21182   5.161   1.891  10.709  1.8194 -0.7061 -0.7410
  185SAPI    C321183   4.868   2.308  10.570  0.3029  0.6158  0.4414
  185SAPI    HX21184   4.954   2.372  10.542  1.4544 -1.2669 -0.4956
  185SAPI    HY21185   4.784   2.367  10.612  0.5515  1.3990 -0.1549
  185SAPI   O3121186   4.829   2.226  10.457  0.1062 -0.4151 -0.6223
  185SAPI   C3121187   4.827   2.291  10.341 -0.9727  0.3449  0.3550
  185SAPI   O3221188   4.844   2.410  10.327  0.9195  0.0204  0.3344
  185SAPI   C3221189   4.770   2.204  10.234  0.4952 -0.2822 -0.0856
  185SAPI   H2X21190   4.662   2.192  10.257  0.4611 -0.3823 -0.3074
  185SAPI   H2Y21191   4.821   2.106  10.229  0.7860 -0.0457 -1.9977
  185SAPI   C2321192   5.203   1.925  10.489  0.2680  0.1374 -0.1974
  185SAPI   H3R21193   5.117   1.871  10.444  0.2553  1.0783 -1.3325
  185SAPI   H3S21194   5.293   1.860  10.502  0.0438 -0.1493 -0.0738
  185SAPI   C2421195   5.256   2.042  10.396 -0.7320  0.2479  0.7563
  185SAPI   H4R21196   5.326   1.998  10.322  1.4758  0.8650  2.4304
  185SAPI   H4S21197   5.317   2.119  10.448 -0.0749  1.0359 -1.1201
  185SAPI   C2521198   5.140   2.100  10.319  0.2424 -0.2408 -0.4677
  185SAPI   H5R21199   5.040   2.067  10.352  0.5176 -0.3583  0.2447
  185SAPI   C2621200   5.154   2.186  10.213 -0.2231  0.7204 -0.1013
  185SAPI   H6R21201   5.061   2.219  10.165 -0.6879  1.7267  1.4433
  185SAPI   C2721202   5.289   2.224  10.152  0.5506 -0.3855 -0.6214
  185SAPI   H7R21203   5.322   2.139  10.088  1.9490 -0.8987  0.7557
  185SAPI   H7S21204   5.370   2.246  10.225 -1.7432  2.4180  1.1504
  185SAPI   C2821205   5.286   2.346  10.055 -0.2046  0.5965 -0.5131
  185SAPI   H8R21206   5.338   2.431  10.101  0.6295  0.6721 -1.5694
  185SAPI   C2921207   5.249   2.357   9.924  0.6555 -0.0468  0.4860
  185SAPI   H9R21208   5.243   2.456   9.876 -2.1784 -0.3030  0.2301
  185SAPI  C21021209   5.198   2.249   9.828  0.6973  0.0522  0.2239
  185SAPI  H10R21210   5.209   2.147   9.871 -1.8982 -0.3724 -0.0183
  185SAPI  H10S21211   5.247   2.239   9.729 -0.4220  0.2882 -0.3635
  185SAPI  C21121212   5.051   2.274   9.794 -0.2938 -0.1488  0.6035
  185SAPI  H11R21213   4.992   2.299   9.883  1.2502 -0.6236  1.7992
  185SAPI  C21221214   4.987   2.282   9.673  0.2917  0.2829 -0.2847
  185SAPI  H12R21215   4.877   2.282   9.675  0.2517  1.8894 -1.4453
  185SAPI  C21321216   5.055   2.265   9.538  0.4151 -0.5173  0.3184
  185SAPI  H13R21217   5.166   2.268   9.538  0.4088 -0.0414  1.4704
  185SAPI  H13S21218   5.018   2.345   9.470  2.4127  0.0202 -0.1592
  185SAPI  C21421219   5.015   2.136   9.477  0.5238  0.8309  0.4325
  185SAPI  H14R21220   4.988   2.057   9.549 -1.5372  1.2926  0.1842
  185SAPI  C21521221   5.012   2.112   9.348  0.5368 -0.2415 -0.5980
  185SAPI  H15R21222   4.984   2.012   9.313 -1.2957  0.1587 -0.3161
  185SAPI  C21621223   5.031   2.218   9.240  0.1818 -0.3552  0.2353
  185SAPI  H16R21224   5.075   2.181   9.145 -1.4970 -1.2703 -0.2183
  185SAPI  H16S21225   5.097   2.303   9.264 -1.6845  2.1019 -2.9064
  185SAPI  C21721226   4.888   2.280   9.209  0.0035  0.0535 -0.5314
  185SAPI  H17R21227   4.841   2.319   9.302  0.7714  0.4974 -0.3256
  185SAPI  H17S21228   4.821   2.195   9.183  0.0708  0.2120 -1.2407
  185SAPI  C21821229   4.893   2.395   9.103  0.1096  0.6165  0.0722
  185SAPI  H18R21230   4.960   2.474   9.142 -0.7647  0.3601  2.1353
  185SAPI  H18S21231   4.791   2.438   9.109 -1.3420 -2.9226  1.8710
  185SAPI  C21921232   4.919   2.346   8.959 -0.3425 -0.1740 -0.4362
  185SAPI  H19R21233   4.840   2.279   8.919 -1.0012  1.6868 -2.2865
  185SAPI  H19S21234   5.011   2.284   8.960  0.0917  0.4621  2.0221
  185SAPI  C22021235   4.931   2.461   8.859 -0.2247  0.0912  0.2036
  185SAPI  H20R21236   4.998   2.537   8.904 -0.1070 -0.4257  0.8902
  185SAPI  H20S21237   4.837   2.520   8.852  1.8384  3.7895  2.0283
  185SAPI  H20T21238   4.964   2.429   8.758 -0.5501 -2.9791  1.0461
  185SAPI   C3321239   4.781   2.276  10.098 -1.0333 -0.4576  0.1916
  185SAPI   H3X21240   4.774   2.205  10.013 -0.7699  1.1048 -1.1630
  185SAPI   H3Y21241   4.886   2.313  10.094 -1.4596  0.5882 -1.8487
  185SAPI   C3421242   4.668   2.378  10.066 -0.1741  0.4325 -0.7701
  185SAPI   H4X21243   4.677   2.461  10.139  1.7545  0.5685 -1.1349
  185SAPI   H4Y21244   4.571   2.326  10.082  1.1905 -2.2121 -0.7524
  185SAPI   C3521245   4.676   2.427   9.917 -0.6513 -0.1514 -0.2295
  185SAPI   H5X21246   4.735   2.344   9.872  1.5832  0.2510  1.8740
  185SAPI   H5Y21247   4.741   2.516   9.905 -3.6232  2.5010  2.6986
  185SAPI   C3621248   4.536   2.447   9.852 -0.1182  0.4246  0.4358
  185SAPI   H6X21249   4.474   2.529   9.894 -2.6953 -1.1408 -0.1752
  185SAPI   H6Y21250   4.482   2.351   9.865 -0.4409  0.8503  2.3926
  185SAPI   C3721251   4.545   2.491   9.700  0.3275 -0.8902 -0.7450
  185SAPI   H7X21252   4.642   2.454   9.659  1.1315  1.2720 -0.8655
  185SAPI   H7Y21253   4.552   2.602   9.693  1.7675 -0.7857  1.7723
  185SAPI   C3821254   4.435   2.446   9.605  0.2775 -0.0754 -0.1692
  185SAPI   H8X21255   4.344   2.506   9.629  0.7004  0.7812 -0.6792
  185SAPI   H8Y21256   4.411   2.341   9.632 -0.6737 -0.0498 -0.8664
  185SAPI   C3921257   4.461   2.457   9.459 -0.2919 -0.1019  0.1370
  185SAPI   H9X21258   4.536   2.379   9.434  0.0615  1.2875 -3.3849
  185SAPI   H9Y21259   4.501   2.555   9.427  1.8321 -0.3758  1.8529
  185SAPI  C31021260   4.343   2.420   9.368 -0.0961  0.4445  0.3292
  185SAPI  H10X21261   4.315   2.313   9.382  0.9787  0.2137  0.8251
  185SAPI  H10Y21262   4.391   2.425   9.268  2.8323 -0.8652  1.5937
  185SAPI  C31121263   4.217   2.508   9.386 -0.3145  0.0621 -0.1064
  185SAPI  H11X21264   4.265   2.607   9.401 -1.3712  0.2112  2.6149
  185SAPI  H11Y21265   4.156   2.487   9.476 -2.9952 -2.9777 -2.5123
  185SAPI  C31221266   4.135   2.510   9.252 -0.2217  0.0936 -0.2137
  185SAPI  H12X21267   4.069   2.421   9.251 -1.1583  0.6354  4.3491
  185SAPI  H12Y21268   4.204   2.513   9.165 -0.6241  2.3593 -0.4818
  185SAPI  C31321269   4.052   2.641   9.240  0.0170 -0.7261  0.2886
  185SAPI  H13X21270   4.126   2.723   9.237  0.7899 -1.3702  1.1742
  185SAPI  H13Y21271   3.991   2.653   9.332  1.2117 -0.5472  1.0633
  185SAPI  C31421272   3.965   2.652   9.109 -0.1457  0.4502  0.1268
  185SAPI  H14X21273   3.881   2.581   9.126 -0.4234  0.5720 -0.7169
  185SAPI  H14Y21274   4.027   2.604   9.030  1.7785  3.5514 -0.3173
  185SAPI  C31521275   3.927   2.798   9.084 -0.9522  0.4632 -0.7918
  185SAPI  H15X21276   4.011   2.868   9.061  0.9349 -0.8121  1.9261
  185SAPI  H15Y21277   3.882   2.839   9.176  1.0767 -1.0027  0.9028
  185SAPI  C31621278   3.820   2.800   8.978  0.0043  0.4815  0.2568
  185SAPI  H16X21279   3.742   2.731   9.018  0.2164  0.3798  0.4940
  185SAPI  H16Y21280   3.869   2.759   8.887 -0.4401  0.8783 -0.1613
  185SAPI  C31721281   3.765   2.943   8.957 -0.5141  0.0636  0.0559
  185SAPI  H17X21282   3.848   3.015   8.939  0.3538 -1.0732 -0.5014
  185SAPI  H17Y21283   3.703   2.980   9.041  1.2826 -0.1629  1.5022
  185SAPI  C31821284   3.676   2.958   8.840 -0.0741 -0.2012  0.0225
  185SAPI  H18X21285   3.743   2.946   8.752  0.3930 -2.1502  0.6154
  185SAPI  H18Y21286   3.633   3.061   8.834  0.6025 -0.0003 -1.6849
  185SAPI  H18Z21287   3.587   2.892   8.832  0.2257 -0.4439 -1.4170
  186SAPI   C1221288   5.708   0.601  10.676  0.3596 -0.8150  0.6741
  186SAPI    H221289   5.751   0.556  10.583  0.5412  2.3206 -0.8040
  186SAPI    O221290   5.808   0.689  10.722 -0.1437 -0.5689 -0.7648
  186SAPI   HO221291   5.868   0.625  10.761  1.6419  1.0677 -0.7365
  186SAPI   C1321292   5.575   0.675  10.641 -0.2538 -0.6549  0.0536
  186SAPI    H321293   5.496   0.607  10.601 -2.9267  1.3552  1.7874
  186SAPI    O321294   5.591   0.771  10.540 -0.3427 -0.3712  0.6701
  186SAPI   HO321295   5.645   0.837  10.585 -0.2915 -0.1453  0.2736
  186SAPI   C1421296   5.517   0.734  10.775 -0.8628  0.7353  0.2271
  186SAPI    H421297   5.589   0.809  10.814 -0.4796  1.1771 -1.2739
  186SAPI    O421298   5.396   0.798  10.742  0.6735  0.0172 -0.4248
  186SAPI   HO421299   5.417   0.841  10.659 -0.7756 -0.4750 -1.0665
  186SAPI   C1521300   5.498   0.625  10.877  0.5050  0.1061  0.0556
  186SAPI    H521301   5.418   0.557  10.840 -1.0497  2.7393 -1.5942
  186SAPI    O521302   5.462   0.685  11.006  0.2341 -0.5145  0.2324
  186SAPI   HO521303   5.422   0.608  11.046  1.3009 -0.7852  0.8013
  186SAPI   C1621304   5.622   0.536  10.895  0.4299 -0.1736 -0.3255
  186SAPI    H621305   5.697   0.603  10.943 -1.2429  1.3952  0.1408
  186SAPI    O621306   5.595   0.438  10.986 -0.2761  0.1569  0.1617
  186SAPI   HO621307   5.653   0.362  10.976  2.2976  2.3061 -2.0506
  186SAPI   C1121308   5.683   0.484  10.764 -0.1036 -1.0167  0.6418
  186SAPI    H121309   5.619   0.413  10.709 -1.4203  0.1146  0.6986
  186SAPI     P21310   5.844   0.269  10.819  0.2893 -0.0355 -0.1117
  186SAPI   O1321311   5.739   0.209  10.907 -0.1611  0.6864  0.4485
  186SAPI   O1421312   5.979   0.252  10.864 -0.2800  0.0198  0.3419
  186SAPI   O1221313   5.812   0.429  10.782 -0.5632 -0.5789 -0.6039
  186SAPI   O1121314   5.831   0.210  10.669 -0.6358 -0.1252  0.0027
  186SAPI    C121315   5.942   0.167  10.595  0.4656 -0.1939 -1.0854
  186SAPI    HA21316   6.003   0.093  10.652 -0.3481 -0.5106 -0.6137
  186SAPI    HB21317   5.906   0.104  10.511 -3.4127  0.9210 -0.3277
  186SAPI    C221318   6.041   0.277  10.544  0.8390 -0.4246  0.1914
  186SAPI    HS21319   6.075   0.338  10.631  0.3609 -0.2226  0.2373
  186SAPI   O2121320   5.960   0.366  10.455  0.5107  0.0343 -0.1088
  186SAPI   C2121321   6.011   0.480  10.422 -0.2475  1.3701  0.0833
  186SAPI   O2221322   6.109   0.534  10.464  0.4617  0.7040 -0.5510
  186SAPI   C2221323   5.935   0.544  10.308  0.3416 -0.2349  0.3835
  186SAPI   H2R21324   5.948   0.495  10.209 -0.8488 -0.3410  0.2791
  186SAPI   H2S21325   5.826   0.532  10.327 -0.0003  1.6210 -0.3733
  186SAPI    C321326   6.166   0.223  10.470 -0.3821  0.0519 -0.6742
  186SAPI    HX21327   6.240   0.192  10.547 -0.7172  0.5506 -0.1528
  186SAPI    HY21328   6.215   0.299  10.406  2.2425 -1.7944 -0.9439
  186SAPI   O3121329   6.144   0.109  10.387  0.4560  0.0128 -0.1663
  186SAPI   C3121330   6.086   0.134  10.274 -0.4026 -0.1612  0.1174
  186SAPI   O3221331   6.050   0.243  10.240  0.4734  0.4805  0.1541
  186SAPI   C3221332   6.088   0.009  10.188 -0.2138  0.5532 -0.2579
  186SAPI   H2X21333   5.981  -0.023  10.196 -0.5129  0.7603 -2.9979
  186SAPI   H2Y21334   6.148  -0.068  10.240  0.1144 -0.3120 -1.8793
  186SAPI   C2321335   5.961   0.696  10.291 -0.1695 -0.4968 -0.5230
  186SAPI   H3R21336   6.069   0.724  10.296 -0.3073 -0.2285  0.9736
  186SAPI   H3S21337   5.918   0.753  10.376 -1.4739 -3.7471  1.0550
  186SAPI   C2421338   5.904   0.759  10.169  0.2283 -0.2884 -0.0610
  186SAPI   H4R21339   5.950   0.708  10.082  2.0918  2.1059 -0.5527
  186SAPI   H4S21340   5.931   0.865  10.148  1.4779 -0.3838  0.9508
  186SAPI   C2521341   5.758   0.756  10.171  0.5417 -0.3370  0.2680
  186SAPI   H5R21342   5.707   0.800  10.259 -1.2040 -0.4978 -0.6503
  186SAPI   C2621343   5.684   0.714  10.073  0.1369  0.2596  1.2397
  186SAPI   H6R21344   5.574   0.702  10.077  0.1386  0.6375  2.8830
  186SAPI   C2721345   5.746   0.665   9.945  0.0020  0.1279 -0.0288
  186SAPI   H7R21346   5.668   0.609   9.889  1.1185 -0.2732 -1.1894
  186SAPI   H7S21347   5.833   0.601   9.969  1.2517  1.7113 -0.2362
  186SAPI   C2821348   5.792   0.776   9.849 -0.8648 -1.0233 -0.1465
  186SAPI   H8R21349   5.859   0.848   9.899 -0.7534  0.0109 -1.7639
  186SAPI   C2921350   5.775   0.793   9.721 -0.2907 -0.6534 -0.0188
  186SAPI   H9R21351   5.816   0.882   9.670  2.6664 -0.7154  2.1371
  186SAPI  C21021352   5.694   0.699   9.629  0.1610 -0.1327  0.4338
  186SAPI  H10R21353   5.660   0.614   9.692 -1.4837  1.4236  1.7042
  186SAPI  H10S21354   5.766   0.649   9.561 -1.2216  0.8610 -1.8070
  186SAPI  C21121355   5.580   0.769   9.563  0.5296 -0.8873 -0.7689
  186SAPI  H11R21356   5.489   0.783   9.623 -0.8644  0.2957 -3.0519
  186SAPI  C21221357   5.580   0.805   9.436 -0.7714 -0.8864  1.2752
  186SAPI  H12R21358   5.484   0.839   9.394  1.9096  3.7104 -1.4416
  186SAPI  C21321359   5.691   0.779   9.332 -0.2002 -0.4840 -1.1411
  186SAPI  H13R21360   5.785   0.740   9.376 -1.2886 -2.4381 -0.4841
  186SAPI  H13S21361   5.719   0.872   9.280 -0.6327  0.6358  0.6000
  186SAPI  C21421362   5.634   0.677   9.231  0.0477  0.2777 -1.2083
  186SAPI  H14R21363   5.540   0.627   9.257  0.7105 -0.0140  0.7386
  186SAPI  C21521364   5.697   0.654   9.113  0.6114 -0.6118 -0.6118
  186SAPI  H15R21365   5.653   0.584   9.041  1.0215  1.2999 -2.7779
  186SAPI  C21621366   5.825   0.729   9.071  0.5531 -0.2732 -0.0814
  186SAPI  H16R21367   5.924   0.680   9.085  1.2890  1.3002  0.3097
  186SAPI  H16S21368   5.839   0.834   9.104  0.8830  0.0208 -1.1128
  186SAPI  C21721369   5.823   0.734   8.919  0.6396  0.8176  1.0624
  186SAPI  H17R21370   5.727   0.778   8.882  0.6678  0.5230  0.6504
  186SAPI  H17S21371   5.838   0.631   8.881  2.5265  2.3237 -2.4601
  186SAPI  C21821372   5.931   0.817   8.859  0.5595 -0.0594  0.0385
  186SAPI  H18R21373   6.021   0.756   8.837 -1.0600 -2.0794 -1.1085
  186SAPI  H18S21374   5.959   0.895   8.933  0.2703  0.5842 -0.5161
  186SAPI  C21921375   5.893   0.899   8.732 -0.9294 -1.0231 -0.1936
  186SAPI  H19R21376   5.980   0.956   8.691 -0.1199 -1.5704  0.7350
  186SAPI  H19S21377   5.832   0.981   8.775  1.7731  1.8335 -1.5737
  186SAPI  C22021378   5.814   0.829   8.619 -0.3423 -0.2588 -0.1327
  186SAPI  H20R21379   5.873   0.749   8.568  0.2938  0.7034 -0.9390
  186SAPI  H20S21380   5.795   0.904   8.539  2.6951  1.2157  0.4368
  186SAPI  H20T21381   5.723   0.778   8.657  0.1337 -0.3111  0.9588
  186SAPI   C3321382   6.130   0.033  10.044  0.7669  0.3020 -0.6334
  186SAPI   H3X21383   6.239   0.015  10.030  0.4794 -0.7726 -1.6055
  186SAPI   H3Y21384   6.108   0.132   9.999  0.3787  0.4836 -0.0454
  186SAPI   C3421385   6.070  -0.071   9.939 -0.0480  0.2582  0.3380
  186SAPI   H4X21386   5.959  -0.069   9.948 -0.1044 -0.2427 -0.2022
  186SAPI   H4Y21387   6.101  -0.172   9.972  2.1601  0.5636 -0.6779
  186SAPI   C3521388   6.113  -0.032   9.797 -0.1962 -0.0660 -0.4130
  186SAPI   H5X21389   6.210  -0.078   9.769 -0.1548 -0.1071 -0.2053
  186SAPI   H5Y21390   6.120   0.078   9.782 -0.4184  0.1927  1.2083
  186SAPI   C3621391   6.009  -0.069   9.693 -0.1325 -0.6379 -0.5774
  186SAPI   H6X21392   5.906  -0.046   9.727 -0.2751 -0.4476 -1.1343
  186SAPI   H6Y21393   6.003  -0.179   9.678  0.7625 -0.7857  0.0844
  186SAPI   C3721394   6.030   0.002   9.554 -0.2391  0.1034 -0.3339
  186SAPI   H7X21395   6.053   0.108   9.576 -2.1108  0.6655 -1.0055
  186SAPI   H7Y21396   5.930   0.010   9.506  0.6466  1.3627 -2.0192
  186SAPI   C3821397   6.113  -0.068   9.450  0.0977  0.5491 -0.2890
  186SAPI   H8X21398   6.072  -0.170   9.438 -0.4160  0.6534  0.6137
  186SAPI   H8Y21399   6.215  -0.084   9.491  0.1899 -1.1210 -1.1392
  186SAPI   C3921400   6.115   0.000   9.310  0.0899  0.3362 -0.1982
  186SAPI   H9X21401   6.172   0.096   9.316  1.5365 -0.4035 -1.6779
  186SAPI   H9Y21402   6.018   0.013   9.259  0.6384  1.9913 -0.8814
  186SAPI  C31021403   6.192  -0.076   9.205  0.8157 -0.1734 -0.1711
  186SAPI  H10X21404   6.142  -0.173   9.183 -0.2734  0.1638  0.7583
  186SAPI  H10Y21405   6.294  -0.101   9.241  0.2848  0.4693  1.8840
  186SAPI  C31121406   6.203   0.001   9.071  0.3249 -0.3352 -0.2244
  186SAPI  H11X21407   6.260   0.095   9.089 -0.1817  0.0927 -0.8308
  186SAPI  H11Y21408   6.104   0.028   9.030  0.2933  0.8608  0.6249
  186SAPI  C31221409   6.269  -0.085   8.971 -0.4048  0.3462  0.5983
  186SAPI  H12X21410   6.211  -0.179   8.960 -0.8014  0.4992  1.3705
  186SAPI  H12Y21411   6.369  -0.127   8.996 -0.5531 -0.0264  0.5828
  186SAPI  C31321412   6.293  -0.019   8.832  0.4830 -0.1379 -0.4398
  186SAPI  H13X21413   6.333   0.085   8.839 -0.6868  0.1316  2.8849
  186SAPI  H13Y21414   6.196  -0.008   8.778  0.0264  0.3921  0.4890
  186SAPI  C31421415   6.388  -0.108   8.747 -0.0791 -0.6288  0.5929
  186SAPI  H14X21416   6.356  -0.214   8.758 -0.4900 -0.4454  1.1469
  186SAPI  H14Y21417   6.489  -0.102   8.794 -1.4091  1.6351  3.2186
  186SAPI  C31521418   6.394  -0.079   8.597  0.0045  0.8526 -0.5261
  186SAPI  H15X21419   6.298  -0.088   8.542 -0.3217 -0.7450  0.2741
  186SAPI  H15Y21420   6.475  -0.135   8.546 -0.3005 -0.4187  0.3776
  186SAPI  C31621421   6.440   0.072   8.586 -0.0089 -0.2049 -0.2155
  186SAPI  H16X21422   6.548   0.061   8.610 -0.3376 -1.0203  0.9308
  186SAPI  H16Y21423   6.390   0.143   8.655  0.0513 -0.2714 -0.1030
  186SAPI  C31721424   6.419   0.132   8.448  0.6746  0.5264 -1.0530
  186SAPI  H17X21425   6.310   0.147   8.432  0.6379  0.5662 -0.7724
  186SAPI  H17Y21426   6.437   0.060   8.365  1.0499 -0.8044  0.1557
  186SAPI  C31821427   6.495   0.262   8.429  0.2350  0.0029  0.0251
  186SAPI  H18X21428   6.487   0.326   8.519 -0.5471  1.2706 -0.9141
  186SAPI  H18Y21429   6.454   0.315   8.340  1.1922 -0.1760 -0.5172
  186SAPI  H18Z21430   6.600   0.230   8.414  0.0803  0.2176 -1.5936
  187SAPI   C1221431   3.134   1.417   6.094  0.4835  1.0650  0.1509
  187SAPI    H221432   3.070   1.407   6.185 -0.8921  1.6327 -0.7437
  187SAPI    O221433   3.238   1.321   6.103  0.0579  0.0864  0.8508
  187SAPI   HO221434   3.203   1.243   6.146  0.0624 -2.7963 -4.0525
  187SAPI   C1321435   3.037   1.398   5.982 -0.7520 -0.7327 -0.3163
  187SAPI    H321436   2.968   1.485   5.987  0.4582  0.3116 -1.4281
  187SAPI    O321437   2.958   1.280   6.002 -0.5676 -0.8825  0.1850
  187SAPI   HO321438   2.946   1.266   6.096 -1.0539 -1.1496  0.0857
  187SAPI   C1421439   3.100   1.407   5.845 -0.4430  0.3554  0.5598
  187SAPI    H421440   3.166   1.318   5.839 -0.7482  0.1584  0.0690
  187SAPI    O421441   3.008   1.386   5.739 -0.0871 -0.1669 -0.2342
  187SAPI   HO421442   3.054   1.362   5.658  1.7828  1.1433  0.4025
  187SAPI   C1521443   3.178   1.545   5.830 -0.4823  0.4020 -0.7260
  187SAPI    H521444   3.108   1.630   5.817 -0.3014  0.9193  1.5460
  187SAPI    O521445   3.251   1.533   5.709 -0.4722  0.4177  0.3759
  187SAPI   HO521446   3.226   1.603   5.647 -3.6855 -1.0327 -0.0615
  187SAPI   C1621447   3.268   1.573   5.945 -0.3421 -1.2221 -0.2791
  187SAPI    H621448   3.346   1.494   5.946  0.4167 -0.6272 -4.6835
  187SAPI    O621449   3.330   1.700   5.933 -0.2167  0.2303 -0.0797
  187SAPI   HO621450   3.336   1.744   6.018  1.4743  2.3013 -1.1904
  187SAPI   C1121451   3.194   1.558   6.080 -0.4723 -0.8190 -0.2700
  187SAPI    H121452   3.109   1.628   6.072 -1.4547 -1.6570  2.2419
  187SAPI     P21453   3.223   1.626   6.340  0.0029 -0.6220  0.0992
  187SAPI   O1321454   3.077   1.608   6.330 -0.1367  0.3130  0.1185
  187SAPI   O1421455   3.278   1.752   6.393 -0.1047 -0.1844 -0.0882
  187SAPI   O1221456   3.283   1.598   6.190 -0.3519 -0.5821  0.0837
  187SAPI   O1121457   3.286   1.506   6.415  0.6082  0.0569  0.6230
  187SAPI    C121458   3.199   1.428   6.504  0.9512  0.2398  0.6017
  187SAPI    HA21459   3.119   1.369   6.455  0.7529  0.1615  1.0115
  187SAPI    HB21460   3.271   1.355   6.547  0.5808 -0.3325  0.2415
  187SAPI    C221461   3.132   1.507   6.622  0.2801  0.4339 -0.0185
  187SAPI    HS21462   3.056   1.568   6.567 -0.7472 -0.3033  0.5797
  187SAPI   O2121463   3.236   1.586   6.686  0.3146 -0.4361  0.8430
  187SAPI   C2121464   3.203   1.704   6.737 -0.7982  0.1218  0.0123
  187SAPI   O2221465   3.091   1.753   6.728 -0.5060 -0.3089 -0.1440
  187SAPI   C2221466   3.322   1.760   6.811  0.8592 -0.5028  0.3737
  187SAPI   H2R21467   3.396   1.682   6.836  0.4083 -0.8371  0.6604
  187SAPI   H2S21468   3.385   1.827   6.748 -0.3215 -1.4068 -1.8241
  187SAPI    C321469   3.058   1.421   6.738 -1.0163 -0.7036  0.1958
  187SAPI    HX21470   3.129   1.359   6.797  0.6896  2.0505  1.1033
  187SAPI    HY21471   2.992   1.346   6.689 -1.3255  0.7646 -1.6878
  187SAPI   O3121472   2.971   1.497   6.819 -0.1068  0.0773 -0.1117
  187SAPI   C3121473   2.867   1.547   6.771 -0.0033 -0.0413 -0.6411
  187SAPI   O3221474   2.817   1.518   6.660 -0.1485 -0.2486  0.0728
  187SAPI   C3221475   2.804   1.647   6.872 -0.6075 -0.4166 -0.3441
  187SAPI   H2X21476   2.737   1.712   6.813  1.1211  3.0381  1.3529
  187SAPI   H2Y21477   2.888   1.705   6.916  0.5997 -1.1136 -1.6897
  187SAPI   C2321478   3.272   1.830   6.936  0.1591 -0.0539  0.1490
  187SAPI   H3R21479   3.184   1.896   6.919  1.7764  2.1917  0.2345
  187SAPI   H3S21480   3.338   1.915   6.966 -0.9965  1.7281 -2.1120
  187SAPI   C2421481   3.258   1.746   7.062  0.2485 -0.3075 -0.9174
  187SAPI   H4R21482   3.232   1.821   7.139  1.8381 -2.0278  1.3518
  187SAPI   H4S21483   3.358   1.704   7.083 -0.2992 -1.3066 -0.2565
  187SAPI   C2521484   3.147   1.643   7.062 -0.6069  0.6418 -0.2593
  187SAPI   H5R21485   3.165   1.565   6.986 -1.5412 -0.0413  0.1907
  187SAPI   C2621486   3.038   1.629   7.143 -0.5722 -0.3401  0.2692
  187SAPI   H6R21487   2.989   1.532   7.133  0.5034 -0.9093  0.4109
  187SAPI   C2721488   3.006   1.717   7.255 -0.2385 -0.1143 -0.4989
  187SAPI   H7R21489   2.909   1.681   7.297 -0.8469 -0.1950 -1.9442
  187SAPI   H7S21490   2.985   1.820   7.217 -0.5957 -0.2645 -0.7132
  187SAPI   C2821491   3.105   1.717   7.369  0.2068 -0.1115  0.5993
  187SAPI   H8R21492   3.207   1.748   7.340 -0.5637  2.6951  0.7641
  187SAPI   C2921493   3.085   1.696   7.502  0.0869  0.5922  0.6140
  187SAPI   H9R21494   3.169   1.712   7.572  1.3073 -1.5527 -0.2903
  187SAPI  C21021495   2.946   1.660   7.561 -0.2303 -0.0147 -0.1523
  187SAPI  H10R21496   2.951   1.563   7.616  0.2254  0.9646  1.5595
  187SAPI  H10S21497   2.863   1.660   7.487 -0.3827 -1.3055  0.0069
  187SAPI  C21121498   2.910   1.768   7.654 -0.4361  0.2662 -0.6714
  187SAPI  H11R21499   2.832   1.840   7.625 -0.4296  1.5489  2.2188
  187SAPI  C21221500   2.949   1.770   7.782  0.0741  0.7838  0.3477
  187SAPI  H12R21501   2.901   1.840   7.851 -1.6808 -1.2225  1.1951
  187SAPI  C21321502   3.040   1.665   7.843  0.4793 -0.0209  0.1963
  187SAPI  H13R21503   3.126   1.634   7.779  0.4943  0.2397  0.0881
  187SAPI  H13S21504   2.978   1.575   7.864  0.4209  0.0601  0.3695
  187SAPI  C21421505   3.091   1.708   7.977  0.0312 -0.4734  0.0927
  187SAPI  H14R21506   3.151   1.800   7.985 -1.9617  0.7403  1.5115
  187SAPI  C21521507   3.056   1.652   8.096 -0.2359 -0.0348  0.5130
  187SAPI  H15R21508   3.113   1.688   8.184 -0.3233  1.4180 -0.0161
  187SAPI  C21621509   2.966   1.533   8.116 -0.2827 -0.3106  0.2652
  187SAPI  H16R21510   3.003   1.439   8.071 -1.6149 -0.6408 -0.1462
  187SAPI  H16S21511   2.866   1.557   8.073  0.5083  0.0756 -1.4073
  187SAPI  C21721512   2.957   1.507   8.271  0.6276  0.5080 -0.9733
  187SAPI  H17R21513   2.907   1.590   8.324  2.1005  0.4798  0.5133
  187SAPI  H17S21514   3.057   1.498   8.319 -0.2467  0.3969  0.8747
  187SAPI  C21821515   2.891   1.363   8.283 -0.0734 -1.0167 -0.4491
  187SAPI  H18R21516   2.976   1.291   8.276  1.6232  0.8878  0.1672
  187SAPI  H18S21517   2.811   1.344   8.208 -1.0385  0.6757  0.1397
  187SAPI  C21921518   2.820   1.360   8.415 -0.3208  0.4106  0.5392
  187SAPI  H19R21519   2.744   1.441   8.416 -0.0259  0.6966 -0.2074
  187SAPI  H19S21520   2.894   1.392   8.491 -0.4863 -0.9850  1.3031
  187SAPI  C22021521   2.763   1.220   8.449 -0.1179  0.3372  0.2372
  187SAPI  H20R21522   2.691   1.224   8.534  0.9251 -2.6369  1.3380
  187SAPI  H20S21523   2.849   1.156   8.479  0.6629  1.9531  1.4996
  187SAPI  H20T21524   2.713   1.171   8.362  0.7359 -2.1106  1.0802
  187SAPI   C3321525   2.722   1.576   6.987  0.3857 -0.2467 -0.4128
  187SAPI   H3X21526   2.783   1.505   7.047 -0.6577  0.2891  1.3178
  187SAPI   H3Y21527   2.645   1.514   6.936 -1.9571  0.8213  1.7446
  187SAPI   C3421528   2.668   1.685   7.073 -0.6514 -0.4160 -0.6336
  187SAPI   H4X21529   2.606   1.752   7.010  2.1855  1.6877 -1.2568
  187SAPI   H4Y21530   2.755   1.743   7.112 -1.0142  0.0052 -0.4426
  187SAPI   C3521531   2.589   1.641   7.198 -0.4672  0.3820 -0.5580
  187SAPI   H5X21532   2.642   1.550   7.234 -1.9633  0.3611  1.6778
  187SAPI   H5Y21533   2.482   1.624   7.174 -0.7163  1.2430 -0.0405
  187SAPI   C3621534   2.589   1.744   7.311 -0.3423  0.0196  0.2400
  187SAPI   H6X21535   2.525   1.831   7.283 -2.3604 -1.2625  0.7387
  187SAPI   H6Y21536   2.696   1.771   7.325 -1.1598  3.5072  0.2132
  187SAPI   C3721537   2.541   1.694   7.442 -0.4130  1.0260 -0.6330
  187SAPI   H7X21538   2.621   1.622   7.470 -0.2941  0.0724 -3.2481
  187SAPI   H7Y21539   2.452   1.630   7.422  0.4557 -1.0617  1.9469
  187SAPI   C3821540   2.523   1.797   7.548  0.4381 -0.3248 -0.5810
  187SAPI   H8X21541   2.433   1.859   7.528  1.8204  0.8316 -3.3159
  187SAPI   H8Y21542   2.606   1.870   7.550 -1.2949  1.6836  0.4687
  187SAPI   C3921543   2.513   1.739   7.693  0.6293  0.0634 -0.8904
  187SAPI   H9X21544   2.584   1.658   7.720 -0.0229 -0.6388 -1.2909
  187SAPI   H9Y21545   2.412   1.698   7.710  0.8073 -0.5309 -1.2557
  187SAPI  C31021546   2.545   1.858   7.780 -0.6487 -0.5956  0.6566
  187SAPI  H10X21547   2.501   1.948   7.732 -1.0566 -0.1835  1.7835
  187SAPI  H10Y21548   2.655   1.876   7.779 -0.5976 -0.8275 -2.4821
  187SAPI  C31121549   2.479   1.849   7.923  0.0344 -0.4260  0.0394
  187SAPI  H11X21550   2.377   1.804   7.925 -1.1449  2.2392  1.2036
  187SAPI  H11Y21551   2.468   1.947   7.974  1.1412 -0.4021  0.2560
  187SAPI  C31221552   2.557   1.751   8.005  0.5584 -0.0781 -0.2867
  187SAPI  H12X21553   2.659   1.795   8.007  1.2596 -1.7397  1.7023
  187SAPI  H12Y21554   2.565   1.648   7.965  1.7635 -0.4771  0.9545
  187SAPI  C31321555   2.509   1.749   8.152 -0.8904 -0.1404  0.1318
  187SAPI  H13X21556   2.412   1.697   8.162 -0.2101 -1.2958  0.9549
  187SAPI  H13Y21557   2.496   1.851   8.194  0.0149 -0.7440  1.9686
  187SAPI  C31421558   2.619   1.688   8.243  0.5665 -0.2100 -0.0047
  187SAPI  H14X21559   2.715   1.732   8.209  0.8326  0.4488  1.5702
  187SAPI  H14Y21560   2.627   1.583   8.209 -0.6769 -0.7841  1.4288
  187SAPI  C31521561   2.600   1.690   8.396  0.4401 -0.3402 -0.1453
  187SAPI  H15X21562   2.601   1.797   8.426  1.7796 -0.8858  1.8698
  187SAPI  H15Y21563   2.686   1.633   8.438  0.3427 -0.8001 -0.5729
  187SAPI  C31621564   2.466   1.631   8.446 -0.0311  0.4998  0.2211
  187SAPI  H16X21565   2.458   1.534   8.394 -0.7956  0.9892 -0.5913
  187SAPI  H16Y21566   2.380   1.694   8.413 -0.0074  0.6551  0.4507
  187SAPI  C31721567   2.469   1.605   8.597 -0.3657 -0.5320  0.1761
  187SAPI  H17X21568   2.572   1.585   8.632 -0.3993 -0.3013  0.4011
  187SAPI  H17Y21569   2.425   1.504   8.610 -1.7292 -0.1538 -1.2901
  187SAPI  C31821570   2.402   1.712   8.678 -0.2500  0.5180  0.4939
  187SAPI  H18X21571   2.295   1.737   8.664 -0.2423  0.1063 -0.3519
  187SAPI  H18Y21572   2.446   1.813   8.659 -0.1895  0.5276  0.6764
  187SAPI  H18Z21573   2.414   1.683   8.785 -3.7032 -0.2053  0.7417
  188SAPI   C1221574   4.185   4.589   6.186  0.0893 -0.1732 -0.2216
  188SAPI    H221575   4.207   4.695   6.210  0.0802 -0.5180  1.3611
  188SAPI    O221576   4.116   4.603   6.060 -0.4430  0.2399 -0.2678
  188SAPI   HO221577   4.033   4.635   6.094 -0.2196 -0.7091  1.2308
  188SAPI   C1321578   4.316   4.508   6.165 -0.0289  0.1934  0.3676
  188SAPI    H321579   4.375   4.510   6.259 -0.5445  0.3016  0.6910
  188SAPI    O321580   4.408   4.562   6.074 -0.0079  0.3498  0.0246
  188SAPI   HO321581   4.357   4.594   5.999 -0.2956 -0.2429 -0.0412
  188SAPI   C1421582   4.285   4.360   6.127 -0.5871  0.1163  0.0361
  188SAPI    H421583   4.234   4.349   6.029  1.1185  2.6501 -1.1979
  188SAPI    O421584   4.399   4.274   6.113  0.2354 -0.7840 -0.7179
  188SAPI   HO421585   4.430   4.270   6.022 -2.7280 -0.9804 -1.7732
  188SAPI   C1521586   4.182   4.300   6.228  0.0637  0.3676 -0.1019
  188SAPI    H521587   4.234   4.300   6.326 -0.8618  0.3789  0.3947
  188SAPI    O521588   4.144   4.166   6.189 -0.5348 -0.4008  0.3060
  188SAPI   HO521589   4.224   4.114   6.200 -0.7402 -1.1131 -1.5764
  188SAPI   C1621590   4.058   4.393   6.249 -0.3957  0.4296  0.5590
  188SAPI    H621591   4.005   4.390   6.151  1.2280 -2.4378 -0.3182
  188SAPI    O621592   3.972   4.330   6.347  0.0736 -0.3067 -0.1565
  188SAPI   HO621593   3.975   4.234   6.344  1.3758 -0.3589  1.8413
  188SAPI   C1121594   4.090   4.533   6.295  0.3088 -1.2529 -0.1799
  188SAPI    H121595   4.157   4.535   6.383 -0.2043 -0.4563  0.1935
  188SAPI     P21596   3.977   4.731   6.433 -0.0256  0.0010  0.4036
  188SAPI   O1321597   3.848   4.800   6.449  0.1042  0.0242  0.6822
  188SAPI   O1421598   4.087   4.825   6.404 -0.0709 -0.4277  0.2232
  188SAPI   O1221599   3.969   4.618   6.318 -0.0126  0.6075 -0.2052
  188SAPI   O1121600   4.005   4.657   6.566  0.6337  0.3931  0.3046
  188SAPI    C121601   3.897   4.594   6.639  0.5676  0.3418  0.0922
  188SAPI    HA21602   3.830   4.669   6.687 -1.6491 -1.2789 -0.3742
  188SAPI    HB21603   3.833   4.542   6.565 -2.1828  3.0351  0.4671
  188SAPI    C221604   3.943   4.497   6.757 -0.5087 -0.6397  0.3786
  188SAPI    HS21605   3.864   4.459   6.825 -0.1191  0.1708  1.2963
  188SAPI   O2121606   4.045   4.564   6.827  0.1192 -0.3069 -0.0777
  188SAPI   C2121607   4.011   4.673   6.892  0.2561 -0.0213  0.0624
  188SAPI   O2221608   3.896   4.700   6.916 -0.2849 -0.1809 -0.1930
  188SAPI   C2221609   4.139   4.745   6.922  0.6043 -0.4181  0.4959
  188SAPI   H2R21610   4.167   4.737   7.029 -0.5851 -1.0815  0.7677
  188SAPI   H2S21611   4.227   4.705   6.869  1.6674  1.5316  0.7243
  188SAPI    C321612   4.003   4.372   6.693  0.1927  0.5318 -0.3905
  188SAPI    HX21613   4.067   4.384   6.603  0.2850 -0.4106 -0.4511
  188SAPI    HY21614   3.916   4.325   6.644  0.5497 -1.1140  0.5087
  188SAPI   O3121615   4.043   4.277   6.788  0.2637  0.5994 -0.0239
  188SAPI   C3121616   4.175   4.261   6.802  0.0432 -0.2674  0.5403
  188SAPI   O3221617   4.256   4.313   6.726  0.2029 -0.1400 -0.0895
  188SAPI   C3221618   4.197   4.176   6.931  0.5045  0.3434 -0.2481
  188SAPI   H2X21619   4.294   4.123   6.922  0.1888 -0.3085  0.1206
  188SAPI   H2Y21620   4.113   4.103   6.931  0.6159  0.2086 -0.7761
  188SAPI   C2321621   4.128   4.905   6.898 -0.4206  0.3829 -0.6054
  188SAPI   H3R21622   4.039   4.929   6.837 -1.7258  1.2915  1.5863
  188SAPI   H3S21623   4.222   4.938   6.849 -1.3885  0.6606 -2.3241
  188SAPI   C2421624   4.116   4.975   7.034  0.0480  0.2686  0.1289
  188SAPI   H4R21625   4.119   5.084   7.016  2.0652  0.1658 -0.2362
  188SAPI   H4S21626   4.204   4.956   7.098 -0.2479 -1.4246  0.0559
  188SAPI   C2521627   3.991   4.951   7.113 -0.0501  0.0425  0.3188
  188SAPI   H5R21628   3.902   4.964   7.050  0.9648 -1.5598 -1.4593
  188SAPI   C2621629   3.977   4.900   7.238  0.1961 -0.4058 -0.3283
  188SAPI   H6R21630   3.876   4.902   7.280  0.0718  0.6833 -0.6508
  188SAPI   C2721631   4.095   4.870   7.329  0.1901  0.0723  0.2843
  188SAPI   H7R21632   4.185   4.841   7.270 -1.6873 -0.0609 -2.6214
  188SAPI   H7S21633   4.067   4.779   7.386  1.0170 -2.1277 -2.6957
  188SAPI   C2821634   4.143   4.979   7.424 -0.2007  0.0603 -0.1948
  188SAPI   H8R21635   4.239   5.024   7.393  0.6908  1.9464  4.7718
  188SAPI   C2921636   4.087   5.020   7.542 -0.6841  0.1144  0.0005
  188SAPI   H9R21637   4.152   5.084   7.605 -0.3151  0.5313 -0.8043
  188SAPI  C21021638   3.960   4.978   7.610  0.7895 -0.0020  0.0578
  188SAPI  H10R21639   3.879   4.958   7.536  1.7375 -0.3780 -0.8819
  188SAPI  H10S21640   3.910   5.060   7.665  1.2029  1.0133 -1.0653
  188SAPI  C21121641   3.978   4.854   7.687  0.1568 -0.5755  0.6179
  188SAPI  H11R21642   3.926   4.765   7.649  2.0320 -0.3260 -2.7281
  188SAPI  C21221643   4.034   4.840   7.811  0.3956 -0.1693  0.1202
  188SAPI  H12R21644   4.032   4.746   7.869 -0.3661 -1.1200 -1.4030
  188SAPI  C21321645   4.086   4.959   7.890  0.5694  0.4829 -0.3896
  188SAPI  H13R21646   4.003   4.996   7.954  1.0682  0.8356  0.0649
  188SAPI  H13S21647   4.114   5.045   7.826 -1.8812 -0.8188 -3.3266
  188SAPI  C21421648   4.200   4.936   7.981 -0.0166  0.3734 -0.2539
  188SAPI  H14R21649   4.295   4.981   7.948  0.3627 -1.4109 -1.7090
  188SAPI  C21521650   4.216   4.856   8.083 -0.8224 -0.1378  0.0131
  188SAPI  H15R21651   4.310   4.870   8.140 -0.9787  0.5696  0.0975
  188SAPI  C21621652   4.104   4.770   8.138 -0.3006  0.4888  0.1477
  188SAPI  H16R21653   4.117   4.663   8.112  2.2800  0.8056  0.0384
  188SAPI  H16S21654   4.003   4.809   8.110 -0.0884  0.5504 -0.5638
  188SAPI  C21721655   4.094   4.774   8.291 -0.0454 -0.2493 -0.4157
  188SAPI  H17R21656   4.180   4.715   8.330 -0.8751  0.0093  1.9125
  188SAPI  H17S21657   3.997   4.727   8.319  0.9668 -1.9375  0.3631
  188SAPI  C21821658   4.100   4.906   8.368 -0.3926  0.2485 -0.3641
  188SAPI  H18R21659   4.022   4.972   8.324  0.2883  1.8939  0.8327
  188SAPI  H18S21660   4.200   4.953   8.366  1.1772 -2.8605  0.9569
  188SAPI  C21921661   4.081   4.896   8.518 -0.6757 -0.1473 -0.2276
  188SAPI  H19R21662   4.141   4.813   8.561 -0.8399 -1.7444 -2.9201
  188SAPI  H19S21663   3.971   4.888   8.533 -1.3150  2.4429 -3.0117
  188SAPI  C22021664   4.120   5.022   8.589 -0.0190 -0.1190 -0.7792
  188SAPI  H20R21665   4.101   5.021   8.698 -0.6487  1.7545 -0.8506
  188SAPI  H20S21666   4.060   5.107   8.551  0.0321  0.1856 -0.1734
  188SAPI  H20T21667   4.228   5.033   8.568  0.7232 -1.7268  1.8731
  188SAPI   C3321668   4.189   4.270   7.053  0.6252  0.4605 -0.4798
  188SAPI   H3X21669   4.097   4.330   7.033 -0.7294 -1.1613  0.6998
  188SAPI   H3Y21670   4.278   4.336   7.058  1.0088  0.1608 -2.9525
  188SAPI   C3421671   4.185   4.186   7.182  0.9207 -0.8922  0.2818
  188SAPI   H4X21672   4.280   4.129   7.190 -0.1712 -2.5936  1.1946
  188SAPI   H4Y21673   4.089   4.130   7.181 -0.8988  2.0631 -0.4672
  188SAPI   C3521674   4.180   4.270   7.308 -0.5148  0.2066  0.0771
  188SAPI   H5X21675   4.108   4.352   7.284 -0.4293  0.2809  0.0763
  188SAPI   H5Y21676   4.274   4.326   7.326  0.4124 -1.7952  1.5083
  188SAPI   C3621677   4.146   4.189   7.431 -0.3400 -0.6771 -0.0988
  188SAPI   H6X21678   4.190   4.088   7.416 -0.5554 -1.0616  1.7487
  188SAPI   H6Y21679   4.037   4.169   7.429  0.1330 -3.4458 -1.1900
  188SAPI   C3721680   4.184   4.246   7.573 -0.1595 -0.0510 -0.1560
  188SAPI   H7X21681   4.142   4.348   7.573 -0.1352 -0.0409  1.0806
  188SAPI   H7Y21682   4.294   4.265   7.572 -0.2615  0.5178 -1.5198
  188SAPI   C3821683   4.138   4.170   7.700  0.0959 -0.4968  0.2186
  188SAPI   H8X21684   4.204   4.081   7.689  1.8408  0.6865  0.8283
  188SAPI   H8Y21685   4.039   4.121   7.692  0.7172 -1.7806  0.2746
  188SAPI   C3921686   4.147   4.252   7.833  0.2696  1.3515  0.8469
  188SAPI   H9X21687   4.116   4.357   7.817  0.3129  0.9006 -2.4802
  188SAPI   H9Y21688   4.250   4.243   7.874 -0.1354  2.3792  2.1259
  188SAPI  C31021689   4.056   4.190   7.946  0.4925 -0.4938 -0.7958
  188SAPI  H10X21690   4.082   4.082   7.946  0.5828 -0.4897  1.3914
  188SAPI  H10Y21691   3.948   4.190   7.919  0.3799  1.6645 -0.5069
  188SAPI  C31121692   4.080   4.251   8.088  0.3332  0.1675 -0.9488
  188SAPI  H11X21693   4.018   4.343   8.083 -0.6062 -0.5682 -4.1288
  188SAPI  H11Y21694   4.188   4.279   8.087 -0.0061  1.5257 -1.0026
  188SAPI  C31221695   4.052   4.166   8.211  0.3771  0.3685 -0.5639
  188SAPI  H12X21696   4.060   4.061   8.175  0.3952  0.1794 -0.0107
  188SAPI  H12Y21697   3.948   4.170   8.251 -0.2254  0.6049 -2.1404
  188SAPI  C31321698   4.152   4.192   8.328  0.4234 -0.0682  0.3349
  188SAPI  H13X21699   4.252   4.189   8.280 -1.0569 -1.3555 -2.7825
  188SAPI  H13Y21700   4.144   4.102   8.392 -0.9836 -0.1503  0.0578
  188SAPI  C31421701   4.146   4.322   8.401 -0.0157 -0.0123 -0.2697
  188SAPI  H14X21702   4.066   4.311   8.476  0.9630  0.3393  0.8319
  188SAPI  H14Y21703   4.125   4.408   8.334 -1.2537  0.4711  0.7361
  188SAPI  C31521704   4.270   4.365   8.489  0.6296  0.0302 -0.4526
  188SAPI  H15X21705   4.360   4.356   8.425 -0.5950  0.7681 -2.3032
  188SAPI  H15Y21706   4.277   4.292   8.573  0.2837 -0.7875 -1.1396
  188SAPI  C31621707   4.250   4.506   8.541  0.2815 -0.4797  0.1505
  188SAPI  H16X21708   4.147   4.527   8.575 -0.9023 -0.4713 -3.2302
  188SAPI  H16Y21709   4.259   4.578   8.457 -0.0677 -1.8696 -1.1067
  188SAPI  C31721710   4.351   4.542   8.651  0.2701 -0.2670 -0.0504
  188SAPI  H17X21711   4.450   4.523   8.605 -0.7846 -2.6086 -1.4433
  188SAPI  H17Y21712   4.342   4.482   8.745 -1.8886  2.0217  1.2822
  188SAPI  C31821713   4.346   4.687   8.695 -0.7467  0.5038 -0.3211
  188SAPI  H18X21714   4.243   4.719   8.720 -0.4810  0.6476  0.6037
  188SAPI  H18Y21715   4.397   4.758   8.626 -0.6293 -0.4379 -1.2141
  188SAPI  H18Z21716   4.395   4.681   8.795  2.6351 -1.3468 -1.9787
  189POPC     N21717   3.833   5.942  10.986 -0.1441 -0.0457  0.0946
  189POPC   C1221718   3.971   5.877  10.962 -0.2348 -0.2278  0.8910
  189POPC  H12A21719   3.966   5.775  10.996  1.5602 -0.6873 -0.1178
  189POPC  H12B21720   4.048   5.925  11.020 -0.8443 -0.2679  1.7311
  189POPC   C1321721   3.721   5.859  10.936 -0.5988  0.8120  0.0034
  189POPC  H13A21722   3.706   5.781  11.009  1.6798  2.1274  1.9364
  189POPC  H13B21723   3.627   5.912  10.935 -1.1013  0.0930  2.9548
  189POPC  H13C21724   3.750   5.811  10.844  3.1409  2.1659  0.4155
  189POPC   C1421725   3.814   5.958  11.137 -0.1741 -0.0043  0.9114
  189POPC  H14A21726   3.725   6.015  11.160 -0.9339 -0.7587 -0.1261
  189POPC  H14B21727   3.808   5.868  11.196 -1.2258  0.5195  1.6104
  189POPC  H14C21728   3.894   6.018  11.178  0.3950  0.8306 -1.3331
  189POPC   C1521729   3.829   6.082  10.929  0.1304 -0.0784  0.6276
  189POPC  H15A21730   3.741   6.135  10.960 -0.0823  0.3512 -0.6957
  189POPC  H15B21731   3.854   6.089  10.824  2.8868  4.0226  1.4200
  189POPC  H15C21732   3.914   6.132  10.973 -1.8337  1.5235  2.7552
  189POPC   C1121733   4.029   5.882  10.811 -0.1541  0.3955  0.3364
  189POPC  H11A21734   3.945   5.840  10.751  0.1217  0.2332  0.0629
  189POPC  H11B21735   4.121   5.822  10.795 -0.6164 -0.1324 -0.3575
  189POPC     P21736   4.190   6.081  10.842  0.0999  0.3193  0.2770
  189POPC   O1321737   4.210   6.044  10.983 -0.0665 -0.9130  0.2024
  189POPC   O1421738   4.172   6.220  10.810  0.1029 -0.2490 -0.2724
  189POPC   O1221739   4.059   6.014  10.777  0.1963  0.0603  0.1386
  189POPC   O1121740   4.306   6.014  10.749 -0.3448  0.2201  0.2618
  189POPC    C121741   4.344   6.066  10.622  0.2262 -0.3574  0.2997
  189POPC    HA21742   4.439   6.015  10.597 -0.2966 -1.3679  0.3358
  189POPC    HB21743   4.364   6.175  10.628  2.1465 -0.7083  0.3447
  189POPC    C221744   4.238   6.028  10.508  0.4019 -0.0542  0.3716
  189POPC    HS21745   4.148   6.086  10.537  0.1722 -0.0012 -0.4528
  189POPC   O2121746   4.207   5.888  10.521  0.0789  0.0888  0.3770
  189POPC   C2121747   4.086   5.851  10.485 -0.4325  0.3375  0.0912
  189POPC   O2221748   3.994   5.915  10.439 -0.3024 -0.3688 -0.4544
  189POPC   C2221749   4.075   5.696  10.499 -0.3826 -0.4741  0.3395
  189POPC   H2R21750   4.004   5.680  10.583  0.2321 -0.4653  0.8575
  189POPC   H2S21751   4.171   5.645  10.523 -0.7805 -1.2818  0.2479
  189POPC    C321752   4.282   6.064  10.367  0.0166 -0.3301  0.1903
  189POPC    HX21753   4.344   5.982  10.325  0.2584 -0.1873  0.2749
  189POPC    HY21754   4.343   6.156  10.368  0.8026 -0.8447  1.1833
  189POPC   O3121755   4.171   6.091  10.271 -0.1835  0.0340 -0.5416
  189POPC   C3121756   4.105   6.207  10.289 -0.5374 -0.9481  0.2732
  189POPC   O3221757   4.148   6.293  10.360 -0.0605  0.0153  0.0191
  189POPC   C3221758   3.967   6.211  10.214  0.3722 -0.3115  0.4651
  189POPC   H2X21759   3.914   6.307  10.229 -3.9746 -2.8982  2.6291
  189POPC   H2Y21760   3.911   6.127  10.261  0.3351 -0.3071  0.4280
  189POPC   C2321761   4.005   5.631  10.369 -0.4238 -0.1003  0.2077
  189POPC   H3R21762   3.905   5.677  10.353 -1.3966 -2.1746  0.1322
  189POPC   H3S21763   3.991   5.523  10.389  1.9185 -0.2645  1.1017
  189POPC   C2421764   4.089   5.627  10.244  0.3728 -0.4312 -0.4995
  189POPC   H4R21765   4.188   5.578  10.258  0.7508 -0.3409 -2.7656
  189POPC   H4S21766   4.110   5.733  10.217  0.1875 -0.7767 -2.0078
  189POPC   C2521767   4.034   5.556  10.124 -0.0081  0.3252 -0.6791
  189POPC   H5R21768   3.931   5.588  10.096  0.0465 -2.2260 -4.1907
  189POPC   H5S21769   4.015   5.450  10.151 -0.8446  0.1415 -1.9245
  189POPC   C2621770   4.128   5.563  10.000  0.1122 -0.9185  0.5072
  189POPC   H6R21771   4.225   5.519  10.032 -0.4683 -1.5915  1.3737
  189POPC   H6S21772   4.154   5.663   9.961 -0.8592 -0.4776  0.9856
  189POPC   C2721773   4.080   5.476   9.884 -0.0964 -0.7777  0.0577
  189POPC   H7R21774   4.002   5.535   9.830 -0.5795  1.3814  2.9748
  189POPC   H7S21775   4.026   5.387   9.923 -1.2729 -0.0226  0.1885
  189POPC   C2821776   4.192   5.433   9.789  0.0585  0.0151  0.3840
  189POPC   H8R21777   4.148   5.394   9.694  1.0245  1.9969 -0.8886
  189POPC   H8S21778   4.233   5.341   9.836  1.3165  1.4751  2.1970
  189POPC   C2921779   4.308   5.525   9.758  0.5525 -0.4104 -0.5345
  189POPC   H9121780   4.367   5.551   9.847  0.6997  0.1823 -0.7995
  189POPC  C21021781   4.339   5.587   9.637  0.2221  0.0743  0.0017
  189POPC  H10121782   4.430   5.649   9.635  1.3989 -1.6163 -0.9862
  189POPC  C21121783   4.288   5.573   9.497  0.1340 -0.5250 -0.0105
  189POPC  H11R21784   4.190   5.520   9.493 -0.2862  0.2442 -0.1050
  189POPC  H11S21785   4.357   5.521   9.427  0.6877 -1.6580  1.3488
  189POPC  C21221786   4.267   5.712   9.441 -0.1815 -0.8662 -0.4835
  189POPC  H12R21787   4.357   5.777   9.438 -2.0355  1.9684  2.3644
  189POPC  H12S21788   4.196   5.769   9.504 -1.6597 -0.6109 -2.3761
  189POPC  C21321789   4.215   5.716   9.292  0.0657 -0.6479 -0.2595
  189POPC  H13R21790   4.115   5.669   9.296 -0.2823  0.3025  2.7372
  189POPC  H13S21791   4.285   5.658   9.228 -0.2276 -2.0651  0.6900
  189POPC  C21421792   4.203   5.867   9.248 -0.0276  0.0092 -0.0723
  189POPC  H14R21793   4.303   5.914   9.249 -0.7540  1.5918 -0.0529
  189POPC  H14S21794   4.143   5.919   9.326 -0.6724  0.3373 -0.7749
  189POPC  C21521795   4.143   5.891   9.103  0.1245 -0.3980 -0.5589
  189POPC  H15R21796   4.034   5.873   9.099  0.3476 -1.5954 -1.7980
  189POPC  H15S21797   4.192   5.813   9.041  0.6213 -1.5141  1.1962
  189POPC  C21621798   4.173   6.031   9.045 -0.2800  0.4007  0.1573
  189POPC  H16R21799   4.283   6.035   9.058 -0.2613  3.3198 -0.4818
  189POPC  H16S21800   4.133   6.117   9.104 -0.0977  0.3548  0.3478
  189POPC  C21721801   4.124   6.057   8.896 -0.1043 -0.7829 -0.4857
  189POPC  H17R21802   4.168   6.151   8.858  0.3790 -1.1902 -0.9371
  189POPC  H17S21803   4.014   6.072   8.900  0.0051  0.3276 -1.5156
  189POPC  C21821804   4.161   5.959   8.790  0.6957  0.2733 -0.0666
  189POPC  H18R21805   4.119   5.856   8.797  0.7536  0.2474 -0.0871
  189POPC  H18S21806   4.270   5.947   8.776  0.5159  1.3134 -2.6837
  189POPC  H18T21807   4.131   6.012   8.697 -0.8001  1.6618  1.1689
  189POPC   C3321808   3.989   6.193  10.063  0.4500  0.5348  0.2905
  189POPC   H3X21809   3.895   6.218  10.008  0.5295 -1.4737 -0.8358
  189POPC   H3Y21810   4.020   6.090  10.035 -0.1285  0.8165 -1.4589
  189POPC   C3421811   4.079   6.309  10.015  0.3466 -0.6712 -0.6867
  189POPC   H4X21812   4.183   6.280  10.042  0.4941 -0.2671 -0.8185
  189POPC   H4Y21813   4.066   6.404  10.070  3.6651  0.4808 -1.7850
  189POPC   C3521814   4.072   6.313   9.862  0.6959  0.0416 -0.0436
  189POPC   H5X21815   4.118   6.405   9.821  0.2271 -0.3579 -1.5262
  189POPC   H5Y21816   3.964   6.302   9.836  0.6346 -2.6862  1.2024
  189POPC   C3621817   4.146   6.198   9.787  0.1743  1.0287 -0.0460
  189POPC   H6X21818   4.105   6.096   9.808  0.9708  0.8884  0.8714
  189POPC   H6Y21819   4.252   6.178   9.814  0.5130  1.2316 -1.2048
  189POPC   C3721820   4.138   6.235   9.635  0.7207 -0.7700 -0.3023
  189POPC   H7X21821   4.155   6.343   9.615  1.4109 -0.9544 -0.7224
  189POPC   H7Y21822   4.040   6.190   9.610 -0.0976  1.3099 -0.8910
  189POPC   C3821823   4.243   6.151   9.569 -0.5326  0.0386 -0.2548
  189POPC   H8X21824   4.234   6.042   9.589  0.1054  0.0153 -0.0763
  189POPC   H8Y21825   4.337   6.184   9.619  1.3485 -2.3353 -2.0692
  189POPC   C3921826   4.255   6.171   9.416 -0.0892 -0.3201  0.0938
  189POPC   H9X21827   4.161   6.137   9.367  1.3010 -1.4108 -1.8539
  189POPC   H9Y21828   4.330   6.100   9.376 -0.0682  0.0056 -0.4475
  189POPC  C31021829   4.294   6.305   9.373  0.9544 -0.2994  0.3082
  189POPC  H10X21830   4.399   6.323   9.404  0.4909 -0.6993  2.1523
  189POPC  H10Y21831   4.217   6.378   9.406  0.4204 -0.5740 -0.3448
  189POPC  C31121832   4.296   6.316   9.225  0.1012  0.1991  0.1260
  189POPC  H11X21833   4.191   6.301   9.193 -0.0762 -0.0803  0.8486
  189POPC  H11Y21834   4.355   6.229   9.190 -1.4386 -0.4397 -0.9371
  189POPC  C31221835   4.358   6.448   9.178 -0.0602  0.0068 -0.1714
  189POPC  H12X21836   4.466   6.438   9.205 -0.7460 -0.2721  2.7005
  189POPC  H12Y21837   4.327   6.540   9.231 -1.4545  0.1030 -1.1426
  189POPC  C31321838   4.326   6.478   9.025 -0.5615  0.5418 -0.0418
  189POPC  H13X21839   4.379   6.574   9.010  0.1606  0.1358 -0.1069
  189POPC  H13Y21840   4.216   6.487   9.010 -1.2083  0.1433  3.9402
  189POPC  C31421841   4.379   6.387   8.922  0.0771  0.5492  0.6238
  189POPC  H14X21842   4.328   6.289   8.938 -0.6243  0.6915 -0.6315
  189POPC  H14Y21843   4.488   6.376   8.940  0.4701 -0.0535 -1.8748
  189POPC  C31521844   4.370   6.435   8.780  0.1161  0.5424  0.4785
  189POPC  H15X21845   4.426   6.530   8.768  0.0886  0.6690  1.3130
  189POPC  H15Y21846   4.261   6.457   8.772 -0.5170 -2.0490  1.4895
  189POPC  C31621847   4.413   6.333   8.670  1.0949  0.1043 -0.0875
  189POPC  H16X21848   4.520   6.311   8.692  0.5323 -0.7739  1.8378
  189POPC  H16Y21849   4.411   6.384   8.571 -1.0567  0.5854  0.1776
  189POPC  H16Z21850   4.363   6.234   8.668 -1.2612  1.2261  1.0269
  190POPC     N21851   5.989   1.612  11.263  0.1397 -0.0458  0.5271
  190POPC   C1221852   5.912   1.723  11.190  0.0877 -0.2070  0.4708
  190POPC  H12A21853   5.929   1.815  11.244  2.9139 -0.1602 -0.4682
  190POPC  H12B21854   5.808   1.696  11.203  0.3799 -1.3384  0.4790
  190POPC   C1321855   5.969   1.479  11.205 -0.6514 -0.3962  0.2025
  190POPC  H13A21856   5.873   1.436  11.226 -1.6599  0.7905 -1.8255
  190POPC  H13B21857   5.990   1.484  11.099 -3.0760 -0.5048 -0.3046
  190POPC  H13C21858   6.035   1.404  11.246 -1.4471 -2.5939 -2.3476
  190POPC   C1421859   6.133   1.660  11.252 -0.2491 -0.0722  0.0062
  190POPC  H14A21860   6.156   1.755  11.299 -0.4612  0.1044 -0.2446
  190POPC  H14B21861   6.206   1.596  11.300 -0.6300  1.2051  2.3958
  190POPC  H14C21862   6.160   1.675  11.149  0.0005 -0.1094  0.0656
  190POPC   C1521863   5.957   1.614  11.401  0.9180  0.1657 -0.6938
  190POPC  H15A21864   6.017   1.547  11.461 -0.3323 -1.9198 -1.7459
  190POPC  H15B21865   5.856   1.582  11.421  0.1035  3.0864  0.1159
  190POPC  H15C21866   5.958   1.714  11.443 -1.0661 -0.1400  0.1488
  190POPC   C1121867   5.925   1.732  11.033  0.2368  0.1930  0.6550
  190POPC  H11A21868   5.862   1.817  10.999  0.0986 -0.0753  0.2418
  190POPC  H11B21869   5.881   1.637  10.996  2.0711  0.8966 -3.6279
  190POPC     P21870   6.130   1.877  10.970  0.0987  0.1293 -0.1019
  190POPC   O1321871   6.261   1.887  11.043  0.5320 -0.4745  0.1953
  190POPC   O1421872   6.033   1.988  10.994 -0.0820 -0.7976  0.0835
  190POPC   O1221873   6.060   1.738  10.989  0.2187 -0.0557 -1.3949
  190POPC   O1121874   6.162   1.868  10.821 -0.6023 -0.3708 -0.5346
  190POPC    C121875   6.292   1.839  10.766 -0.1694  0.5218 -0.5665
  190POPC    HA21876   6.314   1.731  10.781 -0.5999  0.5374  0.2332
  190POPC    HB21877   6.364   1.900  10.824 -1.6386  1.4283  0.3397
  190POPC    C221878   6.307   1.865  10.612 -0.1892  0.9809 -0.6765
  190POPC    HS21879   6.403   1.919  10.600  2.0985 -2.2332  1.9561
  190POPC   O2121880   6.183   1.918  10.557 -0.6182 -0.5880 -0.4003
  190POPC   C2121881   6.176   2.059  10.564 -0.0574  0.0995 -0.3165
  190POPC   O2221882   6.271   2.122  10.609  0.3894 -0.1333 -0.3244
  190POPC   C2221883   6.047   2.104  10.504 -0.4826 -0.1933 -0.1831
  190POPC   H2R21884   5.973   2.116  10.585 -1.1347 -0.6420 -0.7112
  190POPC   H2S21885   6.013   2.025  10.434  0.6762 -1.4694  0.6708
  190POPC    C321886   6.343   1.726  10.548 -0.2103  0.1015 -0.3336
  190POPC    HX21887   6.276   1.652  10.596 -0.8226  1.1971  0.5388
  190POPC    HY21888   6.440   1.683  10.581  1.0463  2.9695 -0.1579
  190POPC   O3121889   6.335   1.722  10.408 -0.2872 -0.4820  0.3745
  190POPC   C3121890   6.211   1.692  10.361  0.4302  0.1640  1.1251
  190POPC   O3221891   6.114   1.670  10.435  0.2488  0.2967 -0.1702
  190POPC   C3221892   6.218   1.678  10.212  0.0860  0.2463 -0.1733
  190POPC   H2X21893   6.187   1.574  10.189 -0.2217  0.3865 -0.3888
  190POPC   H2Y21894   6.326   1.680  10.186 -0.1982 -0.5105 -1.4880
  190POPC   C2321895   6.049   2.248  10.445  0.1890 -0.4492 -0.4784
  190POPC   H3R21896   6.072   2.316  10.529  0.2091 -0.5705 -0.3872
  190POPC   H3S21897   5.943   2.275  10.422  0.2079 -0.6212 -0.7696
  190POPC   C2421898   6.130   2.272  10.314 -0.2696 -0.4329  1.1112
  190POPC   H4R21899   6.232   2.239  10.342  0.0710 -2.0969 -1.9524
  190POPC   H4S21900   6.125   2.382  10.294 -0.0727 -0.7991 -1.0074
  190POPC   C2521901   6.085   2.190  10.189 -0.5568  0.5701  0.2555
  190POPC   H5R21902   6.062   2.085  10.219  0.5195 -0.4783 -2.4178
  190POPC   H5S21903   6.169   2.180  10.116  0.2790  1.3245  1.0985
  190POPC   C2621904   5.984   2.262  10.106 -0.5444 -0.6962  0.1186
  190POPC   H6R21905   6.010   2.366  10.075 -0.0207 -0.5301  1.1002
  190POPC   H6S21906   5.887   2.262  10.160  0.8166  0.1342  2.6713
  190POPC   C2721907   5.972   2.188   9.968  0.4304 -0.4867 -0.0861
  190POPC   H7R21908   5.961   2.078   9.980  2.0853 -0.7261 -0.6683
  190POPC   H7S21909   6.063   2.198   9.905  1.1788 -1.1082  0.8776
  190POPC   C2821910   5.843   2.232   9.889  0.5243 -0.4596 -0.0015
  190POPC   H8R21911   5.845   2.340   9.864  0.2152 -0.3479  0.4534
  190POPC   H8S21912   5.756   2.216   9.956  0.6224 -0.1759  0.1960
  190POPC   C2921913   5.828   2.152   9.766  0.3690  0.5302  0.8070
  190POPC   H9121914   5.823   2.049   9.804 -1.4958  0.2089 -0.2430
  190POPC  C21021915   5.826   2.192   9.637  0.0432  0.3470  0.5113
  190POPC  H10121916   5.799   2.117   9.561 -3.7334  1.8669  0.2583
  190POPC  C21121917   5.827   2.334   9.594  0.0129  0.2780 -0.5278
  190POPC  H11R21918   5.927   2.375   9.568  0.4228 -0.9419 -0.8786
  190POPC  H11S21919   5.782   2.395   9.675 -0.2099  1.8132 -1.7659
  190POPC  C21221920   5.736   2.360   9.473  0.3924  0.0924  0.2881
  190POPC  H12R21921   5.741   2.468   9.448 -3.1870  0.1006 -0.5383
  190POPC  H12S21922   5.631   2.349   9.508  0.1744  1.3534  0.0564
  190POPC  C21321923   5.762   2.275   9.354 -0.5352 -0.1978  0.2823
  190POPC  H13R21924   5.685   2.305   9.280 -0.4530  0.0960  0.3154
  190POPC  H13S21925   5.739   2.168   9.376  1.3771 -0.7198 -0.1455
  190POPC  C21421926   5.895   2.306   9.286  0.9355 -0.7882  0.4244
  190POPC  H14R21927   5.919   2.232   9.207  1.5907  0.7469 -0.8433
  190POPC  H14S21928   5.985   2.305   9.350  2.0687 -0.5356 -1.1563
  190POPC  C21521929   5.893   2.448   9.225 -0.2529 -1.0147  0.1645
  190POPC  H15R21930   5.886   2.503   9.321 -1.7954 -0.5445 -0.1982
  190POPC  H15S21931   5.800   2.456   9.164 -1.0818  2.2477  1.7564
  190POPC  C21621932   6.019   2.486   9.155  0.2069 -1.0299 -0.4865
  190POPC  H16R21933   6.005   2.593   9.128 -0.6889 -1.4238 -1.6160
  190POPC  H16S21934   6.028   2.428   9.061 -0.6264  2.2097 -2.6356
  190POPC  C21721935   6.148   2.469   9.233 -0.3922 -0.1232 -0.0625
  190POPC  H17R21936   6.176   2.362   9.234  2.5669  0.5516 -2.7894
  190POPC  H17S21937   6.130   2.505   9.337  3.8930  0.4015  0.5693
  190POPC  C21821938   6.264   2.548   9.172 -0.0065  0.4343 -0.3244
  190POPC  H18R21939   6.363   2.516   9.211 -1.0319 -1.6397  0.6841
  190POPC  H18S21940   6.247   2.655   9.192  1.8372  0.6792  0.0110
  190POPC  H18T21941   6.262   2.536   9.061  0.5849  0.3836 -0.3313
  190POPC   C3321942   6.143   1.776  10.115 -0.6582 -0.2906  0.7866
  190POPC   H3X21943   6.152   1.881  10.149 -0.8163 -0.4353  1.2799
  190POPC   H3Y21944   6.037   1.743  10.113 -0.4364 -0.9353 -0.6990
  190POPC   C3421945   6.209   1.770   9.982 -0.0097 -0.3333  0.1912
  190POPC   H4X21946   6.193   1.669   9.938 -1.2319  0.2472 -0.6979
  190POPC   H4Y21947   6.320   1.777   9.981 -0.1097  1.3341 -0.2278
  190POPC   C3521948   6.154   1.867   9.879  0.5308 -0.2654 -0.5253
  190POPC   H5X21949   6.168   1.973   9.907 -0.5657 -0.3320  0.3359
  190POPC   H5Y21950   6.043   1.859   9.872  0.4004  0.3681  0.6627
  190POPC   C3621951   6.213   1.840   9.738  0.1579  0.4417 -0.9542
  190POPC   H6X21952   6.213   1.730   9.724 -2.6946  0.1342  1.0633
  190POPC   H6Y21953   6.321   1.866   9.739  0.4909 -0.8533  2.1071
  190POPC   C3721954   6.131   1.900   9.623  0.0093 -0.4056  0.5440
  190POPC   H7X21955   6.151   2.009   9.610 -3.1681  0.2522  0.6857
  190POPC   H7Y21956   6.024   1.893   9.653 -0.4386 -0.0881 -0.9293
  190POPC   C3821957   6.149   1.824   9.490 -0.7056 -0.4151 -0.3073
  190POPC   H8X21958   6.138   1.716   9.514  1.0767 -0.4374  0.5213
  190POPC   H8Y21959   6.251   1.835   9.447 -1.3571  0.3216 -1.6855
  190POPC   C3921960   6.035   1.849   9.395 -0.2143 -0.2717  0.3827
  190POPC   H9X21961   6.023   1.960   9.399  1.4610 -0.0837  0.7160
  190POPC   H9Y21962   5.944   1.805   9.441  0.2464  0.3724  1.9409
  190POPC  C31021963   6.059   1.798   9.254 -0.6199  0.5098  0.9142
  190POPC  H10X21964   6.089   1.692   9.254 -0.0261  0.6658 -0.7145
  190POPC  H10Y21965   6.135   1.853   9.195 -1.3081  0.6336  0.1392
  190POPC  C31121966   5.930   1.810   9.174 -0.1189 -0.3177 -0.5856
  190POPC  H11X21967   5.844   1.758   9.222 -1.2340 -0.2232 -2.4287
  190POPC  H11Y21968   5.954   1.768   9.075  0.3904 -1.1739 -0.1054
  190POPC  C31221969   5.892   1.959   9.153  0.7334  0.4682 -0.2925
  190POPC  H12X21970   5.980   2.025   9.137 -0.9818  3.3802  1.7577
  190POPC  H12Y21971   5.849   1.998   9.248  0.1181  1.9961 -1.1775
  190POPC  C31321972   5.796   1.979   9.032 -0.3591  0.8826  0.1422
  190POPC  H13X21973   5.702   1.927   9.056 -0.2831 -0.4939 -2.3257
  190POPC  H13Y21974   5.845   1.918   8.952  2.8396 -0.8077  3.2355
  190POPC  C31421975   5.760   2.123   9.002 -0.1355 -0.3311  0.1409
  190POPC  H14X21976   5.859   2.171   8.997  0.0475 -0.6815  0.4116
  190POPC  H14Y21977   5.713   2.169   9.092  0.8259  0.0202  0.4638
  190POPC  C31521978   5.694   2.145   8.873 -0.1579 -0.2611  0.0207
  190POPC  H15X21979   5.753   2.124   8.782  0.3124  1.0978  0.0094
  190POPC  H15Y21980   5.685   2.255   8.869  0.5800 -0.1228  1.8845
  190POPC  C31621981   5.555   2.082   8.851  0.3588 -0.0670  0.7095
  190POPC  H16X21982   5.496   2.083   8.946 -0.8429  1.5629 -0.0235
  190POPC  H16Y21983   5.562   1.977   8.818 -1.2229  0.2010 -0.5304
  190POPC  H16Z21984   5.489   2.135   8.778  0.3563 -2.1414 -0.8126
  191POPC     N21985   0.073   2.977   6.268  0.4514  0.4780 -0.3502
  191POPC   C1221986   0.193   2.966   6.366  0.4883 -0.3954  0.7726
  191POPC  H12A21987   0.176   2.883   6.434 -1.1368  0.6853  1.7195
  191POPC  H12B21988   0.185   3.058   6.422 -2.4393 -0.0743 -0.0815
  191POPC   C1321989  -0.048   2.987   6.360 -0.8439 -0.2224  0.7885
  191POPC  H13A21990  -0.047   3.078   6.418 -1.2273  0.9444 -1.0169
  191POPC  H13B21991  -0.143   2.986   6.310  0.9638 -1.0128 -2.8155
  191POPC  H13C21992  -0.058   2.902   6.427 -0.0046 -1.8388 -1.0800
  191POPC   C1421993   0.088   3.098   6.186 -0.4620 -0.4883 -0.3782
  191POPC  H14A21994   0.096   3.189   6.244 -2.9642  0.2632 -1.1196
  191POPC  H14B21995   0.172   3.092   6.119 -0.8410  1.6770 -1.1091
  191POPC  H14C21996  -0.001   3.117   6.127 -1.0533 -3.2323 -0.4182
  191POPC   C1521997   0.057   2.863   6.173 -0.2460  1.0555  0.2909
  191POPC  H15A21998   0.148   2.824   6.129 -0.1519 -1.5982  2.7064
  191POPC  H15B21999  -0.011   2.885   6.092 -0.1994 -0.7285 -0.2574
  191POPC  H15C22000   0.015   2.782   6.231  0.9997  0.8249  0.8883
  191POPC   C1122001   0.339   2.957   6.318  0.6463  0.4512  0.4134
  191POPC  H11A22002   0.399   2.933   6.408  1.0790  0.3913  0.1125
  191POPC  H11B22003   0.379   3.052   6.276 -0.9308  0.8432 -0.2311
  191POPC     P22004   0.358   2.697   6.288  0.0380  0.3290 -0.2186
  191POPC   O1322005   0.495   2.644   6.264  0.0357  0.3614  0.3603
  191POPC   O1422006   0.249   2.608   6.236 -0.3272 -0.2047 -0.2268
  191POPC   O1222007   0.344   2.846   6.225 -0.1059  0.7704 -0.3884
  191POPC   O1122008   0.347   2.719   6.441 -0.2392  0.1676 -0.1408
  191POPC    C122009   0.308   2.618   6.536  0.1579 -0.1535 -0.2856
  191POPC    HA22010   0.385   2.611   6.615 -0.1166  1.5699  0.1462
  191POPC    HB22011   0.306   2.517   6.489  3.3847 -0.3881 -0.0156
  191POPC    C222012   0.170   2.647   6.596  0.6975 -1.0551  0.8210
  191POPC    HS22013   0.096   2.655   6.513  2.1928 -0.1821 -0.4554
  191POPC   O2122014   0.179   2.767   6.671  0.0927 -0.1618 -0.2235
  191POPC   C2122015   0.067   2.840   6.682  0.5824 -1.2863  0.1766
  191POPC   O2222016  -0.039   2.820   6.623  0.6081 -1.0395  0.3046
  191POPC   C2222017   0.088   2.964   6.773  0.0640  0.2299  0.3231
  191POPC   H2R22018   0.154   3.038   6.723  2.3702 -2.2565 -0.4761
  191POPC   H2S22019   0.148   2.927   6.859  0.9786  0.9061 -0.0128
  191POPC    C322020   0.128   2.538   6.684  0.2090 -0.7891 -0.6799
  191POPC    HX22021   0.117   2.442   6.629  0.6358 -1.6716  0.7507
  191POPC    HY22022   0.032   2.562   6.733  1.0457 -0.7819  0.9700
  191POPC   O3122023   0.235   2.520   6.777 -0.0404 -0.1637 -0.1309
  191POPC   C3122024   0.227   2.579   6.891  0.3362  0.0102 -0.9341
  191POPC   O3222025   0.144   2.655   6.934 -0.1527  0.0742  0.0068
  191POPC   C3222026   0.361   2.545   6.969 -0.1954  0.4172 -0.4903
  191POPC   H2X22027   0.444   2.577   6.904 -0.6860  0.0958 -1.2785
  191POPC   H2Y22028   0.366   2.436   6.987  4.1323  0.4392 -1.0078
  191POPC   C2322029  -0.035   3.038   6.829  0.3467 -0.0088  0.1546
  191POPC   H3R22030  -0.114   2.965   6.856 -0.5826  2.0384  3.1492
  191POPC   H3S22031  -0.076   3.110   6.755  1.2444  2.6045  2.1216
  191POPC   C2422032  -0.010   3.114   6.961  0.0490  0.3938  0.0393
  191POPC   H4R22033  -0.087   3.193   6.979  0.5254  0.5353  1.5117
  191POPC   H4S22034   0.091   3.159   6.969  0.2471  0.2804 -1.7582
  191POPC   C2522035  -0.031   3.012   7.073  0.0092 -0.2176 -0.9405
  191POPC   H5R22036   0.030   2.920   7.059  1.5074  0.5268  0.4398
  191POPC   H5S22037  -0.136   2.976   7.084 -0.1097  0.0492 -1.1906
  191POPC   C2622038   0.011   3.067   7.210  0.2911  0.3042 -0.3209
  191POPC   H6R22039   0.115   3.105   7.198  0.2073  0.3711 -0.8419
  191POPC   H6S22040   0.010   2.974   7.270 -2.4683  0.8815  0.5783
  191POPC   C2722041  -0.070   3.175   7.275 -0.3324  0.5380  0.3435
  191POPC   H7R22042  -0.174   3.136   7.284 -0.8977  1.8785 -0.2087
  191POPC   H7S22043  -0.079   3.257   7.201  0.4266 -1.3565 -1.8732
  191POPC   C2822044  -0.010   3.242   7.394 -0.2445  0.1192 -0.4441
  191POPC   H8R22045  -0.044   3.348   7.394  0.1001  0.2436  1.1996
  191POPC   H8S22046   0.099   3.244   7.371 -0.2141 -0.9179 -0.4166
  191POPC   C2922047  -0.041   3.176   7.533  0.5371 -0.5566  0.0306
  191POPC   H9122048  -0.087   3.076   7.532  2.3095 -1.4262  2.0637
  191POPC  C21022049  -0.047   3.251   7.645 -0.0429 -0.3497 -0.3755
  191POPC  H10122050  -0.074   3.192   7.734  0.3698  1.0825  0.7077
  191POPC  C21122051  -0.015   3.398   7.668 -0.4055 -0.0258 -0.7180
  191POPC  H11R22052  -0.111   3.450   7.689 -0.4462  0.5215 -2.2521
  191POPC  H11S22053   0.030   3.442   7.577  3.2863 -0.0684  0.9894
  191POPC  C21222054   0.085   3.416   7.780  0.5271  0.7284 -0.9139
  191POPC  H12R22055   0.109   3.524   7.789 -1.3562  0.9302  2.5057
  191POPC  H12S22056   0.180   3.359   7.771 -0.0226 -0.5647  1.1278
  191POPC  C21322057   0.023   3.375   7.923 -0.3912  0.1758 -0.2345
  191POPC  H13R22058   0.016   3.265   7.940 -2.1838  0.2105 -0.6297
  191POPC  H13S22059  -0.079   3.420   7.930 -1.8281 -2.5691 -2.4508
  191POPC  C21422060   0.106   3.439   8.038  0.3576  0.2917 -0.1171
  191POPC  H14R22061   0.109   3.550   8.025 -1.4064  0.4687  0.8210
  191POPC  H14S22062   0.209   3.399   8.049  0.0026 -1.2054 -1.9783
  191POPC  C21522063   0.027   3.421   8.169 -0.1738  0.4921  0.0175
  191POPC  H15R22064  -0.083   3.439   8.165 -0.0251  2.8546  3.7177
  191POPC  H15S22065   0.078   3.499   8.229 -1.1965  0.9330  0.3289
  191POPC  C21622066   0.054   3.280   8.223 -0.2499 -0.0217  0.2912
  191POPC  H16R22067   0.161   3.261   8.201 -0.2698  0.7694 -0.5383
  191POPC  H16S22068  -0.015   3.206   8.177 -2.1078  2.5167 -1.1678
  191POPC  C21722069   0.038   3.276   8.378  0.1392  1.2477  0.3107
  191POPC  H17R22070   0.064   3.172   8.409 -2.6853 -0.9773 -4.1610
  191POPC  H17S22071  -0.071   3.287   8.396 -0.1466 -0.8697  0.0820
  191POPC  C21822072   0.124   3.380   8.457  0.7835 -0.3447  0.3405
  191POPC  H18R22073   0.229   3.372   8.423  1.0948  0.1743  1.1708
  191POPC  H18S22074   0.120   3.346   8.562  0.2469 -0.5439  0.2563
  191POPC  H18T22075   0.080   3.481   8.444 -3.2124 -1.9836  0.4552
  191POPC   C3322076   0.372   2.638   7.095  0.5771  0.2141  0.0708
  191POPC   H3X22077   0.320   2.733   7.070  1.1957  0.5377 -0.0102
  191POPC   H3Y22078   0.481   2.658   7.109  0.6805 -0.4998  0.2685
  191POPC   C3422079   0.335   2.565   7.222 -0.4049  0.0187 -1.0013
  191POPC   H4X22080   0.377   2.464   7.238  0.4471  0.4413 -0.5426
  191POPC   H4Y22081   0.227   2.546   7.202 -0.9734  1.8289  0.2337
  191POPC   C3522082   0.341   2.655   7.350 -0.1243 -0.4052  0.2115
  191POPC   H5X22083   0.287   2.746   7.318  1.5343  0.8141  0.7855
  191POPC   H5Y22084   0.446   2.681   7.376  0.5738 -2.5648 -0.3609
  191POPC   C3622085   0.276   2.591   7.467  0.3748 -0.5639 -0.7352
  191POPC   H6X22086   0.337   2.500   7.486 -0.7373 -0.8659  1.5429
  191POPC   H6Y22087   0.169   2.568   7.450 -0.1290  1.5639 -0.6278
  191POPC   C3722088   0.286   2.653   7.605 -0.3828 -0.5009  0.0184
  191POPC   H7X22089   0.382   2.704   7.625 -0.5147 -0.1003 -0.3719
  191POPC   H7Y22090   0.270   2.563   7.668 -1.4382 -0.7855 -0.6444
  191POPC   C3822091   0.171   2.751   7.636  0.0058  0.2199  1.1880
  191POPC   H8X22092   0.076   2.701   7.608  0.9409 -0.1902 -1.4954
  191POPC   H8Y22093   0.182   2.824   7.552  2.1415 -1.5112 -0.1007
  191POPC   C3922094   0.177   2.824   7.770 -0.8076  0.2155 -0.1168
  191POPC   H9X22095   0.274   2.876   7.781 -1.0477  0.5797  0.2959
  191POPC   H9Y22096   0.172   2.738   7.840  1.4756  0.6846  0.6552
  191POPC  C31022097   0.053   2.914   7.794 -0.2495 -0.1419  0.4987
  191POPC  H10X22098  -0.036   2.890   7.732 -0.7739 -0.3077  1.3113
  191POPC  H10Y22099   0.101   3.009   7.761 -2.1256  0.4679 -0.5339
  191POPC  C31122100   0.025   2.938   7.939 -0.1327 -0.1778  0.2906
  191POPC  H11X22101  -0.045   3.024   7.947  2.9722  2.7063 -1.9562
  191POPC  H11Y22102   0.114   2.966   7.999 -1.0368  1.0889  1.0800
  191POPC  C31222103  -0.034   2.814   8.008  0.1232 -0.5866 -0.0031
  191POPC  H12X22104   0.039   2.732   7.990  1.6573  0.3578  1.7564
  191POPC  H12Y22105  -0.138   2.792   7.976 -0.1722  0.9451 -0.0997
  191POPC  C31322106  -0.052   2.847   8.156  0.6420 -0.3075  0.3855
  191POPC  H13X22107  -0.141   2.913   8.165  0.7311  0.0698 -1.3944
  191POPC  H13Y22108   0.038   2.899   8.195  0.7662 -1.5007  1.7423
  191POPC  C31422109  -0.094   2.734   8.257  0.2978  0.0242 -0.1018
  191POPC  H14X22110  -0.001   2.677   8.279  0.5870  0.2961 -0.6120
  191POPC  H14Y22111  -0.174   2.684   8.199 -1.0475  2.1965 -0.1587
  191POPC  C31522112  -0.153   2.787   8.388 -0.5853 -0.4924 -0.8366
  191POPC  H15X22113  -0.185   2.701   8.451 -0.9062  1.1583  1.3140
  191POPC  H15Y22114  -0.248   2.840   8.367  0.7868  2.6354  0.4541
  191POPC  C31622115  -0.057   2.865   8.470 -0.4102 -0.0630 -0.1402
  191POPC  H16X22116   0.021   2.799   8.514  0.7510  0.2827 -1.6338
  191POPC  H16Y22117  -0.106   2.920   8.553 -0.9239 -0.0067 -0.4803
  191POPC  H16Z22118  -0.009   2.949   8.414 -2.4943  0.7929 -0.6906
  192POPC     N22119   5.477   6.401   6.053 -0.1594  0.7612  0.1245
  192POPC   C1222120   5.522   6.347   6.188 -0.4768  0.4264  0.1840
  192POPC  H12A22121   5.526   6.423   6.265 -1.5299 -0.0523  0.7248
  192POPC  H12B22122   5.623   6.313   6.173  0.2609  2.1848  1.1040
  192POPC   C1322123   5.569   6.511   6.013 -0.9523 -0.0461 -0.1376
  192POPC  H13A22124   5.536   6.557   5.921 -1.2701 -0.2427 -0.1246
  192POPC  H13B22125   5.550   6.600   6.072  1.4006  1.1261 -1.1125
  192POPC  H13C22126   5.671   6.476   6.010 -0.0406  2.5432 -0.3933
  192POPC   C1422127   5.488   6.298   5.942 -0.1915  0.3144 -0.2826
  192POPC  H14A22128   5.464   6.325   5.841  1.1627 -0.4783 -0.8313
  192POPC  H14B22129   5.589   6.261   5.932 -0.4201 -0.1534 -0.8678
  192POPC  H14C22130   5.428   6.211   5.965 -1.5237  0.9272 -1.3588
  192POPC   C1522131   5.336   6.455   6.061 -0.3782  0.1808 -0.5236
  192POPC  H15A22132   5.331   6.524   6.144  0.4080 -1.9929  1.3830
  192POPC  H15B22133   5.265   6.375   6.074  0.1056 -0.2181 -0.2913
  192POPC  H15C22134   5.330   6.510   5.968  0.2562  0.2651 -0.5152
  192POPC   C1122135   5.450   6.227   6.253  0.7130  0.0171  0.8218
  192POPC  H11A22136   5.348   6.262   6.276 -0.5560 -2.6397 -0.4945
  192POPC  H11B22137   5.504   6.218   6.350  1.5514  1.4579  0.5047
  192POPC     P22138   5.564   6.019   6.136  0.1238 -0.3182 -0.1388
  192POPC   O1322139   5.695   6.073   6.181 -0.2600 -0.2166 -0.4909
  192POPC   O1422140   5.554   5.975   5.996  1.0215  0.2506 -0.0981
  192POPC   O1222141   5.443   6.110   6.176  0.1611  0.2562 -0.0711
  192POPC   O1122142   5.545   5.879   6.221  0.2637  0.0131  0.0229
  192POPC    C122143   5.409   5.840   6.255  0.1621  1.0670  0.1895
  192POPC    HA22144   5.393   5.731   6.251  0.2680  1.0591 -0.0382
  192POPC    HB22145   5.328   5.881   6.190  0.8305 -0.6996 -1.8160
  192POPC    C222146   5.376   5.879   6.394 -0.4521  0.2777  0.0588
  192POPC    HS22147   5.398   5.988   6.400  0.8328  0.0334 -0.0464
  192POPC   O2122148   5.464   5.811   6.484  0.4146  0.0275 -0.4640
  192POPC   C2122149   5.532   5.882   6.576  0.5273 -0.4736  0.0295
  192POPC   O2222150   5.530   6.006   6.586  0.5315  0.2668 -0.2438
  192POPC   C2222151   5.592   5.789   6.679 -1.1067 -0.1153  1.0331
  192POPC   H2R22152   5.634   5.710   6.614  2.5621  0.3258  2.7171
  192POPC   H2S22153   5.508   5.752   6.741 -0.5618 -0.7936  1.3652
  192POPC    C322154   5.236   5.837   6.438 -0.1395  0.9426 -0.1350
  192POPC    HX22155   5.229   5.727   6.420  1.0204  0.8882 -0.3204
  192POPC    HY22156   5.158   5.867   6.364  0.1303  2.6683  0.2746
  192POPC   O3122157   5.206   5.869   6.577 -0.2530 -0.3706  0.5397
  192POPC   C3122158   5.160   5.993   6.592  0.2595  0.8405 -0.9449
  192POPC   O3222159   5.133   6.065   6.501 -0.0083 -0.4222 -0.2392
  192POPC   C3222160   5.170   6.039   6.741  0.3331 -0.0716  0.3878
  192POPC   H2X22161   5.094   5.986   6.802  0.8200 -1.8306 -0.4729
  192POPC   H2Y22162   5.146   6.147   6.746  2.3981  0.3350  1.7649
  192POPC   C2322163   5.703   5.850   6.771  0.1860 -0.3819 -0.3402
  192POPC   H3R22164   5.668   5.951   6.800  1.8307  0.1600 -0.1941
  192POPC   H3S22165   5.799   5.868   6.718  0.1809  0.4663 -0.0754
  192POPC   C2422166   5.713   5.765   6.896 -0.2502  0.0913  1.1197
  192POPC   H4R22167   5.729   5.656   6.881  0.8106  0.4446 -0.4631
  192POPC   H4S22168   5.616   5.781   6.948 -1.0949 -1.4040  0.0543
  192POPC   C2522169   5.830   5.816   6.973  0.3294  0.2061 -0.3479
  192POPC   H5R22170   5.797   5.918   7.002 -0.5661 -0.1263 -0.1455
  192POPC   H5S22171   5.922   5.827   6.913 -0.8184  2.5420 -1.7287
  192POPC   C2622172   5.865   5.746   7.110 -0.2717  0.2925  0.2771
  192POPC   H6R22173   5.830   5.641   7.120 -1.5104  0.8249  1.7250
  192POPC   H6S22174   5.814   5.806   7.188 -1.5106  2.8113 -2.3461
  192POPC   C2722175   6.019   5.746   7.141  0.0813  0.4881  0.4836
  192POPC   H7R22176   6.058   5.842   7.178 -1.6790  0.5773  2.1541
  192POPC   H7S22177   6.087   5.700   7.065 -0.9453 -1.8949  0.9385
  192POPC   C2822178   6.035   5.665   7.267  0.6964  1.0939 -0.6047
  192POPC   H8R22179   5.956   5.681   7.344 -0.5953  2.1707 -2.1261
  192POPC   H8S22180   6.134   5.696   7.308  0.3388  1.8516 -0.2995
  192POPC   C2922181   6.050   5.515   7.237  0.8891  0.4511  0.1984
  192POPC   H9122182   5.960   5.465   7.197  1.0643  0.6566 -0.4625
  192POPC  C21022183   6.147   5.432   7.275 -0.6223  0.9038  0.5318
  192POPC  H10122184   6.149   5.329   7.237 -2.9783  0.5041  1.3891
  192POPC  C21122185   6.269   5.457   7.353 -0.5137 -0.3837  0.3632
  192POPC  H11R22186   6.278   5.562   7.388 -0.2370 -0.0497 -0.6942
  192POPC  H11S22187   6.353   5.449   7.280 -1.2295 -3.5036 -0.1845
  192POPC  C21222188   6.282   5.368   7.476  0.5068  0.9433 -0.0715
  192POPC  H12R22189   6.385   5.390   7.513  1.5062 -1.1888 -1.4460
  192POPC  H12S22190   6.282   5.262   7.441  0.3329  0.3363  1.7174
  192POPC  C21322191   6.186   5.383   7.597  0.4055  0.0751 -0.1264
  192POPC  H13R22192   6.200   5.299   7.669  0.9106  0.5569  0.3343
  192POPC  H13S22193   6.079   5.383   7.566 -0.1890 -0.9553  1.8583
  192POPC  C21422194   6.208   5.514   7.664 -0.6033 -0.2820  0.4986
  192POPC  H14R22195   6.213   5.600   7.594 -2.2558 -1.0457 -0.5855
  192POPC  H14S22196   6.312   5.517   7.702 -1.3881  1.3098  2.6048
  192POPC  C21522197   6.116   5.544   7.784 -0.0679  0.4780 -0.0764
  192POPC  H15R22198   6.172   5.578   7.874  0.2098 -1.0799  0.3543
  192POPC  H15S22199   6.070   5.447   7.813 -2.4321  1.9167  1.1286
  192POPC  C21622200   5.997   5.635   7.743  0.0198  0.1242  0.6065
  192POPC  H16R22201   6.023   5.736   7.706  1.5257 -1.0612 -1.6273
  192POPC  H16S22202   5.932   5.654   7.832 -0.2750 -0.4189  0.5072
  192POPC  C21722203   5.921   5.581   7.623  0.4647  0.1655 -0.7602
  192POPC  H17R22204   5.886   5.484   7.664 -0.9163  1.9988  2.5476
  192POPC  H17S22205   5.988   5.569   7.535  0.1704 -2.6695 -0.6557
  192POPC  C21822206   5.791   5.659   7.598  0.0699 -0.5015  0.6022
  192POPC  H18R22207   5.710   5.670   7.673 -1.7370  2.1095 -1.6286
  192POPC  H18S22208   5.735   5.614   7.514 -0.5187 -2.1113  1.8407
  192POPC  H18T22209   5.819   5.760   7.560  1.0879  0.3597  3.5377
  192POPC   C3322210   5.309   6.011   6.799 -0.5162 -0.1198  0.4008
  192POPC   H3X22211   5.379   6.083   6.752  0.7153 -0.4923  1.6643
  192POPC   H3Y22212   5.344   5.908   6.774 -1.2143 -0.0096 -1.1388
  192POPC   C3422213   5.310   6.032   6.954 -0.0324  1.2583 -0.3262
  192POPC   H4X22214   5.268   5.946   7.010 -1.8622  2.1504 -0.3098
  192POPC   H4Y22215   5.239   6.117   6.968 -1.7363  0.1571 -2.1922
  192POPC   C3522216   5.439   6.090   7.015 -0.4245 -0.2245  0.8409
  192POPC   H5X22217   5.456   6.186   6.961 -0.8326 -0.8438 -0.3972
  192POPC   H5Y22218   5.521   6.024   6.980  0.9738  1.1208  1.4779
  192POPC   C3622219   5.428   6.109   7.164  0.3957 -0.3750 -0.4232
  192POPC   H6X22220   5.355   6.187   7.196  0.3932 -0.2301 -0.7736
  192POPC   H6Y22221   5.525   6.155   7.193 -0.5775  1.0450  0.6464
  192POPC   C3722222   5.417   5.970   7.232 -0.4015 -0.6056  0.1747
  192POPC   H7X22223   5.513   5.916   7.213  1.2561  1.3332  2.7374
  192POPC   H7Y22224   5.329   5.915   7.193  0.0698 -0.8717 -0.5304
  192POPC   C3822225   5.398   5.972   7.385 -0.0765 -0.1371 -0.3646
  192POPC   H8X22226   5.338   5.881   7.407  2.1820 -1.5152  0.2832
  192POPC   H8Y22227   5.329   6.055   7.414 -0.6594 -0.8600  0.3708
  192POPC   C3922228   5.525   5.962   7.471  0.0632 -0.1949 -0.1226
  192POPC   H9X22229   5.569   6.063   7.458 -1.3040  0.4556  0.2071
  192POPC   H9Y22230   5.594   5.883   7.435  0.0440 -0.4287  0.3553
  192POPC  C31022231   5.500   5.933   7.616 -0.3607 -0.9685 -0.1871
  192POPC  H10X22232   5.601   5.921   7.659 -0.8414 -1.0625  0.9281
  192POPC  H10Y22233   5.436   5.845   7.638 -0.6551 -0.4869  0.9172
  192POPC  C31122234   5.423   6.040   7.691 -0.1567  0.2586 -0.0737
  192POPC  H11X22235   5.313   6.038   7.674 -0.3816 -1.0033  1.4251
  192POPC  H11Y22236   5.459   6.140   7.659 -0.0183  0.9353  2.0695
  192POPC  C31222237   5.443   6.018   7.840  0.7041  0.2398 -0.7988
  192POPC  H12X22238   5.553   6.011   7.853  0.4372 -1.3844  0.7614
  192POPC  H12Y22239   5.401   5.921   7.873  0.1183  1.4332  2.1744
  192POPC  C31322240   5.394   6.137   7.926 -0.1846 -0.3163 -0.7230
  192POPC  H13X22241   5.284   6.134   7.911 -0.0126 -1.9389 -1.8266
  192POPC  H13Y22242   5.434   6.234   7.891 -0.6443  0.6487  1.3656
  192POPC  C31422243   5.411   6.117   8.076 -0.4716  0.0661 -0.2242
  192POPC  H14X22244   5.367   6.017   8.099 -1.4470  0.2620 -1.2301
  192POPC  H14Y22245   5.354   6.192   8.135  0.7947  0.6583  0.2563
  192POPC  C31522246   5.560   6.131   8.111 -0.3892  0.3404  0.2491
  192POPC  H15X22247   5.616   6.040   8.079 -1.6142 -1.7606  3.7576
  192POPC  H15Y22248   5.579   6.125   8.221  0.6473  1.7980  0.1669
  192POPC  C31622249   5.625   6.267   8.072 -0.0782  0.0900  0.4923
  192POPC  H16X22250   5.699   6.298   8.149 -0.2695  1.9328 -0.0582
  192POPC  H16Y22251   5.549   6.348   8.075 -1.2537 -1.0271  1.7132
  192POPC  H16Z22252   5.667   6.260   7.969  0.2154  0.2838  0.6006
  193SOD    SOD22253   3.921   0.115   4.461 -0.1608  0.5033  0.1690
  194SOD    SOD22254   2.175   5.778   6.014  0.3592 -0.0781  0.4107
  195SOD    SOD22255   6.172   0.661  10.941 -0.1155 -0.1590 -0.0780
  196SOD    SOD22256   0.630   1.480  11.286  0.1493 -0.2773 -0.1434
  197SOD    SOD22257   5.820   1.398  16.019 -0.6653  0.2782 -0.0227
  198SOD    SOD22258   2.733   1.072  11.447 -0.2795  0.2313  0.4022
  199SOD    SOD22259   1.466   2.801   6.055 -0.0199 -0.1992 -0.1202
  200SOD    SOD22260   4.867   2.919  11.420  0.1293 -0.3609  0.2111
  201SOD    SOD22261   4.897   1.668   0.971 -0.0195  0.1258 -0.5078
  202SOD    SOD22262   0.244   0.528  16.649 -0.0412 -0.1753 -0.0923
  203SOD    SOD22263   0.379   2.931   2.550  0.0876  0.1701  0.3375
  204SOD    SOD22264   6.235   4.619   2.371 -0.0970  0.0334  0.1088
  205SOD    SOD22265   3.580   2.336   5.044  0.1819  0.2188  0.2373
  206SOD    SOD22266   4.182   2.278  16.595  0.6614 -0.0347  0.0480
  207SOD    SOD22267   4.079   3.440   6.666  0.4364 -0.0388 -0.8368
  208SOD    SOD22268   4.508   1.329  11.037  0.2183 -0.4562 -0.1321
  209SOD    SOD22269   3.429   6.486   0.985  0.3509 -0.0365 -0.4259
  210SOD    SOD22270   1.174   3.544   4.991  0.0239  0.0855  0.8412
  211SOD    SOD22271   4.593   3.967  15.378  0.0836 -0.2320 -0.7221
  212SOD    SOD22272   5.334   5.191   2.816  0.1836 -0.9173  0.0575
  213SOD    SOD22273   6.625   1.694  16.296  0.9281  0.0218  0.3837
  214SOD    SOD22274   4.474   0.265  14.907  0.1443 -0.4240 -0.1605
  215SOD    SOD22275   5.036   3.451  12.671  0.0039 -0.3719 -0.0544
  216SOD    SOD22276   4.598   0.569  11.944 -0.7026  0.1146  0.0471
  217SOD    SOD22277   5.663   0.483  13.216 -0.2528  0.2178  0.5062
  218SOD    SOD22278   4.770   1.585   6.371  0.0666 -0.0655  0.0007
  219SOD    SOD22279   1.945   5.467  13.806  0.8322  0.1152 -0.0442
  220SOD    SOD22280   4.551   2.393  13.411  0.2053  0.0457 -0.0360
  221SOD    SOD22281   1.662   5.613   5.540  0.3142  0.2923  0.4130
  222SOD    SOD22282   6.246   6.293   2.955  0.5502 -0.2646  0.2788
  223SOD    SOD22283   5.342   0.148  11.259 -0.4289 -0.6379 -0.0545
  224SOD    SOD22284   4.224   0.655  12.631 -0.3382  0.4393  0.1136
  225SOD    SOD22285   1.057   5.459  10.754 -0.3970  0.2547 -0.2871
  226SOD    SOD22286   3.865   4.989   4.288 -0.0601 -0.1529 -0.0846
  227SOD    SOD22287   1.507   5.721   2.311  0.0549  0.2861  0.0161
  228SOD    SOD22288   6.617   5.621  15.506 -0.1288  0.1307 -0.1942
  229SOD    SOD22289   2.984   4.363  12.229 -0.0328 -0.1910 -0.5798
  230SOD    SOD22290   1.097   4.511  11.627  0.1517  0.2206  0.6112
  231SOD    SOD22291   1.170   3.259   0.954 -0.1721 -0.5347 -0.2043
  232SOD    SOD22292   5.501   4.233   4.682 -0.1733 -0.5060  0.1301
  233SOD    SOD22293   3.780   4.125  10.897  0.0968 -0.2479 -0.0906
  234SOD    SOD22294   3.102   2.889   6.110 -0.2125 -0.2994  0.0422
  235SOD    SOD22295   1.185   6.362  15.331 -0.3499 -0.2492  0.5672
  236SOD    SOD22296   0.151   5.026  13.187 -0.1958  0.4493  0.1546
  237SOD    SOD22297   6.644   1.439   1.356 -0.4708 -0.2978  0.3803
  238SOD    SOD22298   1.146   5.463  12.080  0.2430  0.1513  0.2966
  239SOD    SOD22299   1.072   6.658  13.882  0.0715 -0.5354  0.1356
  240SOD    SOD22300   4.295   2.081   0.075 -0.3847 -0.6259 -0.7017
  241SOD    SOD22301   5.178   3.224  14.824 -0.2148  1.0748 -0.0512
  242SOD    SOD22302   0.758   2.659   1.368 -0.7022 -0.5039 -0.4406
  243SOD    SOD22303   4.690   5.317  15.710  0.6089  0.1386  0.5807
  244SOD    SOD22304   3.067   6.184  11.063  0.2266  0.2802  0.2590
  245SOD    SOD22305   4.747   1.302   4.170  0.3670 -0.0978  0.1809
  246SOD    SOD22306   2.767   5.853   1.452  0.2672 -0.3869 -0.4706
  247SOD    SOD22307   2.280   3.976  14.592  0.0304 -0.4909 -0.2399
  248SOD    SOD22308   3.211   2.464  11.938 -0.3217 -0.2031  0.0306
  249SOD    SOD22309   2.650   3.904   5.154 -0.3313 -0.0568 -0.2295
  250SOD    SOD22310   1.895   4.387   5.463  0.0727  0.1051 -0.0088
  251SOD    SOD22311   3.197   3.864   2.595  0.0495  0.4576 -0.4541
  252SOD    SOD22312   4.488   3.649  16.600 -0.1937  0.2146  0.8666
  253SOD    SOD22313   2.836   2.404  10.616 -0.1930  0.3804 -1.0395
  254SOD    SOD22314   4.790   4.537   5.837  0.4121 -0.2218  0.0609
  255SOD    SOD22315   5.923   6.194   3.428 -0.0549  0.4768 -0.0474
  256SOD    SOD22316   1.267   4.484   4.059  0.6536 -0.1953 -0.0496
  257SOD    SOD22317   4.183   6.197   3.153  0.2899 -0.2179  0.0878
  258SOD    SOD22318   2.301   5.697  10.705  0.0301  0.6636 -0.2121
  259SOD    SOD22319   4.792   4.473  12.066 -0.3465 -0.3896 -0.0414
  260SOD    SOD22320   2.786   0.668  14.205  0.2165 -0.1598 -0.9960
  261SOD    SOD22321   6.694   6.753  17.066 -0.1241 -0.3001  0.4243
  262SOD    SOD22322   3.719   4.485  11.521  0.1612  0.1174 -0.4856
  263SOD    SOD22323   3.476   2.251   2.371  0.0156  0.3195  0.1276
  264SOD    SOD22324   6.756   0.064   6.366  0.2187 -0.0213  0.1986
  265SOD    SOD22325   1.279   2.302   4.613  0.3275 -0.1274  0.0607
  266SOD    SOD22326   3.934   1.270   0.259 -0.4236  0.2512 -0.3920
  267SOD    SOD22327   6.737   0.101  11.857 -0.3517  0.1438  0.2784
  268SOD    SOD22328   5.549   6.504   4.835 -0.6069 -0.1763 -0.0080
  269SOD    SOD22329   1.562   3.511  11.023 -0.7604  0.0769  0.3679
  270CLA    CLA22330   4.813   3.323  15.625 -0.1619  0.2861  0.2342
  271CLA    CLA22331   1.512   3.297  11.210  0.3486  0.3259  0.0218
  272CLA    CLA22332   4.032   4.901  16.173  0.0377  0.1391  0.3308
  273CLA    CLA22333   3.781   6.411  16.907 -0.2101  0.0979 -0.1078
  274CLA    CLA22334   5.013   1.643   5.517  0.3808 -0.1943 -0.4520
  275CLA    CLA22335   1.810   0.467  15.005  0.2190 -0.4659 -0.6649
  276CLA    CLA22336   4.209   5.031  15.661 -0.2239  0.2048  0.1960
  277CLA    CLA22337   0.455   1.623  16.823 -0.1839 -0.1041 -0.1504
  278CLA    CLA22338   3.266   6.188  14.593  0.2491 -0.0121 -0.2855
  279CLA    CLA22339   6.553   5.033   3.551  0.0683  0.0994 -0.0172
  280CLA    CLA22340   4.755   0.700  11.557 -0.4456 -0.1055 -0.1135
  281CLA    CLA22341   0.404   1.883  15.528 -0.5087  0.2040  0.3929
  282CLA    CLA22342   5.389   4.667  13.020  0.0058 -0.1427 -0.1834
  283CLA    CLA22343   5.115   6.579   4.673  0.0875  0.2402  0.0056
  284CLA    CLA22344   5.694   5.869   4.271  0.1195  0.1485 -0.0037
  285CLA    CLA22345   4.596   6.603   2.176  0.3369 -0.0277  0.2632
  286CLA    CLA22346   6.521   3.929   2.535 -0.1119  0.3073 -0.2015
  287CLA    CLA22347   3.791   5.186   2.815  0.4580 -0.3043  0.3867
  288CLA    CLA22348   6.409   6.718  15.037 -0.0940 -0.1593 -0.2414
  289CLA    CLA22349   3.624   1.748   1.907  0.5421 -0.3217 -0.1276
  290CLA    CLA22350   3.069   4.241   0.441  0.2194  0.0338 -0.4089
  291CLA    CLA22351   2.600   3.314   3.872  0.3352 -0.6610 -0.1323
  292CLA    CLA22352   4.787   1.769   0.743  0.2534  0.4302 -0.2121
  293CLA    CLA22353   0.985   3.932  14.843 -0.1667  0.2295  0.2894
  294CLA    CLA22354   1.578   0.573  12.972  0.1671  0.2361  0.0502
  295CLA    CLA22355   4.138   4.266   3.824 -0.0200  0.1342 -0.1679
  296CLA    CLA22356   6.340   4.679  17.183 -0.0943  0.4846  0.1028
  297CLA    CLA22357   5.447   2.324   4.395 -0.5079  0.3496  0.5330
  298CLA    CLA22358   3.548   1.556  12.389  0.2122 -0.5762  0.0769
  299CLA    CLA22359   2.988   4.330  11.785 -0.0150  0.1292  0.3237
  300CLA    CLA22360   1.555   0.527  12.491 -0.1099  0.6203  0.7398
  301CLA    CLA22361   4.574   2.955  15.345 -0.7834  0.1121 -0.5812
  302CLA    CLA22362   3.960   0.035   0.124  0.0477 -0.0200  0.0847
  303CLA    CLA22363   6.313   3.738   4.472 -0.2929 -0.0593 -0.1437
  304CLA    CLA22364   3.521   6.004  11.290 -0.0178 -0.3010 -0.2735
  305CLA    CLA22365   5.560   5.574   3.058 -0.2707 -0.0958  0.3498
  306CLA    CLA22366   4.037   3.489   1.901 -0.1470 -0.4259 -0.1109
  307CLA    CLA22367   5.472   2.751   3.263 -0.3852  0.0186  0.2104
  308CLA    CLA22368   4.592   3.978  12.216 -0.1412 -0.3264  0.3952
  309CLA    CLA22369   0.814   2.910   3.730 -0.3744 -0.0015  0.2035
  310CLA    CLA22370   3.817   2.830  15.187 -0.1612 -0.2420 -0.2184
  311CLA    CLA22371   0.681   0.055   1.421  0.0619  0.0540 -0.2138
  312CLA    CLA22372   6.543   6.719  13.033 -0.2799 -0.2164  0.2106
  313CLA    CLA22373   2.809   2.115  16.380 -0.0472  0.4416 -0.1561
  314CLA    CLA22374   5.079   1.605  13.717 -0.8495  0.0771 -0.4474
  315CLA    CLA22375   0.839   1.744   0.324  0.1150  0.3237  0.0757
  316CLA    CLA22376   2.937   5.373  13.523 -0.5153  0.3301  0.2552
  317CLA    CLA22377   1.583   3.373  16.985 -0.1382  0.5747 -0.2105
  318CLA    CLA22378   4.264   3.290  12.564 -0.1244 -0.1349 -0.4964
  319CLA    CLA22379   3.797   1.820  16.881  0.2956  0.1269  0.0158
  320CLA    CLA22380   0.305   2.545   3.512  0.2744  0.5055  0.4399
  321CLA    CLA22381   0.391   6.067  16.975 -0.0946 -0.3474  0.0717
  322CLA    CLA22382   3.862   6.511   1.038  0.1351 -0.1882  0.3649
  323TIP3   OH222383   2.030   2.564  15.008 -0.7642 -0.0700 -0.5254
  323TIP3    H122384   2.075   2.514  14.940  2.5319  1.5425  0.3687
  323TIP3    H222385   2.035   2.655  14.978  0.8714  0.6735  1.8872
  324TIP3   OH222386   3.886   0.663   5.028 -0.4970  0.2237 -0.3726
  324TIP3    H122387   3.885   0.758   5.043 -1.0271  0.0421  0.8538
  324TIP3    H222388   3.926   0.652   4.942  0.4801  1.5087 -0.0976
  325TIP3   OH222389   5.828   5.561  11.242  0.7761  0.6519  0.0955
  325TIP3    H122390   5.760   5.518  11.190  0.5067 -0.4343  1.3198
  325TIP3    H222391   5.848   5.498  11.312  0.5705  2.4156  1.7557
  326TIP3   OH222392   3.478   4.735   1.132  0.6232  0.0346  0.4255
  326TIP3    H122393   3.491   4.817   1.179  0.7415  0.4345 -0.2988
  326TIP3    H222394   3.470   4.669   1.201 -1.8017  0.9672  1.0856
  327TIP3   OH222395   2.942   1.461   1.475 -0.6032  0.1166  0.0250
  327TIP3    H122396   2.934   1.471   1.380 -0.3151 -0.3126 -0.0440
  327TIP3    H222397   2.871   1.401   1.498 -0.2322 -0.3395 -0.0157
  328TIP3   OH222398   3.218   1.954   4.557  0.0133  0.0780  0.2304
  328TIP3    H122399   3.303   1.983   4.523 -0.5109  1.4850  0.0658
  328TIP3    H222400   3.155   2.018   4.522 -1.1682 -1.1699  0.0260
  329TIP3   OH222401   5.632   1.090  12.686  0.1261  0.2208  0.4831
  329TIP3    H122402   5.623   1.117  12.777 -1.0724 -0.9839  0.7396
  329TIP3    H222403   5.583   1.155  12.636 -0.2204  0.2046  0.8062
  330TIP3   OH222404   6.717   3.145  16.652 -0.3304 -0.3583  0.1326
  330TIP3    H122405   6.811   3.127  16.647 -0.3410  0.0319 -2.0651
  330TIP3    H222406   6.676   3.061  16.632 -0.4811 -0.6869  1.7324
  331TIP3   OH222407   0.108   5.919  15.753  0.2813 -0.2296 -0.0329
  331TIP3    H122408   0.144   6.002  15.721  2.4363 -1.1070  0.0234
  331TIP3    H222409   0.084   5.871  15.674 -1.8838  0.7966 -0.0448
  332TIP3   OH222410   5.763   0.247   6.483  0.0161  0.0062  0.4589
  332TIP3    H122411   5.700   0.264   6.413  1.1917  1.2203 -0.3562
  332TIP3    H222412   5.826   0.319   6.476  2.0966 -1.7457  0.5291
  333TIP3   OH222413   4.336   0.684   3.946 -0.4418 -0.5092 -1.2030
  333TIP3    H122414   4.414   0.670   3.891  0.1515 -0.2613 -0.4398
  333TIP3    H222415   4.310   0.597   3.973  0.1796 -0.5280 -0.6405
  334TIP3   OH222416   2.501   5.409   4.675  0.1156  0.4644 -0.1862
  334TIP3    H122417   2.433   5.450   4.729 -0.7465 -2.4171  1.0299
  334TIP3    H222418   2.466   5.413   4.586 -0.7133  0.8648  0.1448
  335TIP3   OH222419   1.705   5.806   3.126  0.2846 -0.2105 -0.3227
  335TIP3    H122420   1.630   5.854   3.090 -1.0865 -1.2238  1.1088
  335TIP3    H222421   1.738   5.755   3.052  0.0324  0.8010 -1.1553
  336TIP3   OH222422   1.015   0.672  13.292  0.0603  0.4089  0.4643
  336TIP3    H122423   1.031   0.645  13.202  1.9204 -3.0274  1.7395
  336TIP3    H222424   0.920   0.675  13.301 -0.1958  3.3748 -2.2547
  337TIP3   OH222425   2.349   2.824  14.805 -0.3322  0.4202 -0.1038
  337TIP3    H122426   2.334   2.915  14.777 -0.3100  0.5448  0.2761
  337TIP3    H222427   2.266   2.780  14.790 -0.5258  0.6529  0.2659
  338TIP3   OH222428   3.821   0.510  13.135  0.3660 -0.2244 -0.2893
  338TIP3    H122429   3.789   0.503  13.044 -0.1768 -1.8092  0.0047
  338TIP3    H222430   3.782   0.591  13.167  0.6480  0.4129 -1.5005
  339TIP3   OH222431   1.795   5.646  13.292  0.7339  0.4360  0.4951
  339TIP3    H122432   1.877   5.695  13.299 -0.0697  1.7202  1.1043
  339TIP3    H222433   1.727   5.713  13.288 -0.2200 -0.5945 -1.0907
  340TIP3   OH222434   2.415   2.855  14.062  0.1292 -0.3683  0.5315
  340TIP3    H122435   2.486   2.863  14.126  0.3905  0.4706  0.1507
  340TIP3    H222436   2.338   2.834  14.115  0.7490 -1.7433  0.8905
  341TIP3   OH222437   2.138   3.654  16.540  0.1952 -0.1018 -0.0075
  341TIP3    H122438   2.194   3.617  16.472  1.1456  1.9623 -0.3885
  341TIP3    H222439   2.174   3.619  16.622 -0.3540 -1.8279 -0.4948
  342TIP3   OH222440   3.449   2.196  11.179  0.1010 -0.2277 -0.2057
  342TIP3    H122441   3.434   2.158  11.092 -0.6803 -0.8053  0.1733
  342TIP3    H222442   3.365   2.236  11.202  0.6717  1.0041 -0.2369
  343TIP3   OH222443   2.616   3.407   2.997  0.1625 -0.1707 -0.5461
  343TIP3    H122444   2.671   3.378   3.070 -0.4158 -1.5754 -0.6583
  343TIP3    H222445   2.601   3.500   3.014 -0.8830 -0.7218  1.7462
  344TIP3   OH222446   5.690   6.600   3.799  0.0030 -0.4903  0.1939
  344TIP3    H122447   5.615   6.634   3.750  0.3051  2.5677  1.7505
  344TIP3    H222448   5.665   6.609   3.891  0.9958 -2.5291  0.7026
  345TIP3   OH222449   1.952   5.376   1.641 -0.1344 -0.3132 -0.5030
  345TIP3    H122450   1.858   5.386   1.630 -0.4955 -0.3805  2.1756
  345TIP3    H222451   1.987   5.465   1.637 -0.3971 -0.2245 -0.7684
  346TIP3   OH222452   6.433   0.341   0.356  0.1161 -0.1423 -0.6607
  346TIP3    H122453   6.412   0.262   0.406  0.0737  0.2265 -0.0961
  346TIP3    H222454   6.519   0.367   0.387  0.2631 -0.1358 -1.0682
  347TIP3   OH222455   4.036   3.412  16.679  0.8138  0.0598  0.2584
  347TIP3    H122456   4.121   3.397  16.719  1.0024  1.6733  0.4941
  347TIP3    H222457   3.981   3.444  16.751  0.6947  1.3649 -0.3950
  348TIP3   OH222458   3.494   2.551  15.021 -0.5132 -0.2945 -0.2610
  348TIP3    H122459   3.459   2.483  14.962 -0.9264 -0.4821  0.2009
  348TIP3    H222460   3.552   2.503  15.080  0.4569 -0.0002 -0.9631
  349TIP3   OH222461   2.994   0.217  17.089  0.0822 -0.1601  0.1907
  349TIP3    H122462   2.985   0.123  17.104  2.5761 -0.8877 -2.3973
  349TIP3    H222463   3.070   0.243  17.141  0.5489  0.0049 -0.5586
  350TIP3   OH222464   0.267   3.701  12.043  0.4317  0.0819 -0.0930
  350TIP3    H122465   0.280   3.792  12.068  1.2735  0.2432 -1.0898
  350TIP3    H222466   0.257   3.703  11.948 -1.7861 -0.6136  0.0761
  351TIP3   OH222467   6.381   1.640   0.781  0.0529 -0.9245  0.1187
  351TIP3    H122468   6.430   1.672   0.857  0.4559 -0.4997 -0.3208
  351TIP3    H222469   6.405   1.699   0.710 -2.0664  0.0724  0.1822
  352TIP3   OH222470   4.066   3.126  11.719 -0.4474 -0.2912  0.4027
  352TIP3    H122471   4.012   3.187  11.770  0.3144  0.4050  0.3905
  352TIP3    H222472   4.143   3.178  11.694 -0.2247 -0.9980 -0.3838
  353TIP3   OH222473   1.703   5.582   4.624  0.0388 -0.5614 -0.1035
  353TIP3    H122474   1.716   5.648   4.556 -2.2546 -0.9407 -0.9621
  353TIP3    H222475   1.791   5.565   4.657  0.8523  1.8573 -0.8543
  354TIP3   OH222476   1.531   6.162  13.509 -0.2461 -0.2287 -0.2250
  354TIP3    H122477   1.476   6.175  13.432 -0.8782 -0.0471  0.2530
  354TIP3    H222478   1.511   6.073  13.538 -0.9084  0.1180  0.4237
  355TIP3   OH222479   0.902   2.636  16.928 -0.6894  0.5669 -0.8781
  355TIP3    H122480   0.904   2.712  16.870  4.2692  1.8938  0.7776
  355TIP3    H222481   0.913   2.672  17.016  1.5592 -1.9397 -0.0326
  356TIP3   OH222482   4.498   6.314  13.540  0.6880  0.3006 -0.0506
  356TIP3    H122483   4.485   6.369  13.617  0.1556 -1.6639  1.3101
  356TIP3    H222484   4.577   6.264  13.561  0.2874 -0.5565 -0.5887
  357TIP3   OH222485   0.649   5.963   3.427 -0.1944  0.1379 -0.0056
  357TIP3    H122486   0.736   6.003   3.422 -0.3594  0.5385  0.3943
  357TIP3    H222487   0.594   6.019   3.372 -0.0502 -0.5189 -0.8379
  358TIP3   OH222488   0.605   2.655  13.958 -0.4424 -0.1841 -0.5917
  358TIP3    H122489   0.603   2.595  13.883  2.0068 -1.1090  0.0334
  358TIP3    H222490   0.643   2.736  13.923  1.8232 -1.0104 -0.1287
  359TIP3   OH222491   5.540   1.093   4.099  0.6241  0.4466  0.2720
  359TIP3    H122492   5.631   1.119   4.088  0.8937 -1.7438 -3.4817
  359TIP3    H222493   5.530   1.079   4.193  4.3216  0.0832  0.6850
  360TIP3   OH222494   6.122   0.386  11.532  0.0643  0.1197 -0.0497
  360TIP3    H122495   6.212   0.383  11.565  0.1940 -1.0320 -0.4806
  360TIP3    H222496   6.085   0.301  11.558 -1.1718  0.9417  0.9061
  361TIP3   OH222497   5.116   4.806   4.107 -0.5511 -0.3535  0.2456
  361TIP3    H122498   5.112   4.825   4.014  0.4943 -2.0558 -0.1646
  361TIP3    H222499   5.037   4.757   4.126 -0.5953 -0.3036  0.1855
  362TIP3   OH222500   1.101   3.496   4.605 -0.6931 -0.3664  0.4340
  362TIP3    H122501   1.111   3.569   4.543  1.0971 -1.1941 -0.2695
  362TIP3    H222502   1.134   3.531   4.687  0.2186 -0.4048  0.0844
  363TIP3   OH222503   0.439   2.366  14.901  0.0380 -0.1360 -0.1647
  363TIP3    H122504   0.402   2.290  14.946 -0.9123  1.0445  1.0966
  363TIP3    H222505   0.503   2.329  14.840 -0.9396 -1.9963 -0.1069
  364TIP3   OH222506   0.205   2.212  17.050 -0.8699 -0.7530 -0.0160
  364TIP3    H122507   0.214   2.117  17.052 -1.3914 -0.7967  0.5542
  364TIP3    H222508   0.249   2.240  16.970  2.1604 -1.1845  1.4207
  365TIP3   OH222509   5.697   5.060  12.218 -0.6689 -0.0664  0.0747
  365TIP3    H122510   5.747   5.045  12.298 -0.1871 -0.8247 -0.3670
  365TIP3    H222511   5.675   4.972  12.187 -0.7684  0.2262 -0.6830
  366TIP3   OH222512   5.813   2.903  14.831 -0.0337 -0.2057  0.3260
  366TIP3    H122513   5.833   2.871  14.919  1.3995  2.2885  0.9388
  366TIP3    H222514   5.897   2.934  14.797 -0.6659 -0.7143 -1.7437
  367TIP3   OH222515   0.391   5.355   1.304  0.5231 -0.8197  0.0502
  367TIP3    H122516   0.306   5.313   1.319  0.8273 -1.6132 -0.3956
  367TIP3    H222517   0.371   5.448   1.300 -0.3566 -1.0106 -0.2497
  368TIP3   OH222518   0.709   3.738   1.306  1.1185  0.2803 -0.2218
  368TIP3    H122519   0.632   3.744   1.248  0.5247 -1.9680  0.3001
  368TIP3    H222520   0.778   3.784   1.259  0.2337 -0.2083 -2.0294
  369TIP3   OH222521   6.430   2.561   3.291 -0.0345  0.5960  0.5361
  369TIP3    H122522   6.465   2.622   3.226 -1.4711  0.3623 -0.4804
  369TIP3    H222523   6.484   2.483   3.282 -0.1623  0.6023 -0.2988
  370TIP3   OH222524   4.913   0.835  16.977 -0.1825  0.1351 -0.4394
  370TIP3    H122525   4.956   0.778  17.041  0.9556 -0.6940 -1.9153
  370TIP3    H222526   4.845   0.880  17.028 -1.0899 -2.4843  0.7835
  371TIP3   OH222527   5.536   2.693   3.574 -0.1362  0.2891 -0.2801
  371TIP3    H122528   5.521   2.677   3.480  0.3875  0.0635 -0.3227
  371TIP3    H222529   5.608   2.756   3.576  0.2109 -0.1214 -0.0101
  372TIP3   OH222530   2.931   0.124   4.180 -0.1879 -0.0290  0.2370
  372TIP3    H122531   2.906   0.043   4.223 -1.8073 -0.1271 -0.8569
  372TIP3    H222532   2.866   0.136   4.111  1.7141  0.6888 -1.4876
  373TIP3   OH222533   3.961   3.971   2.603  0.0765  0.4094 -0.1988
  373TIP3    H122534   3.912   3.892   2.581  0.3743 -0.3084  1.6027
  373TIP3    H222535   3.971   4.018   2.520 -2.2097 -0.2471 -0.8705
  374TIP3   OH222536   6.404   5.603  13.611  0.0070 -0.1707  0.2392
  374TIP3    H122537   6.402   5.633  13.702  0.2223  1.7318 -0.3642
  374TIP3    H222538   6.312   5.599  13.586 -0.0246  0.1213  0.2981
  375TIP3   OH222539   6.384   3.012   4.913 -0.4880 -0.5291  0.6444
  375TIP3    H122540   6.293   2.987   4.931  0.4114 -1.8689  3.5442
  375TIP3    H222541   6.412   2.952   4.844 -1.7821 -0.0356 -0.3508
  376TIP3   OH222542   1.047   6.243  16.914 -0.2477  0.2638  0.0259
  376TIP3    H122543   1.133   6.206  16.895 -0.9257 -0.5134 -1.6106
  376TIP3    H222544   1.007   6.255  16.828 -1.6529  0.9103  0.7625
  377TIP3   OH222545   3.589   6.579   4.370 -0.0427  0.1169  0.0953
  377TIP3    H122546   3.564   6.619   4.453  0.7090  1.2984 -0.2468
  377TIP3    H222547   3.684   6.566   4.376  0.4024  2.3309 -1.4654
  378TIP3   OH222548   5.656   4.143  12.840  0.5842 -0.7302 -0.1150
  378TIP3    H122549   5.616   4.166  12.924 -1.5704  0.2196 -1.3457
  378TIP3    H222550   5.631   4.214  12.782  1.1619 -1.9087 -1.8359
  379TIP3   OH222551   1.446   6.495   4.568  0.2653  0.2093 -0.2586
  379TIP3    H122552   1.370   6.446   4.536 -0.2919  1.0976 -0.3054
  379TIP3    H222553   1.519   6.432   4.563 -0.4718 -0.6630 -0.1527
  380TIP3   OH222554   2.533   0.117   5.690  0.8307 -0.6874 -0.0742
  380TIP3    H122555   2.595   0.157   5.629 -0.4957 -0.5735 -1.3899
  380TIP3    H222556   2.538   0.023   5.673  0.7683 -0.6932 -0.0636
  381TIP3   OH222557   5.404   6.691  11.759 -0.4164 -0.0771 -0.2723
  381TIP3    H122558   5.481   6.713  11.812 -0.8930  1.6733 -0.2580
  381TIP3    H222559   5.437   6.632  11.691  0.5424 -0.9419  0.9247
  382TIP3   OH222560   6.519   3.177   1.531 -0.2171  0.0767  0.3111
  382TIP3    H122561   6.568   3.125   1.594 -0.8022 -0.2491  0.5040
  382TIP3    H222562   6.586   3.226   1.482  0.2227  0.5964  1.4180
  383TIP3   OH222563   1.042   1.612   1.103 -0.1338 -0.7006 -0.4941
  383TIP3    H122564   0.981   1.651   1.040 -2.3460 -0.3935  1.7430
  383TIP3    H222565   0.999   1.530   1.130 -0.3768  0.2967  2.3067
  384TIP3   OH222566   5.651   2.098   3.198  0.1798 -0.4749 -0.2701
  384TIP3    H122567   5.721   2.160   3.182 -0.3097 -0.0759 -0.8824
  384TIP3    H222568   5.571   2.150   3.193 -0.1867 -0.9965  0.0404
  385TIP3   OH222569   2.171   6.661   6.377  0.8088 -0.0337 -0.1893
  385TIP3    H122570   2.081   6.684   6.353  0.3091  1.2638  2.7683
  385TIP3    H222571   2.218   6.745   6.377  1.6473 -0.5011 -0.2219
  386TIP3   OH222572   2.855   2.736   2.569 -0.1374  0.3729  0.2445
  386TIP3    H122573   2.831   2.677   2.498 -0.8265  1.2097 -0.2252
  386TIP3    H222574   2.771   2.767   2.603  0.1944  0.1786  1.2545
  387TIP3   OH222575   3.476   3.598  14.568  0.1777 -0.1648 -1.1845
  387TIP3    H122576   3.538   3.659  14.527  0.4970  0.1111 -0.3005
  387TIP3    H222577   3.509   3.586  14.657 -1.0250 -0.0291 -0.7077
  388TIP3   OH222578   1.627   1.421   5.450 -0.6341 -0.2666 -0.1442
  388TIP3    H122579   1.577   1.466   5.382 -0.7989 -1.1130 -0.5905
  388TIP3    H222580   1.717   1.418   5.416 -0.3811  0.7511  0.4048
  389TIP3   OH222581   1.098   3.990   0.519  0.5763 -0.2608  0.0599
  389TIP3    H122582   1.014   3.978   0.475 -0.2613  0.5855  1.3722
  389TIP3    H222583   1.120   4.081   0.503  1.9195 -0.8206 -1.3881
  390TIP3   OH222584   5.815   2.594   1.219 -0.4626  0.1463  0.0791
  390TIP3    H122585   5.753   2.564   1.152 -0.6089 -0.6928  0.5803
  390TIP3    H222586   5.794   2.686   1.232 -0.7432  0.1943 -0.6934
  391TIP3   OH222587   6.303   5.372  11.874  0.4293 -0.8769 -0.0685
  391TIP3    H122588   6.316   5.370  11.779  0.4325 -1.0531 -0.0641
  391TIP3    H222589   6.214   5.339  11.886  0.7100 -1.5835  0.0456
  392TIP3   OH222590   1.618   6.773   3.740  0.1388 -0.3070  0.4913
  392TIP3    H122591   1.694   6.814   3.781 -0.3635  0.6153  0.5228
  392TIP3    H222592   1.648   6.745   3.654 -0.0502  1.9920 -0.3417
  393TIP3   OH222593   4.382   2.092   5.397 -0.1148 -0.3334 -0.2184
  393TIP3    H122594   4.343   2.156   5.338 -0.1088 -0.7786 -0.7081
  393TIP3    H222595   4.332   2.012   5.382 -1.1518 -0.0416  1.5266
  394TIP3   OH222596   0.880   0.948  14.670 -0.2571  0.0557  0.9368
  394TIP3    H122597   0.807   0.896  14.637  0.4826 -0.6085  0.3258
  394TIP3    H222598   0.839   1.027  14.706 -1.2479 -0.1618  0.3052
  395TIP3   OH222599   0.580   3.290  10.994  0.2681  0.0349 -0.6524
  395TIP3    H122600   0.659   3.246  10.963  0.1681 -1.2451  0.8409
  395TIP3    H222601   0.513   3.268  10.929  0.9031  0.3404 -1.4150
  396TIP3   OH222602   0.045   2.082  15.924  0.0513  0.0976 -0.4470
  396TIP3    H122603   0.106   2.023  15.879  1.3902  0.5283  0.7717
  396TIP3    H222604   0.048   2.163  15.872 -0.1769 -0.1908 -0.9116
  397TIP3   OH222605   5.897   5.675  15.809 -0.1017  0.5654 -0.0827
  397TIP3    H122606   5.913   5.769  15.804 -0.0799  0.6274  1.0246
  397TIP3    H222607   5.978   5.638  15.844  0.2103  0.0232 -1.3634
  398TIP3   OH222608   4.410   5.642  16.117 -0.2712 -0.2876  0.2476
  398TIP3    H122609   4.466   5.686  16.181 -0.3677  0.7972 -0.4047
  398TIP3    H222610   4.324   5.636  16.160 -0.0123 -0.7254  0.7125
  399TIP3   OH222611   0.430   4.659   1.661  0.6748  0.0811 -0.6777
  399TIP3    H122612   0.488   4.684   1.733  1.6422  0.0248 -1.4334
  399TIP3    H222613   0.435   4.731   1.599 -0.0852  0.0824 -0.7448
  400TIP3   OH222614   3.615   4.961  16.347  0.0148  0.3896 -0.3873
  400TIP3    H122615   3.656   4.877  16.325  0.5222  0.6624 -0.4828
  400TIP3    H222616   3.668   4.996  16.418 -0.4367  0.4438 -0.0792
  401TIP3   OH222617   3.615   5.473   1.285  0.0973  0.7101 -0.0848
  401TIP3    H122618   3.659   5.450   1.203  1.2035  2.0621  0.1079
  401TIP3    H222619   3.531   5.511   1.257 -0.1486 -0.1345 -0.5245
  402TIP3   OH222620   1.731   2.942  15.782  0.1513 -0.3041 -0.5872
  402TIP3    H122621   1.775   2.991  15.713 -3.3630 -1.7048 -3.9842
  402TIP3    H222622   1.659   2.999  15.810 -0.2995 -1.0250 -0.2637
  403TIP3   OH222623   0.557   1.201   2.245 -0.3301 -0.7199 -0.0467
  403TIP3    H122624   0.495   1.143   2.202 -0.1790 -1.3640  0.5959
  403TIP3    H222625   0.531   1.201   2.336  1.6892 -2.4535  0.5878
  404TIP3   OH222626   3.715   2.529  13.774 -0.5561  0.0396  0.0139
  404TIP3    H122627   3.779   2.464  13.746  1.0708  1.4755  0.2912
  404TIP3    H222628   3.740   2.609  13.727 -0.1234  1.4752  2.5791
  405TIP3   OH222629   4.742   4.433   3.331 -0.0478  0.3096  0.5770
  405TIP3    H122630   4.820   4.430   3.274  0.7124  0.5218  1.5959
  405TIP3    H222631   4.778   4.440   3.419 -1.2410  0.6192  1.0367
  406TIP3   OH222632   5.377   5.373   1.971  0.2643 -0.3401  0.6924
  406TIP3    H122633   5.351   5.463   1.951 -2.3585 -0.7626  1.9237
  406TIP3    H222634   5.369   5.327   1.887  2.8703  0.8113 -0.2188
  407TIP3   OH222635   0.510   6.678  13.818  0.6137  0.6065 -0.2254
  407TIP3    H122636   0.557   6.697  13.737  0.5679  0.7602 -0.2166
  407TIP3    H222637   0.436   6.624  13.790  1.2255 -0.2892 -0.1457
  408TIP3   OH222638   4.006   5.182   2.132  0.3012  0.2126  0.4183
  408TIP3    H122639   4.092   5.224   2.120 -0.3453  0.4742 -4.4875
  408TIP3    H222640   3.943   5.253   2.115 -0.8585 -0.4904  1.7665
  409TIP3   OH222641   5.464   4.904   2.126  0.2582  0.3676 -0.4778
  409TIP3    H122642   5.412   4.836   2.084  1.6118  0.0314 -1.6531
  409TIP3    H222643   5.464   4.976   2.063  3.1110 -0.4976 -1.5997
  410TIP3   OH222644   5.295   3.124   1.824  0.4716  0.7402 -0.5148
  410TIP3    H122645   5.281   3.208   1.780 -0.3510  1.8324  1.7889
  410TIP3    H222646   5.352   3.145   1.898  1.6253 -1.0401 -0.8746
  411TIP3   OH222647   3.211   0.725  14.080  0.6438  0.2699 -0.1807
  411TIP3    H122648   3.289   0.672  14.066  1.3026  1.2457 -0.2396
  411TIP3    H222649   3.237   0.788  14.148 -0.2093  0.3419  0.0831
  412TIP3   OH222650   0.983   6.164   6.223  0.0218 -0.5849  0.0837
  412TIP3    H122651   0.954   6.216   6.149 -0.9701 -0.5908  0.4677
  412TIP3    H222652   1.003   6.078   6.186 -3.5169 -1.5526  0.3196
  413TIP3   OH222653   3.524   4.783   5.161  0.1913 -0.2632  0.2940
  413TIP3    H122654   3.575   4.736   5.095  1.2677 -0.0029  0.9133
  413TIP3    H222655   3.576   4.862   5.178 -1.2388  0.7965 -0.2283
  414TIP3   OH222656   5.118   0.055   1.356 -0.3328 -0.3245 -0.0118
  414TIP3    H122657   5.108   0.007   1.274 -0.2607  0.8530 -0.7221
  414TIP3    H222658   5.031   0.094   1.371  0.1836  1.0605 -0.5545
  415TIP3   OH222659   1.506   5.742  15.896  0.3532  0.6430 -0.4811
  415TIP3    H122660   1.471   5.795  15.825  0.1989  0.8957 -0.2209
  415TIP3    H222661   1.522   5.805  15.967  0.0627  0.3224 -0.1307
  416TIP3   OH222662   2.691   5.908   4.065 -0.2455  0.3144 -0.3750
  416TIP3    H122663   2.712   6.001   4.055 -0.8395  0.3962 -0.8675
  416TIP3    H222664   2.773   5.863   4.048  0.0431  0.7504 -0.1413
  417TIP3   OH222665   4.371   5.564   2.805 -0.6898  0.1160  0.1399
  417TIP3    H122666   4.298   5.619   2.777 -0.9299 -0.9421 -1.4005
  417TIP3    H222667   4.331   5.480   2.827 -0.1384  0.0688  1.0057
  418TIP3   OH222668   4.350   4.591  15.458  0.4177  0.0435 -0.2773
  418TIP3    H122669   4.307   4.608  15.542  1.1285 -0.8668  0.2694
  418TIP3    H222670   4.334   4.671  15.407 -2.0534 -0.3412 -0.1484
  419TIP3   OH222671   2.207   4.527   1.069 -0.1780  0.5549 -0.1382
  419TIP3    H122672   2.201   4.617   1.103 -1.3167  0.8372 -1.0562
  419TIP3    H222673   2.300   4.515   1.048  0.2724  0.9117  1.6155
  420TIP3   OH222674   4.894   6.182  13.832 -0.1006  0.3078 -0.1077
  420TIP3    H122675   4.831   6.211  13.766  1.0216  1.0793 -0.8684
  420TIP3    H222676   4.927   6.263  13.871 -0.2028 -0.1218  0.8860
  421TIP3   OH222677   0.011   3.295  16.394  0.5549 -0.5787  0.4005
  421TIP3    H122678  -0.036   3.356  16.451  0.4493 -1.0831  0.8530
  421TIP3    H222679   0.082   3.260  16.448  0.8092 -0.6205  0.0439
  422TIP3   OH222680   0.064   6.155   4.515 -0.0016  0.4416  0.4705
  422TIP3    H122681   0.100   6.067   4.507 -1.2770 -0.0413 -0.2171
  422TIP3    H222682   0.098   6.203   4.439 -3.7447 -1.1096 -2.3476
  423TIP3   OH222683   2.196   0.076   2.707  0.0317  0.2224 -0.5181
  423TIP3    H122684   2.273   0.042   2.753 -1.0885 -0.8638  0.6063
  423TIP3    H222685   2.224   0.082   2.615  0.7504 -2.4192 -0.5338
  424TIP3   OH222686   1.078   4.809   3.274 -0.3525  0.2336 -0.5977
  424TIP3    H122687   1.131   4.773   3.202 -0.6436  0.0975 -0.7437
  424TIP3    H222688   1.074   4.738   3.338  0.5640  0.6232 -0.0934
  425TIP3   OH222689   5.193   5.258   3.679 -0.2361 -0.4271  0.8589
  425TIP3    H122690   5.137   5.324   3.637 -0.1234 -0.7340  0.2235
  425TIP3    H222691   5.142   5.177   3.675  0.0314 -0.5911  0.7501
  426TIP3   OH222692   3.900   6.239  11.646 -0.1161 -0.5079 -0.3807
  426TIP3    H122693   3.890   6.312  11.706 -0.3808 -0.6289 -0.2794
  426TIP3    H222694   3.953   6.274  11.574  0.8585 -0.5823  0.2891
  427TIP3   OH222695   4.308   2.109  14.163  0.2281 -0.2726 -0.1726
  427TIP3    H122696   4.248   2.034  14.168  1.3191 -1.0764  1.4727
  427TIP3    H222697   4.305   2.147  14.250  3.0869 -1.1276  0.3339
  428TIP3   OH222698   2.750   0.516   5.919 -0.2762  0.3531 -0.1493
  428TIP3    H122699   2.739   0.585   5.985 -1.7717  1.5479 -1.5935
  428TIP3    H222700   2.712   0.553   5.840 -0.0345 -1.7162 -1.2619
  429TIP3   OH222701   2.893   5.940   1.260  0.2328  0.1233  0.1879
  429TIP3    H122702   2.921   5.868   1.203 -3.2166 -2.0735  1.0734
  429TIP3    H222703   2.895   6.017   1.204  0.3791 -1.3498 -1.9013
  430TIP3   OH222704   3.585   3.101  16.374 -0.1051  0.3163 -0.5652
  430TIP3    H122705   3.575   3.178  16.319 -1.4132  1.7224  1.5314
  430TIP3    H222706   3.639   3.131  16.448 -2.2736 -0.1542  1.2872
  431TIP3   OH222707   2.425   1.656   1.790 -0.2926  0.0809  0.0084
  431TIP3    H122708   2.487   1.687   1.724 -1.3577 -1.3039 -1.7172
  431TIP3    H222709   2.361   1.727   1.797 -1.9299 -1.0283 -2.8520
  432TIP3   OH222710   6.547   3.281   1.200  0.0643  0.2848  1.1651
  432TIP3    H122711   6.586   3.196   1.184  1.9193  0.9150  2.1966
  432TIP3    H222712   6.473   3.285   1.140  0.7740 -1.4882  0.1334
  433TIP3   OH222713   3.816   0.227   2.050  0.1329 -0.1163 -0.8685
  433TIP3    H122714   3.888   0.238   2.113  0.9958  1.8159 -2.1506
  433TIP3    H222715   3.832   0.140   2.011 -0.8127 -1.6605  2.0135
  434TIP3   OH222716   5.291   0.187  11.679  0.0566  0.2191 -0.7315
  434TIP3    H122717   5.334   0.251  11.735  1.4667  0.1566 -1.7070
  434TIP3    H222718   5.352   0.112  11.678 -0.6694 -0.3726 -1.1324
  435TIP3   OH222719   0.555   5.331  15.724  0.2698  0.5303 -0.5014
  435TIP3    H122720   0.530   5.255  15.672 -1.4882  0.0859  0.9251
  435TIP3    H222721   0.623   5.299  15.783  0.2175  0.3073 -0.5619
  436TIP3   OH222722   4.446   1.630   6.119 -0.3758 -0.4150  0.2903
  436TIP3    H122723   4.540   1.620   6.131 -0.2991 -0.3473 -0.2523
  436TIP3    H222724   4.408   1.558   6.169  0.0053 -1.0164 -0.2751
  437TIP3   OH222725   6.777   6.198   5.145  0.0001  0.2271 -0.2674
  437TIP3    H122726   6.708   6.132   5.144 -0.1990  0.4173  0.3336
  437TIP3    H222727   6.812   6.198   5.056  0.4611 -1.1761 -0.1120
  438TIP3   OH222728   2.010   3.695  14.517  0.1396  0.5789  0.5508
  438TIP3    H122729   2.004   3.664  14.426 -1.1464 -0.5643  1.0176
  438TIP3    H222730   1.944   3.765  14.523 -1.0712 -0.5969  1.0983
  439TIP3   OH222731   0.325   6.173   0.093 -0.5645  0.4524  0.0397
  439TIP3    H122732   0.337   6.119   0.015  4.2360 -3.3912  3.0921
  439TIP3    H222733   0.368   6.255   0.073  1.6620 -0.9315 -1.0238
  440TIP3   OH222734   5.817   5.502   3.418  0.0229  0.4830 -0.7628
  440TIP3    H122735   5.887   5.455   3.373 -0.5489 -0.3447 -0.7926
  440TIP3    H222736   5.736   5.467   3.380 -0.4203  0.9929 -0.2968
  441TIP3   OH222737   5.554   5.115   0.559  0.4477  0.3533 -0.4644
  441TIP3    H122738   5.533   5.161   0.477 -1.1323  0.4855  0.0024
  441TIP3    H222739   5.622   5.053   0.534  0.4954  0.8834 -1.7362
  442TIP3   OH222740   6.544   2.120  11.908 -0.2206  0.2937 -0.3636
  442TIP3    H122741   6.599   2.122  11.830 -0.2987  3.9424 -0.4479
  442TIP3    H222742   6.455   2.127  11.874 -0.2909  1.2488 -0.0029
  443TIP3   OH222743   3.455   1.777   5.689  0.1611  0.0688 -0.1283
  443TIP3    H122744   3.505   1.699   5.714  0.4071  0.1590 -0.3332
  443TIP3    H222745   3.380   1.778   5.749  0.4443 -0.0282  0.2313
  444TIP3   OH222746   1.447   1.804  13.743  0.4016 -0.8672  0.1373
  444TIP3    H122747   1.499   1.882  13.761  1.2558 -1.4202  0.0779
  444TIP3    H222748   1.487   1.735  13.797 -1.2977 -0.9072  1.3828
  445TIP3   OH222749   2.054   5.592  14.354  1.0723 -0.0761  0.3185
  445TIP3    H122750   1.961   5.594  14.332  1.1684  1.3763  0.0211
  445TIP3    H222751   2.094   5.658  14.297  2.1482 -0.0625  1.0730
  446TIP3   OH222752   2.924   0.325   1.305  0.3550  0.3711  0.2473
  446TIP3    H122753   2.894   0.271   1.379 -2.5764 -0.0973 -1.2119
  446TIP3    H222754   2.976   0.266   1.252 -0.2328 -0.1830  0.2803
  447TIP3   OH222755   3.663   5.235   5.709 -0.3398 -0.4333  0.2555
  447TIP3    H122756   3.748   5.194   5.696 -0.2133 -0.2440  0.4851
  447TIP3    H222757   3.604   5.188   5.650  0.2657  0.5542 -1.1617
  448TIP3   OH222758   5.903   6.372   1.169 -0.3053 -0.1303 -0.0168
  448TIP3    H122759   5.839   6.314   1.127 -2.1458  0.2877  2.0977
  448TIP3    H222760   5.908   6.341   1.259  0.7436  1.2966  0.4329
  449TIP3   OH222761   5.269   1.780  14.975 -0.1878 -0.0912 -0.0274
  449TIP3    H122762   5.246   1.763  14.883 -0.5111  0.0281  0.0303
  449TIP3    H222763   5.239   1.703  15.022  1.6319 -0.9587 -0.2709
  450TIP3   OH222764   3.930   6.100  16.732  0.0104 -0.5002 -0.3824
  450TIP3    H122765   3.994   6.151  16.783 -0.4538  2.2083 -2.3531
  450TIP3    H222766   3.845   6.129  16.764 -0.2515 -0.3603 -1.1843
  451TIP3   OH222767   2.636   3.980   0.610  0.5235 -0.1320  0.1531
  451TIP3    H122768   2.605   3.890   0.603  1.0812 -0.2014 -1.9081
  451TIP3    H222769   2.646   4.009   0.519 -1.5368  2.6720  0.7428
  452TIP3   OH222770   2.358   5.461   2.427 -0.8704 -0.4103 -0.3929
  452TIP3    H122771   2.412   5.424   2.357  0.3063  1.2088 -0.3880
  452TIP3    H222772   2.358   5.395   2.496  0.3710 -0.8070 -0.7649
  453TIP3   OH222773   3.383   4.974  16.214 -0.1468 -0.1273 -0.4987
  453TIP3    H122774   3.416   4.911  16.150 -1.5305  0.0892 -1.4690
  453TIP3    H222775   3.454   4.985  16.277  2.2555  1.5276 -3.3618
  454TIP3   OH222776   4.843   4.335  15.692 -0.3431 -0.2619 -0.0276
  454TIP3    H122777   4.921   4.306  15.738 -0.5208  0.2942  0.6211
  454TIP3    H222778   4.845   4.430  15.697  0.9044 -0.0538 -3.2594
  455TIP3   OH222779   5.502   6.707   0.681 -0.5471  0.6936  0.2845
  455TIP3    H122780   5.551   6.672   0.606 -0.0690  0.2399  0.8013
  455TIP3    H222781   5.551   6.785   0.706 -0.1274  0.2881  0.7472
  456TIP3   OH222782   1.449   1.672  12.013 -0.3797  0.3531 -0.0312
  456TIP3    H122783   1.460   1.647  12.105  0.6219  0.7332 -0.0379
  456TIP3    H222784   1.537   1.660  11.975 -1.2388 -1.8346 -1.4466
  457TIP3   OH222785   0.252   6.252  12.871  0.1221  0.4397  0.3983
  457TIP3    H122786   0.298   6.170  12.890 -0.9697 -0.0479  0.9883
  457TIP3    H222787   0.317   6.306  12.825  1.5187  0.0834  1.9209
  458TIP3   OH222788   2.880   0.761  14.678  0.5024 -0.3292 -0.0069
  458TIP3    H122789   2.873   0.841  14.626  0.2272  0.3317  1.0571
  458TIP3    H222790   2.897   0.790  14.767  0.2040 -1.4479  0.4293
  459TIP3   OH222791   3.484   6.301  15.706  0.1149 -0.0799  0.6976
  459TIP3    H122792   3.435   6.240  15.650 -2.1601  1.4843  0.9054
  459TIP3    H222793   3.543   6.347  15.645 -0.0412 -0.6456  0.1113
  460TIP3   OH222794   1.756   1.581  12.254 -1.1511  0.0986  0.6472
  460TIP3    H122795   1.776   1.595  12.161  0.3558  0.2105  0.9703
  460TIP3    H222796   1.798   1.655  12.298 -2.9802  0.7679  1.3142
  461TIP3   OH222797   4.574   4.147  11.907 -0.0900 -0.3543  0.0273
  461TIP3    H122798   4.573   4.106  11.994 -1.0423  0.2947  0.3309
  461TIP3    H222799   4.564   4.073  11.846 -2.4408 -0.5641  0.5977
  462TIP3   OH222800   6.749   4.231  15.958  0.5175  0.1325  0.1226
  462TIP3    H122801   6.681   4.193  16.014 -0.5626  0.9628 -0.6074
  462TIP3    H222802   6.720   4.211  15.869  1.6895 -0.2769 -0.1731
  463TIP3   OH222803   6.125   6.284   2.407  0.4445 -0.4812  0.6117
  463TIP3    H122804   6.192   6.333   2.360  0.1988  0.3040  1.0681
  463TIP3    H222805   6.088   6.225   2.341  0.6149  0.0829  0.0004
  464TIP3   OH222806   0.739   6.734   5.366  0.2218 -0.6316  0.1836
  464TIP3    H122807   0.731   6.642   5.392 -0.9584 -0.5571  0.1218
  464TIP3    H222808   0.730   6.783   5.448 -1.9091 -0.4646 -0.1286
  465TIP3   OH222809   2.274   0.019   5.543 -0.1516 -0.2741 -0.2611
  465TIP3    H122810   2.251   0.098   5.494 -0.9282  0.1130  0.7049
  465TIP3    H222811   2.215   0.020   5.618  2.5883  0.3681  1.9620
  466TIP3   OH222812   6.651   4.817  10.824 -0.2917 -0.4756  0.4366
  466TIP3    H122813   6.589   4.796  10.894  0.2349  0.3601  1.1585
  466TIP3    H222814   6.609   4.890  10.777 -1.1319 -1.7171 -0.7688
  467TIP3   OH222815   1.478   0.134  13.561  0.3814  0.1236 -0.5903
  467TIP3    H122816   1.421   0.116  13.635  0.2663 -0.2878 -0.7778
  467TIP3    H222817   1.427   0.195  13.507  0.5006  0.4915 -0.2918
  468TIP3   OH222818   0.425   6.642   0.333 -0.8357 -0.2934 -0.3281
  468TIP3    H122819   0.488   6.641   0.260  0.1301 -0.4351  0.4895
  468TIP3    H222820   0.451   6.568   0.387 -2.2678 -0.8765 -0.4354
  469TIP3   OH222821   4.268   5.578   0.215 -0.7487  0.5614 -0.1871
  469TIP3    H122822   4.185   5.563   0.261  0.2122 -1.4265  0.9963
  469TIP3    H222823   4.313   5.644   0.267 -0.7695  0.2204  0.2658
  470TIP3   OH222824   2.362   6.442   4.211  0.1153  0.5170  0.2515
  470TIP3    H122825   2.347   6.500   4.285  2.1788 -1.2950  2.1771
  470TIP3    H222826   2.454   6.416   4.219  0.3672  0.1827 -2.8840
  471TIP3   OH222827   0.971   2.743  13.854  0.1387 -0.3511  0.3189
  471TIP3    H122828   1.012   2.787  13.930  0.2072  1.1699 -0.5766
  471TIP3    H222829   0.880   2.773  13.856 -0.1862 -1.3434  0.5461
  472TIP3   OH222830   0.826   3.322  15.134  0.8776 -0.1699  0.3898
  472TIP3    H122831   0.884   3.341  15.208  1.6591  0.0826 -0.2737
  472TIP3    H222832   0.741   3.303  15.174  0.6574  2.3675  1.2236
  473TIP3   OH222833   3.766   5.912   2.909 -0.3460 -0.3346  0.5759
  473TIP3    H122834   3.768   5.913   2.814 -0.0022 -1.3924  0.5653
  473TIP3    H222835   3.741   6.001   2.934 -0.5428 -0.0872 -0.4997
  474TIP3   OH222836   1.973   3.910  12.047  0.2436 -0.2773  0.0433
  474TIP3    H122837   2.069   3.913  12.053  0.2889  0.4156 -0.9164
  474TIP3    H222838   1.951   3.972  11.978 -0.6734 -2.8199 -2.0358
  475TIP3   OH222839   3.761   2.829  15.508 -0.2448 -0.1949  0.2658
  475TIP3    H122840   3.762   2.736  15.530 -0.4117 -0.0136  1.0326
  475TIP3    H222841   3.746   2.830  15.413 -0.0442 -0.9499  0.2204
  476TIP3   OH222842   3.282   5.620   2.449  0.0153 -0.1953 -0.1633
  476TIP3    H122843   3.322   5.535   2.469  1.4811  0.5925  0.3461
  476TIP3    H222844   3.215   5.631   2.516  1.3646  0.0625  1.1782
  477TIP3   OH222845   5.749   2.676  11.313 -0.4372 -0.2630 -0.0025
  477TIP3    H122846   5.681   2.714  11.368  0.1371  0.4043  0.2444
  477TIP3    H222847   5.716   2.687  11.224 -0.5251  0.3154  0.0982
  478TIP3   OH222848   1.438   3.920  15.564  0.3411 -0.1162  0.3960
  478TIP3    H122849   1.462   3.991  15.624  1.9439  0.3579 -0.7972
  478TIP3    H222850   1.370   3.958  15.508  3.7693  1.7599 -2.6944
  479TIP3   OH222851   4.648   2.869   5.383 -0.1336 -0.1609  0.1363
  479TIP3    H122852   4.711   2.801   5.360 -1.0037 -1.2719  0.9751
  479TIP3    H222853   4.700   2.950   5.388  1.2255 -1.0767  0.9378
  480TIP3   OH222854   1.824   5.287   2.532 -0.3832  0.3827  0.4241
  480TIP3    H122855   1.868   5.370   2.516 -0.3961  0.1483 -0.8862
  480TIP3    H222856   1.804   5.253   2.445 -3.2912  0.5537  0.9695
  481TIP3   OH222857   2.893   5.855  15.439  0.2536  0.4602 -0.3283
  481TIP3    H122858   2.809   5.866  15.394 -0.3736  1.2867  1.0086
  481TIP3    H222859   2.901   5.761  15.453  0.4159  0.2002 -2.0671
  482TIP3   OH222860   0.599   3.875   2.538  0.3671 -0.1895 -0.3422
  482TIP3    H122861   0.688   3.871   2.502  1.2239  0.1196  1.6964
  482TIP3    H222862   0.609   3.852   2.630 -1.5749  0.5678  0.0819
  483TIP3   OH222863   5.842   0.699   1.512 -0.0357  0.2366 -0.0983
  483TIP3    H122864   5.825   0.742   1.428  0.6731 -0.9188 -0.8418
  483TIP3    H222865   5.773   0.731   1.570 -0.5768  0.9778 -1.1538
  484TIP3   OH222866   3.405   0.742  12.694  0.4417  0.3071  0.0099
  484TIP3    H122867   3.410   0.656  12.652  2.4072  0.7624 -0.7209
  484TIP3    H222868   3.361   0.798  12.629  0.5223  0.2190 -0.1200
  485TIP3   OH222869   2.198   5.298   1.776  0.7561  0.1865 -0.3972
  485TIP3    H122870   2.189   5.252   1.860  1.1476  1.2572  0.2460
  485TIP3    H222871   2.109   5.322   1.752  0.4941 -1.2915 -0.9737
  486TIP3   OH222872   2.386   5.599   1.367  0.0269  0.2061  0.8242
  486TIP3    H122873   2.440   5.534   1.321  0.0784  0.0975  1.0344
  486TIP3    H222874   2.440   5.678   1.370 -0.5670  0.6662 -0.6148
  487TIP3   OH222875   1.607   1.377  11.109 -0.2004 -0.0687  0.2357
  487TIP3    H122876   1.697   1.406  11.091 -1.1311  1.9357 -1.4250
  487TIP3    H222877   1.586   1.319  11.036  0.3714 -2.0713  1.6237
  488TIP3   OH222878   2.545   5.358  12.777  1.1941  0.2438 -0.1107
  488TIP3    H122879   2.557   5.317  12.863 -1.9869  1.2216  0.8688
  488TIP3    H222880   2.512   5.288  12.721  1.7692 -0.0147 -0.1333
  489TIP3   OH222881   1.002   2.739  12.822 -0.1625 -0.5903  0.0916
  489TIP3    H122882   1.033   2.697  12.902  1.7485 -1.4105 -1.0426
  489TIP3    H222883   0.918   2.697  12.803  0.3915 -1.8910  0.4993
  490TIP3   OH222884   6.401   4.218  11.916  0.5744  0.3210 -0.5725
  490TIP3    H122885   6.447   4.290  11.874  0.4554  0.7542  0.0253
  490TIP3    H222886   6.455   4.141  11.900  1.1736  0.7122 -0.4208
  491TIP3   OH222887   5.589   6.350  10.763  0.8286  0.4802 -0.0797
  491TIP3    H122888   5.622   6.355  10.853 -0.8274  0.2379  0.5663
  491TIP3    H222889   5.666   6.331  10.710  2.0875  2.1289  1.1058
  492TIP3   OH222890   5.598   2.315  14.451  0.2570  0.1965  0.4808
  492TIP3    H122891   5.580   2.401  14.487 -0.5435  0.4806 -0.5885
  492TIP3    H222892   5.627   2.263  14.526  0.8946  1.4327  1.0916
  493TIP3   OH222893   5.007   2.355   1.023  0.0113  0.2601  0.2917
  493TIP3    H122894   4.929   2.299   1.023 -0.8838  1.4991  0.7521
  493TIP3    H222895   5.043   2.344   0.935  0.7245 -2.2367  0.8582
  494TIP3   OH222896   4.999   0.359  16.906 -0.2801 -0.1367  0.0879
  494TIP3    H122897   4.908   0.389  16.911 -0.2815 -0.3186  1.2102
  494TIP3    H222898   5.040   0.395  16.985  0.9299  0.9520 -1.0142
  495TIP3   OH222899   6.748   3.955  12.314 -0.4091 -0.1891 -0.2528
  495TIP3    H122900   6.797   3.905  12.249  1.3890 -0.2830  1.1480
  495TIP3    H222901   6.689   3.892  12.354 -0.3698 -0.4889 -0.6648
  496TIP3   OH222902   1.085   1.133   3.628  0.0816 -0.1206 -0.4160
  496TIP3    H122903   0.990   1.133   3.618 -0.0149 -2.2101  0.1588
  496TIP3    H222904   1.118   1.135   3.538 -0.5205  0.1752 -0.6336
  497TIP3   OH222905   6.198   6.297   4.135  0.4751 -0.6241 -0.7285
  497TIP3    H122906   6.141   6.359   4.090  2.1634  1.9080  0.4606
  497TIP3    H222907   6.284   6.308   4.094  1.4423 -0.1093  1.3520
  498TIP3   OH222908   5.339   0.259  11.034 -0.2253  0.0801  0.3754
  498TIP3    H122909   5.417   0.272  10.979  0.0086 -0.2608  0.6260
  498TIP3    H222910   5.268   0.242  10.971 -0.6310  2.9540  0.0265
  499TIP3   OH222911   4.430   5.741   6.706 -0.0633 -0.2723 -0.5119
  499TIP3    H122912   4.438   5.731   6.611 -0.8017  1.7682 -0.8039
  499TIP3    H222913   4.413   5.652   6.738  1.5898 -1.2177 -2.1257
  500TIP3   OH222914   1.421   5.134  13.142 -0.6843 -0.0822 -0.6432
  500TIP3    H122915   1.498   5.170  13.098  0.0014  0.1271  0.6899
  500TIP3    H222916   1.456   5.071  13.205 -1.6962 -0.9544 -0.9247
  501TIP3   OH222917   0.643   4.357   2.919  0.4148  0.1679  0.0881
  501TIP3    H122918   0.570   4.418   2.914 -0.0394 -0.3193  0.5658
  501TIP3    H222919   0.663   4.334   2.828 -0.7921 -0.5766 -0.0018
  502TIP3   OH222920   1.631   4.356   5.836 -0.0110 -0.2938  0.1935
  502TIP3    H122921   1.566   4.287   5.823  0.6858 -0.4683 -2.8278
  502TIP3    H222922   1.702   4.314   5.883 -1.7308 -0.2821  2.9104
  503TIP3   OH222923   0.308   0.926  14.665 -0.4827  0.3280  0.4449
  503TIP3    H122924   0.275   0.943  14.753  0.5540  0.6291  0.7831
  503TIP3    H222925   0.234   0.888  14.618 -0.6172 -1.1878  1.8633
  504TIP3   OH222926   6.577   3.487  12.507 -0.5848 -0.0312  0.0254
  504TIP3    H122927   6.621   3.408  12.542 -0.3913  0.4595  0.9148
  504TIP3    H222928   6.527   3.455  12.432  0.8346 -0.7175 -0.6589
  505TIP3   OH222929   1.596   2.320   2.824 -0.4934 -0.1905 -0.1866
  505TIP3    H122930   1.615   2.247   2.766 -2.7207 -0.3908 -0.7081
  505TIP3    H222931   1.629   2.292   2.910 -1.1366 -1.7216 -0.4338
  506TIP3   OH222932   2.699   1.124   1.231 -0.7118  0.2436  0.3080
  506TIP3    H122933   2.737   1.051   1.181  0.0375  0.8261  0.0166
  506TIP3    H222934   2.767   1.149   1.293 -1.1308  0.4126  0.7037
  507TIP3   OH222935   5.929   1.437   2.878  0.2971  0.1230  0.5186
  507TIP3    H122936   5.937   1.516   2.930 -2.6663  0.7730  0.1172
  507TIP3    H222937   5.926   1.468   2.787  1.1137 -0.6219  0.2331
  508TIP3   OH222938   5.259   0.491   5.995  0.5906  0.2059  0.1440
  508TIP3    H122939   5.298   0.545   6.063  0.7579 -1.6779  1.5963
  508TIP3    H222940   5.327   0.426   5.975 -0.1288 -0.3367 -0.5590
  509TIP3   OH222941   5.754   5.278   1.005 -0.3064  0.3450 -0.7152
  509TIP3    H122942   5.721   5.265   0.916 -2.5078  1.6192 -0.1165
  509TIP3    H222943   5.685   5.243   1.061  0.5567  0.6118  0.5126
  510TIP3   OH222944   2.717   3.810   3.828  0.0883  0.1809 -0.2642
  510TIP3    H122945   2.780   3.815   3.756  1.3319 -2.9873  0.5002
  510TIP3    H222946   2.711   3.716   3.848 -0.2746  0.9732  3.7065
  511TIP3   OH222947   6.509   1.091   2.856 -0.4608 -0.2370  0.0014
  511TIP3    H122948   6.585   1.044   2.891 -0.3690 -1.1249 -1.3664
  511TIP3    H222949   6.444   1.086   2.926 -0.7229 -3.0736 -0.3734
  512TIP3   OH222950   5.633   0.266  10.497 -0.2453 -0.0009 -0.0277
  512TIP3    H122951   5.657   0.252  10.405 -2.2884 -1.0868 -0.4140
  512TIP3    H222952   5.713   0.247  10.545  0.8989  0.7070 -1.5838
  513TIP3   OH222953   0.360   0.903  10.842 -0.3179  0.1782  0.4057
  513TIP3    H122954   0.294   0.835  10.852 -0.3327  0.0906 -0.2605
  513TIP3    H222955   0.440   0.855  10.822 -0.7526  0.4509 -2.0983
  514TIP3   OH222956   0.775   5.062   1.249  0.3906 -0.2454  0.4920
  514TIP3    H122957   0.718   5.125   1.294 -0.7271 -0.4726 -0.5671
  514TIP3    H222958   0.763   4.980   1.297 -0.2854 -0.3234  0.1975
  515TIP3   OH222959   3.773   6.647  12.095  0.2892  0.0889 -0.2982
  515TIP3    H122960   3.763   6.739  12.074 -0.9457 -0.1691 -0.8605
  515TIP3    H222961   3.734   6.600  12.022  0.8642 -0.8847  0.0004
  516TIP3   OH222962   5.860   5.666   1.550  0.1324  0.1599 -0.3163
  516TIP3    H122963   5.772   5.636   1.573 -0.1890  1.6613  0.5389
  516TIP3    H222964   5.866   5.656   1.455 -1.1141  0.4151 -0.4269
  517TIP3   OH222965   2.740   5.393  15.179  0.3631 -0.1004 -0.3708
  517TIP3    H122966   2.769   5.302  15.176 -0.0376 -0.2617  0.5894
  517TIP3    H222967   2.645   5.388  15.165  0.6116  0.3423 -2.4109
  518TIP3   OH222968   0.708   0.230  16.554  0.7320  0.3192  0.4823
  518TIP3    H122969   0.667   0.231  16.641 -1.1796  1.9141 -0.4003
  518TIP3    H222970   0.799   0.256  16.570  0.2362  1.2192  1.9267
  519TIP3   OH222971   0.815   5.237  11.234  0.6151  0.1937 -0.4862
  519TIP3    H122972   0.759   5.172  11.192  1.8703 -1.2537  0.0487
  519TIP3    H222973   0.779   5.322  11.206 -2.4589 -0.6812  0.6766
  520TIP3   OH222974   0.428   3.051   3.505  0.0214 -0.5621  0.1384
  520TIP3    H122975   0.477   3.124   3.544 -1.0950 -0.4797  1.4072
  520TIP3    H222976   0.336   3.076   3.513 -0.4160 -2.3743  1.1527
  521TIP3   OH222977   5.325   5.340   4.592  0.0268 -0.8800  0.4831
  521TIP3    H122978   5.302   5.410   4.531 -2.0597  0.0146  2.2556
  521TIP3    H222979   5.401   5.373   4.640 -0.9199  0.1636  1.2766
  522TIP3   OH222980   4.506   0.796   0.948 -0.2567 -0.4309  0.4228
  522TIP3    H122981   4.573   0.744   0.904  2.2298  2.3907  0.7704
  522TIP3    H222982   4.425   0.775   0.901  1.6411 -0.4815 -2.9784
  523TIP3   OH222983   3.634   0.673  11.677  0.6018  0.0858  0.3371
  523TIP3    H122984   3.661   0.714  11.594  0.6532  0.7518  0.6838
  523TIP3    H222985   3.588   0.593  11.650  0.0496  0.6298 -0.3574
  524TIP3   OH222986   0.609   6.271   2.285  0.0717  0.0014 -0.2802
  524TIP3    H122987   0.563   6.205   2.235 -0.6317  1.0286 -1.0101
  524TIP3    H222988   0.701   6.258   2.263 -0.0457 -0.8483 -0.2753
  525TIP3   OH222989   0.546   5.071  15.144 -0.8619  0.2318 -0.0537
  525TIP3    H122990   0.578   5.078  15.054  3.9446 -0.3218  1.5000
  525TIP3    H222991   0.522   4.979  15.154 -0.1160  0.0039 -0.3533
  526TIP3   OH222992   4.730   4.292   6.239 -0.1498 -0.0637  0.2006
  526TIP3    H122993   4.699   4.323   6.324 -2.6454 -0.8210 -0.3970
  526TIP3    H222994   4.669   4.223   6.215  1.1888 -0.6267 -1.7174
  527TIP3   OH222995   5.627   6.168   3.817 -0.3697 -0.5842  0.9276
  527TIP3    H122996   5.682   6.111   3.871 -1.4708 -0.7296  1.9031
  527TIP3    H222997   5.619   6.248   3.868  1.7747  0.7619 -0.7636
  528TIP3   OH222998   5.490   5.426  17.000  0.6679  0.0183  1.0454
  528TIP3    H122999   5.486   5.515  17.037 -0.1836 -0.0633  1.1524
  528TIP3    H223000   5.473   5.438  16.907 -1.8740 -0.2909  1.4440
  529TIP3   OH223001   6.535   2.951   2.423 -0.2123  0.0870 -0.0678
  529TIP3    H123002   6.615   2.986   2.383 -1.1689  0.5442 -1.6672
  529TIP3    H223003   6.524   2.865   2.383 -0.1594 -0.2493  0.6430
  530TIP3   OH223004   3.910   0.536   0.578  0.1673  0.3632 -0.1227
  530TIP3    H123005   3.903   0.449   0.618 -1.3002 -0.4700 -2.1115
  530TIP3    H223006   3.986   0.528   0.519  0.6698  0.7633  0.4637
  531TIP3   OH223007   1.855   4.969   6.471 -0.0938  0.3149  0.1094
  531TIP3    H123008   1.907   5.020   6.534  1.7819  1.8001 -2.5689
  531TIP3    H223009   1.766   5.002   6.483  0.5621  1.9678  0.6778
  532TIP3   OH223010   0.440   6.190   4.838  0.0618  0.1878 -0.1385
  532TIP3    H123011   0.421   6.283   4.838 -2.0727 -0.2247  0.6923
  532TIP3    H223012   0.467   6.171   4.748  1.0195  1.6840 -0.1834
  533TIP3   OH223013   4.170   4.971  12.274 -0.3047  0.2340 -0.0643
  533TIP3    H123014   4.240   5.035  12.264 -0.8751  0.7001 -1.1628
  533TIP3    H223015   4.215   4.887  12.284  0.5236  1.0184  3.4323
  534TIP3   OH223016   1.565   3.745  14.285  0.0392 -0.3802  0.3682
  534TIP3    H123017   1.556   3.841  14.285 -1.8223 -0.5449  0.4947
  534TIP3    H223018   1.628   3.728  14.356  1.2063  0.7989 -0.3468
  535TIP3   OH223019   1.680   4.026  13.991 -0.0716  0.0175 -0.0951
  535TIP3    H123020   1.596   3.987  14.015 -0.0408 -1.5480 -2.3475
  535TIP3    H223021   1.658   4.107  13.944 -0.2852  0.1849  0.2976
  536TIP3   OH223022   4.405   4.071   2.743 -0.1100 -0.3095  0.5615
  536TIP3    H123023   4.459   4.016   2.687 -0.3686 -0.1908  0.1944
  536TIP3    H223024   4.407   4.028   2.829 -0.6224 -1.0958  0.1818
  537TIP3   OH223025   3.044   6.315  14.774  0.1168 -0.2081  0.1510
  537TIP3    H123026   2.977   6.247  14.785  0.6596 -0.5244  1.8075
  537TIP3    H223027   3.113   6.273  14.722  1.1382 -1.5071  2.4217
  538TIP3   OH223028   5.812   5.151  17.209  0.2785  0.0987  0.0887
  538TIP3    H123029   5.837   5.236  17.173  2.4125 -0.4710  0.1116
  538TIP3    H223030   5.738   5.123  17.157  0.8287  1.0889 -1.2422
  539TIP3   OH223031   0.958   6.599   4.050 -0.3342  0.7875  0.3603
  539TIP3    H123032   0.922   6.573   3.965 -1.0507 -1.1276  1.2313
  539TIP3    H223033   0.967   6.694   4.044 -1.1382  0.7617 -1.5636
  540TIP3   OH223034   6.459   4.759  15.985  0.3655  0.4983 -0.2993
  540TIP3    H123035   6.502   4.767  16.070  0.8813 -1.7605 -0.3208
  540TIP3    H223036   6.366   4.753  16.005  0.3003  2.2664 -0.0482
  541TIP3   OH223037   3.804   4.150   3.473  0.0293 -0.0690  0.4120
  541TIP3    H123038   3.807   4.158   3.378 -2.0237  1.2265  0.4431
  541TIP3    H223039   3.894   4.167   3.502  0.7685 -0.9832 -1.3161
  542TIP3   OH223040   5.129   3.686   4.023 -0.3006 -0.0146  0.2670
  542TIP3    H123041   5.061   3.659   4.086 -0.9053 -0.3396 -0.5176
  542TIP3    H223042   5.096   3.656   3.939  0.2909  0.8481 -0.2719
  543TIP3   OH223043   0.139   3.348  10.838 -0.2611  0.4657 -0.1796
  543TIP3    H123044   0.091   3.373  10.917 -1.5648 -1.7629 -0.2150
  543TIP3    H223045   0.119   3.416  10.774 -0.2639  1.5794  0.9953
  544TIP3   OH223046   2.638   3.998   5.592  0.1433  0.0299  0.2626
  544TIP3    H123047   2.599   4.081   5.565 -1.1009 -0.3938  0.7144
  544TIP3    H223048   2.713   4.022   5.646 -0.1463  0.8496  0.3001
  545TIP3   OH223049   0.123   3.228   0.590 -0.3667 -0.4744  0.0338
  545TIP3    H123050   0.049   3.285   0.566 -0.7878 -0.7638  0.6232
  545TIP3    H223051   0.197   3.287   0.599 -0.9181  0.0593  1.1690
  546TIP3   OH223052   0.332   1.811   3.139  0.3763  0.1078  0.4302
  546TIP3    H123053   0.279   1.740   3.175  1.0754 -0.1395  0.9800
  546TIP3    H223054   0.371   1.774   3.060  1.8318 -0.5812  1.4494
  547TIP3   OH223055   0.963   1.967  15.240 -0.0390 -0.3922  0.3624
  547TIP3    H123056   0.898   2.036  15.227 -0.3127 -0.6826  0.2018
  547TIP3    H223057   1.026   1.979  15.168  0.7670  0.6620  1.2137
  548TIP3   OH223058   2.933   0.774  16.380  0.2156 -0.3367  0.2957
  548TIP3    H123059   2.883   0.747  16.457 -1.1507  1.9127  0.2615
  548TIP3    H223060   2.878   0.751  16.306  1.8312 -3.1228 -0.0918
  549TIP3   OH223061   6.096   1.544  10.794  0.5730  0.2733 -0.1161
  549TIP3    H123062   6.181   1.515  10.828  0.3486 -1.0977 -0.7064
  549TIP3    H223063   6.071   1.616  10.852  0.7259 -1.2749  1.9509
  550TIP3   OH223064   4.725   5.029  14.110  0.4886  0.3537  0.0048
  550TIP3    H123065   4.779   5.106  14.128 -0.4747  1.5570 -2.0619
  550TIP3    H223066   4.672   5.054  14.034  1.7138 -3.1074 -2.1311
  551TIP3   OH223067   5.150   0.156   2.367 -0.0598 -0.1158  0.0683
  551TIP3    H123068   5.160   0.240   2.322  2.0026 -0.7129 -0.6148
  551TIP3    H223069   5.159   0.091   2.298 -0.5670 -0.9492  0.7813
  552TIP3   OH223070   2.634   4.772   3.096  0.5794  0.0368 -0.5665
  552TIP3    H123071   2.589   4.807   3.019 -1.9766 -0.1623  0.7712
  552TIP3    H223072   2.589   4.689   3.113  0.4470  0.5580  1.7017
  553TIP3   OH223073   0.875   5.299   4.269  0.1409  0.4960 -0.1046
  553TIP3    H123074   0.897   5.320   4.360 -1.0903  1.5433 -0.0305
  553TIP3    H223075   0.853   5.206   4.271  3.4622 -0.3501  0.0000
  554TIP3   OH223076   3.142   1.605  16.364 -0.0014  0.2417 -0.3012
  554TIP3    H123077   3.066   1.660  16.344 -0.0908 -0.4204 -1.8581
  554TIP3    H223078   3.107   1.516  16.369  0.5840 -0.0050 -0.5282
  555TIP3   OH223079   1.846   1.459   3.069 -0.4083  0.0928  0.2136
  555TIP3    H123080   1.841   1.528   3.003 -2.1037  0.7885  1.0302
  555TIP3    H223081   1.802   1.384   3.028 -0.4916  0.1805  0.1417
  556TIP3   OH223082   5.115   3.454  16.018  0.0901 -0.0046 -0.5034
  556TIP3    H123083   5.197   3.465  15.969 -1.2242 -0.1962 -2.8402
  556TIP3    H223084   5.049   3.499  15.965 -1.5768 -1.0708  0.6056
  557TIP3   OH223085   3.871   2.970   0.996 -0.2087  0.2115 -0.4531
  557TIP3    H123086   3.944   2.950   0.937  0.0646 -0.2949  0.0456
  557TIP3    H223087   3.889   2.917   1.074 -0.1285  1.5075  0.4171
  558TIP3   OH223088   2.423   4.965  11.165 -0.1321 -0.7073 -0.0902
  558TIP3    H123089   2.390   4.992  11.079  1.6063 -1.2511 -0.9585
  558TIP3    H223090   2.518   4.964  11.155  0.0768 -1.2536  1.7131
  559TIP3   OH223091   3.017   0.369  15.199  0.2932 -0.2630  0.5520
  559TIP3    H123092   3.067   0.326  15.129 -0.1892  0.0406  0.0176
  559TIP3    H223093   2.971   0.297  15.243  0.7558 -0.4787  0.6918
  560TIP3   OH223094   1.518   4.170   5.298 -0.0396  0.1707 -0.7085
  560TIP3    H123095   1.457   4.241   5.277 -0.8299 -0.1440  0.4413
  560TIP3    H223096   1.511   4.161   5.393 -0.3929 -1.8559 -0.9195
  561TIP3   OH223097   1.972   0.278  12.813 -0.2743  0.7032 -0.3291
  561TIP3    H123098   1.898   0.334  12.790  0.7400  3.4218  2.6248
  561TIP3    H223099   1.939   0.221  12.882 -0.6847 -0.9404 -1.8304
  562TIP3   OH223100   2.529   0.911  12.523  0.7926 -0.5662 -0.0560
  562TIP3    H123101   2.522   0.994  12.476 -1.2174 -0.8015 -0.2139
  562TIP3    H223102   2.514   0.844  12.456  1.1816 -1.0178  0.3029
  563TIP3   OH223103   4.631   1.322   2.664 -0.0344 -0.8160  0.0279
  563TIP3    H123104   4.662   1.388   2.602 -0.0795 -0.4286  0.4177
  563TIP3    H223105   4.608   1.372   2.743 -0.8951 -1.1861  0.0189
  564TIP3   OH223106   4.721   3.610  14.114  0.1594 -0.1128  0.3446
  564TIP3    H123107   4.743   3.693  14.155 -1.1644 -0.4072  1.6630
  564TIP3    H223108   4.661   3.633  14.043 -1.6971 -0.1143  1.8929
  565TIP3   OH223109   3.610   0.121  11.342 -0.3095  0.0464 -0.1164
  565TIP3    H123110   3.515   0.115  11.334 -0.1508 -2.2500 -0.6809
  565TIP3    H223111   3.634   0.198  11.291 -1.8391  0.5202 -0.1412
  566TIP3   OH223112   3.121   5.397  12.719 -0.3705  0.1926  0.1370
  566TIP3    H123113   3.082   5.333  12.778 -1.2508  2.2080  1.7859
  566TIP3    H223114   3.209   5.364  12.702 -1.3378 -2.2560 -0.3275
  567TIP3   OH223115   1.207   5.400   1.185  0.5403 -0.3150 -0.0426
  567TIP3    H123116   1.182   5.430   1.272 -1.5433  1.9642 -1.3676
  567TIP3    H223117   1.163   5.316   1.174 -1.2853  0.6139  0.1256
  568TIP3   OH223118   6.046   2.166   2.958 -0.2324 -0.7334 -0.1336
  568TIP3    H123119   6.139   2.189   2.963 -0.6096  0.8019  0.2553
  568TIP3    H223120   6.019   2.196   2.871 -0.8253  0.7036  0.5273
  569TIP3   OH223121   2.025   5.686   0.371  0.5438 -0.6933  0.6360
  569TIP3    H123122   1.934   5.716   0.377  0.3610 -1.4095  1.6291
  569TIP3    H223123   2.072   5.741   0.434  0.4058 -1.7205  1.6588
  570TIP3   OH223124   5.805   0.194  15.656 -0.6784 -0.1896 -0.0137
  570TIP3    H123125   5.894   0.221  15.632 -0.4542 -2.2959 -1.5812
  570TIP3    H223126   5.812   0.171  15.749  0.1267  0.8057  0.1870
  571TIP3   OH223127   0.146   0.056   0.730  0.4654 -0.5712  0.3512
  571TIP3    H123128   0.164  -0.022   0.677  2.3219  0.1511 -0.1333
  571TIP3    H223129   0.170   0.031   0.819  0.8714 -0.6044  0.2305
  572TIP3   OH223130   4.904   1.346  12.134 -0.3700 -0.6799 -0.2429
  572TIP3    H123131   4.989   1.361  12.092  0.3765 -0.2659  1.3929
  572TIP3    H223132   4.925   1.306  12.218 -1.7737 -0.0471  0.4229
  573TIP3   OH223133   1.891   2.399  14.777  0.3665  0.1194  0.7835
  573TIP3    H123134   1.925   2.330  14.720  0.5692  1.4427 -0.7499
  573TIP3    H223135   1.942   2.391  14.858  1.8711 -0.1780 -0.1701
  574TIP3   OH223136   3.000   6.722   5.767  0.4066 -0.0291  0.1508
  574TIP3    H123137   3.008   6.779   5.690 -0.0160  0.4991  0.4933
  574TIP3    H223138   2.972   6.781   5.838 -3.5748 -1.2189 -0.3010
  575TIP3   OH223139   2.960   5.586  15.136  0.0530 -0.0480 -0.2211
  575TIP3    H123140   2.886   5.642  15.113  1.1133  1.7534  0.5927
  575TIP3    H223141   2.921   5.507  15.172 -1.5004 -0.2362 -2.2728
  576TIP3   OH223142   3.264   5.387  13.027 -0.1038  0.3619  0.1611
  576TIP3    H123143   3.287   5.295  13.040 -1.1032  0.0410 -0.3399
  576TIP3    H223144   3.210   5.410  13.102  2.4214  1.3311  1.7331
  577TIP3   OH223145   0.079   3.253  13.010  0.3863  0.1746 -0.2759
  577TIP3    H123146   0.071   3.163  12.977  0.5296  0.1935 -0.3662
  577TIP3    H223147   0.061   3.246  13.103 -0.5284  0.2039 -0.4535
  578TIP3   OH223148   5.428   2.617   1.532  0.2491 -0.0927  0.5378
  578TIP3    H123149   5.361   2.683   1.513  2.0535  1.5202 -0.4310
  578TIP3    H223150   5.510   2.655   1.499  1.6907 -1.9302  1.8409
  579TIP3   OH223151   0.537   3.334  15.202 -0.3236  0.4045  0.2541
  579TIP3    H123152   0.519   3.331  15.108 -1.0091  2.9395  0.2634
  579TIP3    H223153   0.453   3.360  15.241  0.0804 -0.1746  1.5366
  580TIP3   OH223154   3.978   4.155  14.171 -0.0368  0.0409  0.4890
  580TIP3    H123155   3.917   4.228  14.183 -0.2770 -0.2379  0.9636
  580TIP3    H223156   3.933   4.096  14.109  0.7276  0.9354 -0.9559
  581TIP3   OH223157   1.345   5.197   0.574  0.2963  0.5221 -0.0688
  581TIP3    H123158   1.416   5.159   0.522 -0.9707  0.1020 -1.5024
  581TIP3    H223159   1.272   5.205   0.514 -1.1541  0.1959  1.6147
  582TIP3   OH223160   5.489   4.759   3.727  0.4404 -0.7072  0.7222
  582TIP3    H123161   5.557   4.713   3.775 -0.6069 -0.8971  2.0299
  582TIP3    H223162   5.436   4.690   3.687  0.6266 -0.5697  0.2300
  583TIP3   OH223163   3.820   5.375   4.054  0.1876 -0.0767 -0.2473
  583TIP3    H123164   3.724   5.371   4.064  0.1365 -0.1893 -0.7893
  583TIP3    H223165   3.836   5.456   4.006  0.3841  0.0611  0.0488
  584TIP3   OH223166   4.626   3.726  15.699 -0.2421 -0.0689 -0.1710
  584TIP3    H123167   4.701   3.733  15.641 -0.4729  1.3205 -0.3257
  584TIP3    H223168   4.570   3.659  15.658  0.9186 -1.1575 -0.0105
  585TIP3   OH223169   6.738   2.903  12.715  0.5904  0.0184 -0.1657
  585TIP3    H123170   6.675   2.971  12.738  1.7405  1.1388 -0.2875
  585TIP3    H223171   6.795   2.896  12.792  0.3190 -1.0071 -0.0438
  586TIP3   OH223172   1.131   3.729  13.199  0.3932 -0.3029  0.2345
  586TIP3    H123173   1.084   3.700  13.278  0.2195  2.8786  1.4124
  586TIP3    H223174   1.221   3.700  13.213 -0.1496 -1.9702  0.3920
  587TIP3   OH223175   6.202   6.498  14.055 -0.0737  0.0381 -0.0580
  587TIP3    H123176   6.172   6.495  14.145  1.7494 -0.4972  0.5487
  587TIP3    H223177   6.169   6.417  14.016  2.6081 -1.7664  1.2869
  588TIP3   OH223178   4.243   6.558  14.314  0.0049  0.3609 -0.5023
  588TIP3    H123179   4.250   6.471  14.275  1.5966  0.7613 -1.1468
  588TIP3    H223180   4.177   6.548  14.383 -0.8862 -0.9931 -1.5282
  589TIP3   OH223181   4.672   1.676   2.750  0.3775 -0.4639 -0.6123
  589TIP3    H123182   4.712   1.621   2.683  0.0762 -1.4340 -0.0042
  589TIP3    H223183   4.694   1.634   2.833 -2.8685 -1.7015 -0.3011
  590TIP3   OH223184   6.525   1.638  11.886  0.1964  0.2139 -0.2513
  590TIP3    H123185   6.612   1.647  11.847  0.0586 -1.1379 -0.9294
  590TIP3    H223186   6.536   1.663  11.977  1.5540 -0.9963 -0.0609
  591TIP3   OH223187   1.791   5.580  14.310  0.2281  0.1501  0.3021
  591TIP3    H123188   1.723   5.518  14.284  1.3385 -0.9518 -0.0095
  591TIP3    H223189   1.744   5.663  14.320 -1.1227 -0.5348 -0.1373
  592TIP3   OH223190   0.989   0.333   3.295 -0.3204 -0.7338  0.2058
  592TIP3    H123191   1.017   0.368   3.380 -0.2876 -0.0816 -0.0705
  592TIP3    H223192   1.070   0.317   3.248 -0.3760  0.1779 -0.2061
  593TIP3   OH223193   2.372   4.856   4.844  0.4633 -0.1226  0.8362
  593TIP3    H123194   2.463   4.833   4.825 -0.3696 -1.4887 -1.6497
  593TIP3    H223195   2.343   4.788   4.906  0.5650 -0.8024  0.1434
  594TIP3   OH223196   3.201   2.330  16.016 -0.2782  0.1578  0.1485
  594TIP3    H123197   3.174   2.387  15.945 -0.7505  0.6166  0.6890
  594TIP3    H223198   3.158   2.366  16.094 -1.3029 -1.4585  0.3524
  595TIP3   OH223199   2.549   5.413   3.018 -0.2182  0.2003 -0.0157
  595TIP3    H123200   2.468   5.387   3.060 -0.0068  0.1407  0.3545
  595TIP3    H223201   2.588   5.477   3.078 -0.4527  0.9365 -0.6416
  596TIP3   OH223202   0.099   5.104   2.239 -0.3244  0.0488  0.3790
  596TIP3    H123203   0.097   5.064   2.152  0.3320  0.0592  0.3614
  596TIP3    H223204   0.028   5.169   2.237 -0.4779 -0.1313 -0.0583
  597TIP3   OH223205   5.964   5.996   1.825 -0.3502 -0.0443  0.2219
  597TIP3    H123206   5.972   5.999   1.920  0.4588  0.7960  0.1420
  597TIP3    H223207   5.881   5.952   1.809 -0.9118  0.5965  1.3271
  598TIP3   OH223208   1.602   3.693  10.863 -0.1472 -0.0468  0.0222
  598TIP3    H123209   1.683   3.730  10.828 -0.0980 -2.7481 -2.9314
  598TIP3    H223210   1.535   3.719  10.799 -0.6017 -2.4553 -0.5221
  599TIP3   OH223211   0.946   5.058  16.050  0.2885  0.3818 -0.4118
  599TIP3    H123212   0.981   5.130  16.102  0.8695  0.8575 -1.4285
  599TIP3    H223213   0.854   5.079  16.038 -0.1758 -0.4124  1.5173
  600TIP3   OH223214   1.008   4.412   2.517  0.3089  0.2596  0.7096
  600TIP3    H123215   1.043   4.403   2.428 -0.3625  0.3429  0.4312
  600TIP3    H223216   0.977   4.503   2.522 -0.4404  0.0089  0.7327
  601TIP3   OH223217   5.600   2.851  16.679  0.1172  0.1269 -0.8123
  601TIP3    H123218   5.663   2.914  16.644  2.3286 -1.0694  0.9361
  601TIP3    H223219   5.570   2.890  16.761  0.9342 -0.7217 -0.0956
  602TIP3   OH223220   4.295   3.312  16.801  0.2190  0.2305 -0.5485
  602TIP3    H123221   4.218   3.256  16.814 -0.0667  0.3378 -1.7115
  602TIP3    H223222   4.354   3.260  16.746  0.5165  0.5523 -0.5366
  603TIP3   OH223223   1.860   2.214  16.498  0.3791 -0.3144  0.0009
  603TIP3    H123224   1.848   2.196  16.404  2.3548  1.4052 -0.6434
  603TIP3    H223225   1.807   2.292  16.514 -1.0554 -1.4026  0.6703
  604TIP3   OH223226   1.176   5.965  12.070 -0.2077  0.3866 -0.3820
  604TIP3    H123227   1.208   6.019  12.143  0.6944 -1.4167  0.5963
  604TIP3    H223228   1.084   5.989  12.061 -0.2206  0.9415  1.0980
  605TIP3   OH223229   2.484   0.194   0.689 -0.7275  0.0113  0.1739
  605TIP3    H123230   2.427   0.142   0.745  1.0827  0.7166  2.7411
  605TIP3    H223231   2.450   0.283   0.695  0.6745  0.4547  1.8017
  606TIP3   OH223232   6.341   2.260  11.049  0.2219  0.0032  0.2338
  606TIP3    H123233   6.249   2.278  11.070  0.2122  0.1137  0.1002
  606TIP3    H223234   6.378   2.227  11.130 -0.2333 -1.2051 -0.0208
  607TIP3   OH223235   6.630   4.797   5.394  0.2381 -0.8734 -0.4306
  607TIP3    H123236   6.619   4.889   5.371  0.5867 -0.7624 -0.1510
  607TIP3    H223237   6.717   4.774   5.361  0.6536 -0.7689  0.5968
  608TIP3   OH223238   5.421   0.399  15.014 -0.8097  0.0068  0.4370
  608TIP3    H123239   5.370   0.459  14.959 -0.0656  1.5809  1.4425
  608TIP3    H223240   5.418   0.438  15.101  2.5023  0.3902  0.4411
  609TIP3   OH223241   1.622   2.865  12.444 -0.1717 -0.1368 -0.0115
  609TIP3    H123242   1.716   2.885  12.446 -0.1700 -0.1306 -0.1497
  609TIP3    H223243   1.594   2.889  12.356  0.3560 -3.0185 -1.0309
  610TIP3   OH223244   4.001   0.030   4.977 -0.1271  0.6035  0.7056
  610TIP3    H123245   4.045  -0.054   4.985  1.0482  0.9580 -1.5821
  610TIP3    H223246   3.998   0.065   5.066 -0.8865 -1.9601  1.7191
  611TIP3   OH223247   5.463   1.552  11.430  0.5846  0.4852  0.4917
  611TIP3    H123248   5.476   1.515  11.517 -0.0351 -0.8184  0.0423
  611TIP3    H223249   5.368   1.559  11.421  0.6547  0.8553  0.0252
  612TIP3   OH223250   0.252   1.909   4.443 -0.6447 -0.0550  0.0780
  612TIP3    H123251   0.191   1.853   4.491 -0.2004 -0.3248  0.3367
  612TIP3    H223252   0.309   1.848   4.396  0.4930  0.1265  1.1625
  613TIP3   OH223253   3.231   1.280  12.191 -0.9261  0.5465  0.1542
  613TIP3    H123254   3.187   1.235  12.263 -2.6985  1.6338 -0.2239
  613TIP3    H223255   3.317   1.238  12.186 -0.9758  0.0740  2.5269
  614TIP3   OH223256   3.329   4.336  13.651 -0.1760 -0.1106  0.4760
  614TIP3    H123257   3.267   4.366  13.584  0.9565  1.3908  0.0734
  614TIP3    H223258   3.346   4.414  13.704  0.9289 -0.6564  0.9463
  615TIP3   OH223259   2.026   4.207  11.137 -0.4611  0.5125 -0.1697
  615TIP3    H123260   2.041   4.193  11.043  1.3141  1.6783 -0.0890
  615TIP3    H223261   2.006   4.300  11.144 -1.7012  0.2124  0.5069
  616TIP3   OH223262   6.491   5.338  16.762  0.3014  0.3507 -0.9771
  616TIP3    H123263   6.576   5.369  16.730  0.8765 -0.9088 -0.6993
  616TIP3    H223264   6.512   5.263  16.817 -0.8622  1.0496  0.4678
  617TIP3   OH223265   2.677   4.186  13.835  0.3128 -0.2924 -0.0674
  617TIP3    H123266   2.637   4.271  13.850  0.2803 -0.2416 -0.4414
  617TIP3    H223267   2.765   4.194  13.871  0.2845 -0.1238 -0.0386
  618TIP3   OH223268   2.217   3.216  16.163  0.3612  0.1868 -0.0218
  618TIP3    H123269   2.208   3.161  16.240 -1.5697  2.1879  1.2460
  618TIP3    H223270   2.190   3.303  16.192  1.4655  1.4029 -2.4580
  619TIP3   OH223271   0.418   4.099  10.204 -0.2761  0.0065  0.2259
  619TIP3    H123272   0.424   4.010  10.169  0.3375 -0.0375  0.4311
  619TIP3    H223273   0.369   4.089  10.285 -0.7725 -0.0477 -0.0784
  620TIP3   OH223274   4.412   2.798   2.481  0.5187 -0.7516 -0.3093
  620TIP3    H123275   4.377   2.826   2.566  0.9101 -0.0619 -0.3719
  620TIP3    H223276   4.490   2.852   2.468 -0.2633  0.0715 -1.7127
  621TIP3   OH223277   5.345   1.914   6.070  0.8136 -0.1143 -0.0778
  621TIP3    H123278   5.363   1.856   6.144 -0.2092  0.5625  0.7188
  621TIP3    H223279   5.265   1.959   6.094 -0.5218 -1.1596 -2.3775
  622TIP3   OH223280   0.026   2.040   2.852  0.2611  0.1612 -0.4797
  622TIP3    H123281   0.117   2.037   2.822 -0.0663  0.4081 -1.5352
  622TIP3    H223282   0.007   2.133   2.862  0.4412  0.0692  0.7524
  623TIP3   OH223283   0.015   3.691  14.842 -0.1182  0.2363 -0.2470
  623TIP3    H123284   0.042   3.604  14.872 -1.0779  0.0915  0.2174
  623TIP3    H223285   0.000   3.740  14.923  0.3321  0.8078 -0.5068
  624TIP3   OH223286   4.923   5.372  16.086  0.2295  0.8989 -0.1903
  624TIP3    H123287   4.984   5.423  16.140 -1.6117  1.7257  1.1614
  624TIP3    H223288   4.837   5.407  16.108 -1.0156 -2.1450  0.0560
  625TIP3   OH223289   2.372   2.912  12.679  0.0428  0.8562 -1.5171
  625TIP3    H123290   2.418   2.855  12.740 -1.3369  1.1470 -0.1887
  625TIP3    H223291   2.349   2.989  12.730 -0.7065  1.3142 -2.5260
  626TIP3   OH223292   4.886   4.747   2.590 -0.3792 -0.0065  0.1056
  626TIP3    H123293   4.846   4.661   2.577  0.4870 -0.6699  1.6995
  626TIP3    H223294   4.952   4.754   2.521  1.6572 -1.9434  1.7508
  627TIP3   OH223295   1.374   1.764   3.084 -0.7359 -0.3120 -0.5270
  627TIP3    H123296   1.337   1.688   3.129 -0.3431  0.4247  1.0641
  627TIP3    H223297   1.309   1.786   3.016 -2.0101 -0.5967  0.5816
  628TIP3   OH223298   4.658   5.391   5.070  0.0944  0.4589  0.3470
  628TIP3    H123299   4.633   5.351   5.153  0.6823 -1.9581 -0.6055
  628TIP3    H223300   4.587   5.367   5.010 -0.9838  3.2526  0.3942
  629TIP3   OH223301   4.305   3.317   3.781  0.1908 -0.1676  0.2500
  629TIP3    H123302   4.226   3.309   3.836  0.5395 -0.6442  0.6900
  629TIP3    H223303   4.374   3.340   3.843  0.6749 -1.1586  0.0802
  630TIP3   OH223304   0.674   1.499   4.594 -0.0073 -0.1900 -0.2007
  630TIP3    H123305   0.596   1.553   4.579 -0.6723 -1.1104 -0.0394
  630TIP3    H223306   0.727   1.550   4.656  0.0251  0.9286 -1.1344
  631TIP3   OH223307   4.273   4.252  15.804  0.8604  0.1754  0.7444
  631TIP3    H123308   4.254   4.345  15.793 -1.2845 -0.1789  1.2633
  631TIP3    H223309   4.369   4.247  15.803  0.9995  2.3467  0.5060
  632TIP3   OH223310   2.946   5.484  11.408 -0.6929 -0.0559 -0.2848
  632TIP3    H123311   2.995   5.565  11.424  0.7404 -0.3544 -2.8061
  632TIP3    H223312   2.891   5.505  11.331 -0.0555 -1.5524 -1.1629
  633TIP3   OH223313   5.272   1.097   2.127 -0.0826  0.7930 -0.0180
  633TIP3    H123314   5.216   1.112   2.051 -1.5073 -0.3314  0.7834
  633TIP3    H223315   5.222   1.132   2.200  0.2912 -0.1507  0.6999
  634TIP3   OH223316   3.718   4.392   4.336  0.1575  0.2224  0.1061
  634TIP3    H123317   3.724   4.416   4.244  0.1705 -2.1973 -0.5816
  634TIP3    H223318   3.795   4.336   4.351  0.2881  0.7872  1.6483
  635TIP3   OH223319   6.216   1.660  15.359 -0.3609 -0.0474  0.1471
  635TIP3    H123320   6.277   1.724  15.395  0.6501 -1.0508  0.2626
  635TIP3    H223321   6.246   1.576  15.395 -0.6222 -0.7891 -1.3318
  636TIP3   OH223322   2.245   0.737   4.283 -0.1172 -1.0846  0.0586
  636TIP3    H123323   2.286   0.657   4.316 -0.8968 -0.4270  2.6961
  636TIP3    H223324   2.157   0.709   4.257  0.6011 -1.6654 -1.8327
  637TIP3   OH223325   4.413   6.289  14.721 -0.0800  0.7884 -0.0185
  637TIP3    H123326   4.487   6.347  14.707 -0.6123  0.8946 -2.6653
  637TIP3    H223327   4.340   6.347  14.743  0.4089  0.7506  1.7300
  638TIP3   OH223328   4.355   4.979   4.636 -0.9534 -0.1110 -0.7244
  638TIP3    H123329   4.432   4.958   4.689 -1.3201  0.3299 -0.0170
  638TIP3    H223330   4.391   5.000   4.550 -0.2300  0.6183 -0.2583
  639TIP3   OH223331   5.704   6.654   4.758  0.6032 -0.4831 -0.4891
  639TIP3    H123332   5.750   6.694   4.683 -1.5346  2.5260 -0.2948
  639TIP3    H223333   5.729   6.708   4.832  0.1517 -1.4760  0.3935
  640TIP3   OH223334   4.855   6.085  11.562 -0.5911  0.1013  0.1761
  640TIP3    H123335   4.805   6.004  11.569 -2.5937  1.2754 -0.0272
  640TIP3    H223336   4.788   6.154  11.557  1.0713  1.8137  0.9463
  641TIP3   OH223337   4.557   2.472  10.720 -0.2522  0.4310 -0.0324
  641TIP3    H123338   4.548   2.424  10.638  2.2592  0.5428 -0.3836
  641TIP3    H223339   4.563   2.404  10.787  2.1351  0.2316 -0.4133
  642TIP3   OH223340   6.767   3.903   3.795  0.1776 -0.4001  0.7536
  642TIP3    H123341   6.769   3.988   3.839 -1.3231  0.0117  0.0504
  642TIP3    H223342   6.742   3.841   3.864 -1.0662  0.0822  0.7529
  643TIP3   OH223343   2.630   0.121   2.757  0.0972 -0.1455  0.4464
  643TIP3    H123344   2.570   0.048   2.765 -1.6257  1.1612 -0.1949
  643TIP3    H223345   2.675   0.124   2.841  0.0501 -1.8104  0.5393
  644TIP3   OH223346   2.449   0.011  12.025 -0.4175  0.3763  0.0071
  644TIP3    H123347   2.452  -0.032  12.110 -0.2625  0.7263  0.1840
  644TIP3    H223348   2.384   0.081  12.035 -0.5054  0.3262 -0.2050
  645TIP3   OH223349   0.989   5.113  13.963 -0.0866  0.6008 -0.0089
  645TIP3    H123350   0.905   5.124  13.919 -0.7940 -0.8587  0.9249
  645TIP3    H223351   1.021   5.029  13.930  1.6265  1.7355 -1.3264
  646TIP3   OH223352   6.266   3.393  15.588 -0.3066  0.8229 -0.1210
  646TIP3    H123353   6.244   3.365  15.677  1.5801 -2.0243 -0.4750
  646TIP3    H223354   6.204   3.347  15.531  0.8030 -0.2308 -0.4992
  647TIP3   OH223355   4.060   2.166   4.663  0.1795 -0.0212 -0.3515
  647TIP3    H123356   4.059   2.188   4.756  0.3272  0.0092 -0.3562
  647TIP3    H223357   3.980   2.205   4.627 -0.9303 -1.7757  0.1631
  648TIP3   OH223358   0.312   3.990   1.661  0.5295 -0.2376  0.6820
  648TIP3    H123359   0.315   4.043   1.740  0.3355 -0.3810  0.7853
  648TIP3    H223360   0.225   3.951   1.661  0.6264 -0.4586  0.5415
  649TIP3   OH223361   2.055   0.543   1.018 -0.4017 -0.0434 -0.1005
  649TIP3    H123362   1.974   0.530   1.067 -1.0894  0.5803 -1.0559
  649TIP3    H223363   2.028   0.591   0.940  1.2783  2.6015  0.8846
  650TIP3   OH223364   4.051   3.665   0.430 -0.7442 -0.3406 -0.1803
  650TIP3    H123365   3.968   3.677   0.384 -0.8923 -2.2035 -0.4356
  650TIP3    H223366   4.036   3.705   0.516 -1.1339  1.3498 -1.0068
  651TIP3   OH223367   6.763   0.389  10.952  0.6208  0.0096 -0.1261
  651TIP3    H123368   6.669   0.389  10.934  0.9307 -0.9847 -1.8918
  651TIP3    H223369   6.801   0.444  10.884  1.5489 -1.5729 -0.9341
  652TIP3   OH223370   1.520   4.792  14.271 -0.1422  0.1638  0.0272
  652TIP3    H123371   1.518   4.808  14.365 -1.1591  1.2843 -0.1795
  652TIP3    H223372   1.531   4.697  14.263  4.6439  0.5045  1.2673
  653TIP3   OH223373   5.753   6.263  13.706  0.0136 -0.9539 -0.3377
  653TIP3    H123374   5.700   6.228  13.777 -1.8344 -0.4978 -1.4574
  653TIP3    H223375   5.778   6.187  13.654 -2.5722 -0.8557 -1.8095
  654TIP3   OH223376   3.576   2.856  14.985  0.3464  0.4318 -0.1644
  654TIP3    H123377   3.518   2.780  14.983  0.2156  0.5060  0.7777
  654TIP3    H223378   3.657   2.823  15.023 -0.1486  1.0616  1.4750
  655TIP3   OH223379   2.336   4.225   2.957 -0.7514  0.0192 -0.3482
  655TIP3    H123380   2.409   4.247   3.015  0.5463 -2.8635 -0.7831
  655TIP3    H223381   2.263   4.207   3.016 -0.1358 -0.4295  0.2877
  656TIP3   OH223382   4.349   2.563  15.728 -0.4151  0.3107  0.4131
  656TIP3    H123383   4.407   2.487  15.716 -0.5006  0.4380 -0.8830
  656TIP3    H223384   4.399   2.637  15.693 -1.2427  0.4702 -0.4607
  657TIP3   OH223385   0.981   3.119  15.737 -0.0635  0.5021 -1.0326
  657TIP3    H123386   0.935   3.040  15.709  1.2144 -0.5988 -0.1140
  657TIP3    H223387   0.965   3.182  15.667 -0.3741 -0.8488 -2.2048
  658TIP3   OH223388   4.161   6.371   1.254 -0.6203  0.2045 -0.0929
  658TIP3    H123389   4.245   6.376   1.301 -2.4481  1.7371  3.2293
  658TIP3    H223390   4.143   6.278   1.246  0.0612 -0.1060  1.7733
  659TIP3   OH223391   2.680   3.744   4.620  0.6340 -0.7015  0.5206
  659TIP3    H123392   2.674   3.653   4.591 -3.9076 -0.7015  1.0061
  659TIP3    H223393   2.684   3.795   4.539 -0.7536 -1.2089  0.1084
  660TIP3   OH223394   2.435   1.753  11.480 -1.6499  0.0297 -0.6687
  660TIP3    H123395   2.415   1.837  11.521  1.2613  1.5013 -2.0882
  660TIP3    H223396   2.426   1.770  11.386 -0.9265 -1.1881 -0.9755
  661TIP3   OH223397   0.762   4.141  11.690  0.2506 -0.4359  0.0928
  661TIP3    H123398   0.763   4.056  11.648 -5.3887 -1.4292  1.5307
  661TIP3    H223399   0.780   4.123  11.783  0.0052  0.0940  0.2474
  662TIP3   OH223400   4.291   3.055   0.319  0.3083  0.0376 -0.0977
  662TIP3    H123401   4.375   3.010   0.327  0.7056  0.9514  1.0838
  662TIP3    H223402   4.301   3.133   0.374 -1.6303 -0.3052  0.7637
  663TIP3   OH223403   3.266   5.852  12.358 -0.1471  0.3769  0.4141
  663TIP3    H123404   3.266   5.802  12.439  1.4437  0.2337  0.3430
  663TIP3    H223405   3.282   5.788  12.290 -1.8706  0.4366 -0.0842
  664TIP3   OH223406   1.988   1.303  16.756  0.3060  0.8174  0.3870
  664TIP3    H123407   1.940   1.324  16.836 -1.0222 -2.3427  0.4928
  664TIP3    H223408   2.025   1.387  16.727  0.0601  2.1707  3.7830
  665TIP3   OH223409   4.348   6.387   4.028  0.1692 -0.0294 -0.5824
  665TIP3    H123410   4.275   6.350   3.977 -0.7728  0.4227  0.4099
  665TIP3    H223411   4.306   6.425   4.104  1.6506 -1.5879  1.0551
  666TIP3   OH223412   0.048   0.957   0.916 -0.0415  0.2624  0.3397
  666TIP3    H123413   0.093   0.988   0.837  0.4172  0.0120  0.4985
  666TIP3    H223414  -0.044   0.950   0.891 -0.1957  1.9924  0.3639
  667TIP3   OH223415   5.440   6.637  12.946 -0.2102 -0.7344  0.3265
  667TIP3    H123416   5.504   6.702  12.977 -0.5729  0.1142 -0.6966
  667TIP3    H223417   5.492   6.557  12.934  1.0928  0.4761 -2.4195
  668TIP3   OH223418   5.305   0.867   3.480  0.2322  0.1618  0.3051
  668TIP3    H123419   5.330   0.776   3.467  1.6636  0.2563  2.2997
  668TIP3    H223420   5.370   0.917   3.430 -0.1321  0.1415 -0.1999
  669TIP3   OH223421   3.863   2.628  10.543  0.0462  0.6271  0.1521
  669TIP3    H123422   3.940   2.669  10.504  0.6393  0.0528  0.7059
  669TIP3    H223423   3.792   2.648  10.482  1.1135 -1.0029 -1.7133
  670TIP3   OH223424   2.002   4.262   3.506  0.1231  0.1568  0.2763
  670TIP3    H123425   2.019   4.173   3.535 -1.4826 -0.5990 -1.0781
  670TIP3    H223426   1.911   4.279   3.530  0.2661  1.2552  0.0873
  671TIP3   OH223427   6.778   5.424   2.898 -0.1007  0.4406 -0.3298
  671TIP3    H123428   6.860   5.393   2.937  0.2506  1.8131  0.0577
  671TIP3    H223429   6.793   5.419   2.804  1.0430  2.1682 -0.2797
  672TIP3   OH223430   0.221   5.863  11.389  0.0957 -0.1905 -0.6220
  672TIP3    H123431   0.166   5.807  11.445  0.5393  0.0407  0.0447
  672TIP3    H223432   0.307   5.820  11.390 -0.3203 -1.0926 -2.4510
  673TIP3   OH223433   3.378   4.557   1.799  0.8726  0.0005 -0.0021
  673TIP3    H123434   3.442   4.542   1.868  1.0156 -1.8962 -0.5106
  673TIP3    H223435   3.425   4.609   1.733  0.9633  1.1647  0.9781
  674TIP3   OH223436   6.420   2.112   1.937  0.6461 -0.0354  0.6770
  674TIP3    H123437   6.408   2.049   1.866 -1.2655 -1.1314  1.9228
  674TIP3    H223438   6.484   2.071   1.995  0.0183 -0.4789  1.0654
  675TIP3   OH223439   4.572   5.440  14.940 -0.3239  0.1755 -0.1233
  675TIP3    H123440   4.518   5.518  14.953  1.8475  1.5813  0.6523
  675TIP3    H223441   4.509   5.372  14.915 -2.2763  2.1164 -0.6986
  676TIP3   OH223442   2.756   4.747   5.277 -0.2492 -0.1170  0.5701
  676TIP3    H123443   2.670   4.774   5.309 -1.1930 -0.5956 -1.5243
  676TIP3    H223444   2.804   4.829   5.266 -1.0163  0.2712  0.1013
  677TIP3   OH223445   0.392   3.343   1.001 -0.0491 -0.6226 -0.9211
  677TIP3    H123446   0.372   3.255   0.968 -2.1203 -0.7693  0.6155
  677TIP3    H223447   0.347   3.348   1.085  1.3332  1.3811 -0.2629
  678TIP3   OH223448   3.427   3.730  16.664  0.2626  0.6061  0.0956
  678TIP3    H123449   3.336   3.756  16.654 -0.1338 -0.6975  0.1699
  678TIP3    H223450   3.455   3.705  16.576 -0.3053 -1.6426  0.5263
  679TIP3   OH223451   0.217   0.747  11.643 -0.1334 -0.2856  0.2275
  679TIP3    H123452   0.196   0.673  11.699 -2.2003 -0.3635 -0.6111
  679TIP3    H223453   0.227   0.710  11.555 -1.0973  0.3910 -0.1819
  680TIP3   OH223454   6.682   4.837  12.115 -0.5457  0.0926  0.7804
  680TIP3    H123455   6.737   4.906  12.152  0.1814 -0.0602 -0.0219
  680TIP3    H223456   6.615   4.822  12.182 -1.3282  2.2959  0.5374
  681TIP3   OH223457   0.969   6.624   3.227 -0.2836 -0.3931  0.0797
  681TIP3    H123458   0.908   6.682   3.181 -1.2097 -2.2790 -1.1870
  681TIP3    H223459   0.923   6.599   3.307 -0.2246  0.0187  0.2373
  682TIP3   OH223460   1.199   1.935   5.654  0.0084  0.1047 -0.5394
  682TIP3    H123461   1.116   1.891   5.638  0.2520  0.0615 -1.7274
  682TIP3    H223462   1.265   1.867   5.643  0.0463 -0.7963  4.0698
  683TIP3   OH223463   1.766   4.463   5.294 -0.2931  0.3543 -0.1094
  683TIP3    H123464   1.762   4.396   5.226 -2.3822  0.4656 -0.1454
  683TIP3    H223465   1.697   4.525   5.270 -1.8565 -0.2066  2.6995
  684TIP3   OH223466   4.940   2.071   4.233 -0.1513 -0.1542  0.1559
  684TIP3    H123467   4.873   2.008   4.207 -1.7636  1.4375  0.2910
  684TIP3    H223468   4.967   2.112   4.151 -0.3281  0.1372  0.2417
  685TIP3   OH223469   0.690   6.159  13.357  0.0740  0.5337 -0.0257
  685TIP3    H123470   0.774   6.124  13.385 -0.1657 -1.9844 -2.2395
  685TIP3    H223471   0.633   6.149  13.433  0.9786 -0.5699  0.5193
  686TIP3   OH223472   1.573   1.467   0.921  0.2104 -0.4383 -0.2313
  686TIP3    H123473   1.507   1.521   0.877 -1.9991 -0.4546  2.8926
  686TIP3    H223474   1.623   1.529   0.975  1.7689 -0.6602 -1.3751
  687TIP3   OH223475   5.669   2.319  13.117  0.1929 -0.2079  0.1457
  687TIP3    H123476   5.710   2.258  13.056 -1.9987 -1.1134 -0.4655
  687TIP3    H223477   5.686   2.281  13.203 -1.1907 -1.7422 -0.2329
  688TIP3   OH223478   1.657   1.124   1.891 -0.3457 -0.2190 -0.2406
  688TIP3    H123479   1.590   1.085   1.835 -0.5511  1.5023 -1.2208
  688TIP3    H223480   1.721   1.161   1.831  2.0370 -2.6718  0.6901
  689TIP3   OH223481   1.032   3.900  15.259  0.5675 -0.1262 -0.1734
  689TIP3    H123482   1.056   3.993  15.260  1.1090 -0.2640 -0.4804
  689TIP3    H223483   0.987   3.888  15.175  1.6841 -0.4378 -0.7415
  690TIP3   OH223484   1.893   1.297   0.041 -0.1742  0.0409 -0.1144
  690TIP3    H123485   1.878   1.263   0.129  0.3461  0.8922  0.3075
  690TIP3    H223486   1.852   1.233  -0.017 -0.8004 -0.3560  0.7616
  691TIP3   OH223487   4.597   3.259  11.683  0.3272  0.4331  0.1711
  691TIP3    H123488   4.579   3.353  11.679  0.6367  0.5221  0.8679
  691TIP3    H223489   4.685   3.253  11.720  0.5667 -0.1094 -0.4988
  692TIP3   OH223490   2.818   1.299   4.225 -0.2958 -0.3576 -0.4385
  692TIP3    H123491   2.767   1.287   4.145 -1.1306  0.2644 -0.0017
  692TIP3    H223492   2.908   1.311   4.194 -0.3936 -1.5049 -1.2027
  693TIP3   OH223493   0.524   4.542  11.559 -0.3954 -0.2845 -0.2237
  693TIP3    H123494   0.601   4.486  11.569 -0.7485 -0.7333  0.0251
  693TIP3    H223495   0.450   4.484  11.577 -0.8329 -0.0386 -1.1648
  694TIP3   OH223496   5.879   4.526   1.897  0.6249 -0.8998 -0.1214
  694TIP3    H123497   5.920   4.503   1.814 -1.4028 -1.8798 -0.8669
  694TIP3    H223498   5.791   4.556   1.873  0.4856  0.0929  1.5572
  695TIP3   OH223499   5.375   6.712   4.011  0.0730  0.4693 -0.1793
  695TIP3    H123500   5.296   6.715   4.065  0.4153 -0.9548  0.4299
  695TIP3    H223501   5.399   6.803   3.999  0.0541  0.8362  2.1960
  696TIP3   OH223502   2.166   1.906   3.467 -0.1611 -0.2995  0.4836
  696TIP3    H123503   2.176   1.813   3.489  0.2509  0.0962  2.0422
  696TIP3    H223504   2.120   1.943   3.542  0.6735  0.9650  0.3887
  697TIP3   OH223505   3.423   4.076  14.216  0.3178 -0.5309 -0.0508
  697TIP3    H123506   3.405   4.033  14.132  0.9771 -2.7337  0.8921
  697TIP3    H223507   3.340   4.116  14.241 -0.4890 -1.8177 -0.6512
  698TIP3   OH223508   3.787   3.338   3.895  0.5244 -0.0062 -0.2277
  698TIP3    H123509   3.871   3.291   3.897  1.1258  1.0343 -0.5639
  698TIP3    H223510   3.758   3.338   3.987 -0.3488 -2.5211 -0.4660
  699TIP3   OH223511   2.216   1.933  14.917 -0.0430  0.4900 -0.7069
  699TIP3    H123512   2.125   1.941  14.890  0.1875 -0.0864 -1.6464
  699TIP3    H223513   2.264   1.994  14.862  0.2737  0.0983 -0.8718
  700TIP3   OH223514   2.934   0.754  12.909  0.6977 -0.6296  1.1483
  700TIP3    H123515   2.884   0.684  12.866  1.5195 -2.3657  2.9173
  700TIP3    H223516   2.871   0.797  12.967  0.4923 -0.7540  1.0161
  701TIP3   OH223517   1.044   5.905   6.128 -0.1090 -0.1133  0.2198
  701TIP3    H123518   1.093   5.840   6.179 -0.6312 -0.0230  0.8470
  701TIP3    H223519   0.965   5.858   6.099 -0.9104  0.4744  1.3992
  702TIP3   OH223520   3.619   5.630   5.838  0.3515  0.3223 -0.2309
  702TIP3    H123521   3.636   5.674   5.921 -0.0100  0.5148 -0.2584
  702TIP3    H223522   3.553   5.684   5.795  0.9719  0.5573 -0.9125
  703TIP3   OH223523   4.860   1.881   5.409 -0.2042  0.7890  0.1345
  703TIP3    H123524   4.870   1.940   5.485 -0.8786 -0.0378  0.8724
  703TIP3    H223525   4.911   1.803   5.433  0.7241  1.0688 -0.8614
  704TIP3   OH223526   1.297   6.258  11.259  0.6900  0.0435  0.0550
  704TIP3    H123527   1.270   6.181  11.209 -1.2013  0.1881  0.8140
  704TIP3    H223528   1.256   6.247  11.345 -0.4614  2.3857 -0.1528
  705TIP3   OH223529   0.225   1.292   0.963  0.4948 -0.0159 -0.3940
  705TIP3    H123530   0.157   1.303   0.896 -0.3857  1.2603  0.6866
  705TIP3    H223531   0.237   1.380   1.000  1.8079 -0.4827  0.3316
  706TIP3   OH223532   1.948   5.983  16.896 -0.3637  0.6854 -0.3626
  706TIP3    H123533   1.909   6.011  16.979 -0.4661 -0.1437 -0.1195
  706TIP3    H223534   1.995   5.902  16.918  0.2557  0.8772 -0.9561
  707TIP3   OH223535   1.910   0.719   5.678 -0.1427  0.3407  0.1233
  707TIP3    H123536   1.822   0.732   5.712 -1.3078 -1.6481 -1.9718
  707TIP3    H223537   1.906   0.748   5.587  2.1013  2.7249  0.7351
  708TIP3   OH223538   3.812   4.218   4.587  0.2336 -0.0581  0.3171
  708TIP3    H123539   3.773   4.241   4.503 -0.8175  1.0371  1.0879
  708TIP3    H223540   3.744   4.239   4.652  2.0481  1.7907  1.6798
  709TIP3   OH223541   1.510   5.373  11.876  0.8517  0.5500  0.3801
  709TIP3    H123542   1.417   5.369  11.897  0.2593  1.8195 -1.8915
  709TIP3    H223543   1.551   5.406  11.956 -0.6931  0.3892  1.2588
  710TIP3   OH223544   4.433   6.733  14.338 -0.1123  0.3681  0.0144
  710TIP3    H123545   4.358   6.677  14.315 -0.2224  0.8759 -0.9001
  710TIP3    H223546   4.476   6.687  14.410 -1.0004 -0.1976  0.1938
  711TIP3   OH223547   1.970   3.905   1.214 -0.0366  0.9892  0.1521
  711TIP3    H123548   2.009   3.831   1.166  1.3285  0.7496  1.6104
  711TIP3    H223549   1.961   3.974   1.148 -0.1039 -0.0247 -0.9207
  712TIP3   OH223550   2.750   1.946   0.549 -0.5650  0.6784  0.0536
  712TIP3    H123551   2.788   1.937   0.461 -0.7236  0.7467 -0.0228
  712TIP3    H223552   2.802   1.887   0.604 -0.3408  0.7817 -0.0467
  713TIP3   OH223553   3.412   6.625   5.500 -0.3440 -0.4191  0.0996
  713TIP3    H123554   3.357   6.634   5.422 -0.0307 -2.2258 -0.3519
  713TIP3    H223555   3.403   6.533   5.525  2.3182 -0.6985  0.1347
  714TIP3   OH223556   6.188   3.993   4.653  0.7731  0.0318  0.5164
  714TIP3    H123557   6.120   4.053   4.624  0.5491 -0.6511 -0.4091
  714TIP3    H223558   6.183   3.919   4.592  0.6735 -1.1832  1.9499
  715TIP3   OH223559   0.728   0.490  11.771 -0.1795  0.2124  0.2142
  715TIP3    H123560   0.764   0.522  11.854 -0.2046 -0.0638  0.3312
  715TIP3    H223561   0.752   0.558  11.707 -0.4152  0.5658  0.5007
  716TIP3   OH223562   0.586   2.963  13.249 -0.4353 -0.0143 -0.0701
  716TIP3    H123563   0.650   3.007  13.304 -0.0435 -1.0645  0.3274
  716TIP3    H223564   0.533   3.034  13.212  0.8835  0.8646 -0.3282
  717TIP3   OH223565   0.284   3.933   2.158 -0.4394 -0.0822 -0.7516
  717TIP3    H123566   0.300   3.946   2.251  0.4190  1.2845 -1.0749
  717TIP3    H223567   0.228   3.856   2.154 -1.2550  0.3904  0.9501
  718TIP3   OH223568   5.211   4.840   3.510  0.0622 -0.0706  0.0367
  718TIP3    H123569   5.274   4.859   3.580  1.3671  2.1506 -1.6776
  718TIP3    H223570   5.150   4.914   3.511 -0.3316 -0.3741 -0.7076
  719TIP3   OH223571   2.478   2.272   5.964 -0.2404 -0.4886  0.2765
  719TIP3    H123572   2.474   2.236   5.875 -0.1947 -2.0022  0.8820
  719TIP3    H223573   2.488   2.196   6.021 -0.9749  0.4177  1.6433
  720TIP3   OH223574   1.283   3.644  11.997  0.6381  0.0149  0.6635
  720TIP3    H123575   1.239   3.559  11.991  0.8714 -0.0684  0.0994
  720TIP3    H223576   1.364   3.633  11.947  0.8817  0.4381  0.9568
  721TIP3   OH223577   4.844   6.075  10.878  0.2863 -0.4348 -0.0889
  721TIP3    H123578   4.831   5.980  10.870  1.7982 -0.5519 -1.4062
  721TIP3    H223579   4.933   6.090  10.845  1.3020  1.0530  3.1214
  722TIP3   OH223580   2.301   4.924  15.961 -0.2684  0.6299 -0.0383
  722TIP3    H123581   2.320   4.853  16.022 -0.5047  0.5728 -0.0333
  722TIP3    H223582   2.303   4.883  15.875  0.3075  0.7583 -0.0888
  723TIP3   OH223583   4.145   1.926  14.270 -0.2027  0.5439  0.1651
  723TIP3    H123584   4.070   1.910  14.327 -0.9933 -0.2002 -1.0624
  723TIP3    H223585   4.215   1.873  14.306 -1.1387 -1.1253 -0.4403
  724TIP3   OH223586   4.686   4.079   1.032  0.4882 -0.2884 -0.3767
  724TIP3    H123587   4.642   4.110   1.111  0.1048  2.6364 -1.6654
  724TIP3    H223588   4.615   4.054   0.973  0.7776 -2.6134  0.2347
  725TIP3   OH223589   5.370   5.919   0.982  0.6443  0.0083  0.6834
  725TIP3    H123590   5.444   5.858   0.977 -0.3290 -1.4501  3.0957
  725TIP3    H223591   5.293   5.862   0.978 -0.3482  1.4401 -0.9086
  726TIP3   OH223592   5.778   6.522  16.295  0.2384 -0.4108 -0.1118
  726TIP3    H123593   5.703   6.506  16.352  0.6325  1.7651  1.0720
  726TIP3    H223594   5.777   6.616  16.280  1.2472 -0.6995 -2.1954
  727TIP3   OH223595   5.251   1.685   0.537 -0.5206 -0.5262 -0.6448
  727TIP3    H123596   5.255   1.710   0.445  0.7983  1.4084 -0.0971
  727TIP3    H223597   5.159   1.697   0.561 -1.1054 -2.1658 -1.9755
  728TIP3   OH223598   2.884   1.761  13.699  0.3429  0.5649  0.1639
  728TIP3    H123599   2.974   1.790  13.713  0.3200  0.4670  0.5161
  728TIP3    H223600   2.840   1.838  13.663  0.3167  0.9210  0.9648
  729TIP3   OH223601   0.506   0.979   0.604  0.6351 -0.3118  0.0263
  729TIP3    H123602   0.475   0.895   0.637  0.5488 -0.3282 -0.0973
  729TIP3    H223603   0.521   0.964   0.510  3.3977 -1.0364  0.5211
  730TIP3   OH223604   6.247   3.752   5.193 -0.3590 -0.2992 -0.7626
  730TIP3    H123605   6.188   3.820   5.225 -0.0627 -0.1139 -0.6072
  730TIP3    H223606   6.334   3.793   5.196 -0.3785 -0.1474 -2.1614
  731TIP3   OH223607   6.097   4.521  12.035 -0.0322 -0.0536 -0.1816
  731TIP3    H123608   6.171   4.573  12.003 -1.2230  0.9225 -1.4322
  731TIP3    H223609   6.019   4.569  12.005 -1.1649 -2.2999 -0.9241
  732TIP3   OH223610   5.460   2.352   6.866 -0.2636  0.5617 -0.2257
  732TIP3    H123611   5.372   2.315   6.863 -0.2712  0.5012  0.5862
  732TIP3    H223612   5.515   2.283   6.904  0.0803  0.6969 -0.4733
  733TIP3   OH223613   1.441   1.257   5.643 -0.0834 -0.5248  1.2644
  733TIP3    H123614   1.448   1.169   5.606  2.0397 -0.0331  0.4468
  733TIP3    H223615   1.457   1.315   5.568 -0.8995  0.5528  1.9132
  734TIP3   OH223616   4.790   3.971  12.471  0.2846 -0.5567  0.0354
  734TIP3    H123617   4.730   4.003  12.404 -0.1747  1.3011  1.2880
  734TIP3    H223618   4.777   3.876  12.471 -1.3795 -0.3565 -0.9347
  735TIP3   OH223619   0.892   4.800   3.655 -0.2320  0.0388 -0.6184
  735TIP3    H123620   0.874   4.723   3.709  1.3428  0.1287  0.0733
  735TIP3    H223621   0.818   4.858   3.668 -0.0159 -0.0769  1.2097
  736TIP3   OH223622   6.015   0.328   1.179  0.3988 -0.2726  0.2201
  736TIP3    H123623   6.010   0.259   1.244 -0.9984 -0.1683  0.2439
  736TIP3    H223624   6.006   0.409   1.229 -1.5960 -0.2258 -0.1684
  737TIP3   OH223625   4.056   0.861   2.046 -0.4918  0.4107 -0.7530
  737TIP3    H123626   4.089   0.771   2.047  1.3201  1.0683 -0.2692
  737TIP3    H223627   4.018   0.873   2.134 -0.4560  0.2249 -0.7121
  738TIP3   OH223628   0.938   3.803   4.766 -0.8301 -0.6907 -0.1936
  738TIP3    H123629   0.966   3.750   4.841  1.1039 -0.6359 -0.8426
  738TIP3    H223630   0.865   3.754   4.727 -0.3968 -1.8313  0.4191
  739TIP3   OH223631   1.820   0.329   2.668  0.1821 -0.4822 -0.4033
  739TIP3    H123632   1.897   0.357   2.619  0.8212 -0.2755  0.6908
  739TIP3    H223633   1.852   0.319   2.758 -1.4290  1.1643  0.3817
  740TIP3   OH223634   0.161   5.652  11.952  0.0262 -0.4523  0.0016
  740TIP3    H123635   0.219   5.671  12.025 -0.1767 -0.9439  0.2888
  740TIP3    H223636   0.214   5.669  11.874 -0.0720  1.1029  0.2404
  741TIP3   OH223637   1.448   0.517  11.756  0.0996 -0.1420 -0.0349
  741TIP3    H123638   1.445   0.488  11.847  0.8187  0.5692  0.2189
  741TIP3    H223639   1.386   0.459  11.710 -0.4030 -0.3764  0.9331
  742TIP3   OH223640   4.500   2.358   1.360 -0.4821 -0.1656  0.8650
  742TIP3    H123641   4.538   2.271   1.351  0.1823  0.3437 -1.5608
  742TIP3    H223642   4.571   2.418   1.335 -1.7774  0.9327 -0.2723
  743TIP3   OH223643   4.096   3.444   2.433 -0.7078  0.0541 -0.2136
  743TIP3    H123644   4.101   3.407   2.345  1.4047 -0.8839  0.2763
  743TIP3    H223645   4.164   3.511   2.435 -1.1713  0.5074  0.5071
  744TIP3   OH223646   0.886   0.144  15.354  0.3772 -0.0659  0.0749
  744TIP3    H123647   0.978   0.167  15.342  0.1696  1.2241  0.9078
  744TIP3    H223648   0.870   0.158  15.448  0.0256 -2.8510  0.4784
  745TIP3   OH223649   5.842   3.289   2.064 -0.6124  0.0218  0.5409
  745TIP3    H123650   5.813   3.352   1.999  1.7624 -0.2461 -0.7979
  745TIP3    H223651   5.788   3.308   2.141 -1.6736  2.0055 -0.6607
  746TIP3   OH223652   3.656   4.279  14.889 -0.0016 -0.0917 -0.3093
  746TIP3    H123653   3.707   4.279  14.970 -0.0555  2.1950 -0.2552
  746TIP3    H223654   3.720   4.285  14.819  0.0077 -1.4772 -0.4439
  747TIP3   OH223655   1.767   4.540   6.710  0.0159  0.5606  0.1205
  747TIP3    H123656   1.756   4.462   6.655  2.7897  1.5465 -1.9682
  747TIP3    H223657   1.784   4.611   6.648 -1.1305  2.5822  2.0633
  748TIP3   OH223658   6.583   5.045   5.303 -0.5787  0.2346  0.1149
  748TIP3    H123659   6.546   5.118   5.354 -2.6705  0.4422 -1.6060
  748TIP3    H223660   6.572   5.072   5.212 -0.1909 -1.6838 -0.5250
  749TIP3   OH223661   3.295   2.750  12.386  0.1556  0.0821  0.1454
  749TIP3    H123662   3.225   2.716  12.441 -0.5220 -0.4993 -1.0571
  749TIP3    H223663   3.252   2.812  12.328  0.7031  0.0128 -0.3344
  750TIP3   OH223664   4.684   6.047   2.536 -0.0158 -0.0272  0.2154
  750TIP3    H123665   4.658   6.087   2.453  0.6598 -0.8131 -0.3820
  750TIP3    H223666   4.768   6.088   2.558  0.6411 -1.0578 -0.3616
  751TIP3   OH223667   1.653   5.146   2.694 -0.0604 -0.5401 -0.2435
  751TIP3    H123668   1.640   5.186   2.779  0.0110  0.0501 -0.5108
  751TIP3    H223669   1.705   5.209   2.645 -0.2502 -0.8019 -0.7868
  752TIP3   OH223670   2.774   0.112  11.372 -0.8288 -0.7286 -0.6745
  752TIP3    H123671   2.738   0.043  11.316 -1.1531 -1.6884  0.6855
  752TIP3    H223672   2.777   0.073  11.459 -0.7392  0.8853  0.0660
  753TIP3   OH223673   1.148   1.805  13.682 -0.0666  0.2042 -0.2909
  753TIP3    H123674   1.238   1.808  13.714 -0.9212 -1.1362  2.3939
  753TIP3    H223675   1.113   1.723  13.717 -2.4903  0.9552 -0.8607
  754TIP3   OH223676   0.603   3.606  11.462  0.3915  0.0335 -0.2992
  754TIP3    H123677   0.692   3.637  11.442  0.0028  0.6526 -1.0993
  754TIP3    H223678   0.606   3.586  11.556  0.4839  3.2055  0.4482
  755TIP3   OH223679   5.478   3.594   4.934  0.1926  0.6380  0.6373
  755TIP3    H123680   5.528   3.643   4.869 -0.4557 -1.5107 -1.5474
  755TIP3    H223681   5.539   3.530   4.969  0.3573  1.3599  1.6893
  756TIP3   OH223682   6.207   5.951  16.379  0.8864  0.4610 -0.0087
  756TIP3    H123683   6.119   5.967  16.344  1.1047 -0.6538 -1.0924
  756TIP3    H223684   6.202   5.978  16.471 -1.2317 -1.7961  0.5661
  757TIP3   OH223685   2.850   3.290   1.146 -0.4385  0.7166 -0.0355
  757TIP3    H123686   2.879   3.372   1.187  2.3186 -0.0786 -0.3253
  757TIP3    H223687   2.802   3.245   1.215  0.5104  1.2975  1.0377
  758TIP3   OH223688   1.996   6.410  15.314 -0.1487 -0.3652  0.0529
  758TIP3    H123689   2.027   6.500  15.307 -0.3195 -0.1851  1.5531
  758TIP3    H223690   2.002   6.389  15.407  0.4076 -2.0968 -0.3517
  759TIP3   OH223691   5.064   2.770   4.018 -0.1441 -0.2824  0.1466
  759TIP3    H123692   5.086   2.685   4.056 -1.3182 -2.0228 -2.8705
  759TIP3    H223693   4.978   2.792   4.055 -0.5427 -1.1865 -0.2234
  760TIP3   OH223694   1.600   1.002  14.365 -0.5967 -0.4048  0.1795
  760TIP3    H123695   1.560   0.917  14.345 -1.6343 -0.1699  1.1644
  760TIP3    H223696   1.585   1.013  14.459  2.0060 -0.3886  0.6106
  761TIP3   OH223697   1.240   5.789  15.586  0.1246  0.3293  0.3635
  761TIP3    H123698   1.219   5.697  15.570 -0.9818  0.6453  0.0165
  761TIP3    H223699   1.201   5.808  15.671 -0.3805  0.7203  0.0427
  762TIP3   OH223700   4.934   2.269  11.847  0.1831  0.0356 -0.4304
  762TIP3    H123701   4.883   2.347  11.870  0.8853  0.3242  0.1633
  762TIP3    H223702   5.015   2.304  11.808  0.4962 -0.3936 -0.1739
  763TIP3   OH223703   4.696   6.336   1.826 -0.7659 -0.3996  0.4382
  763TIP3    H123704   4.718   6.389   1.750  0.6348 -1.6271 -0.0346
  763TIP3    H223705   4.615   6.375   1.860 -1.7129 -0.1639 -1.9662
  764TIP3   OH223706   6.543   0.854  13.405 -0.2266  0.0404 -0.5489
  764TIP3    H123707   6.490   0.775  13.404 -0.7511  0.3953 -1.6664
  764TIP3    H223708   6.480   0.926  13.411  0.3220  0.3389  2.5298
  765TIP3   OH223709   0.361   0.672   4.872  0.1456 -0.2783 -0.0546
  765TIP3    H123710   0.447   0.677   4.830  0.0859 -0.5140 -0.2127
  765TIP3    H223711   0.303   0.640   4.802 -0.0949  0.0114  0.0136
  766TIP3   OH223712   4.968   5.035   5.193 -0.2594  0.2536  0.5985
  766TIP3    H123713   4.996   5.100   5.129  1.8139 -0.2859  0.9394
  766TIP3    H223714   4.984   5.075   5.278  1.7187 -0.9524  0.8202
  767TIP3   OH223715   1.102   0.019   5.463  0.0343 -0.2579 -0.5076
  767TIP3    H123716   1.022   0.072   5.453 -0.0507 -0.1433  0.7041
  767TIP3    H223717   1.124  -0.007   5.373 -1.9213 -1.1283 -0.7634
  768TIP3   OH223718   5.884   6.705   3.287 -0.0201  0.4654 -0.3745
  768TIP3    H123719   5.832   6.736   3.360 -0.4287  0.1287 -0.5210
  768TIP3    H223720   5.955   6.769   3.279  0.2913  0.2569  0.6067
  769TIP3   OH223721   0.746   5.449  15.260  0.5504  0.1698  0.3425
  769TIP3    H123722   0.825   5.396  15.270  1.0761  0.9161  0.1766
  769TIP3    H223723   0.733   5.490  15.346 -0.0993 -0.5507  0.5983
  770TIP3   OH223724   5.240   3.289  13.715 -0.1406  0.1173 -1.1733
  770TIP3    H123725   5.323   3.286  13.667 -0.3277  1.2668 -1.5840
  770TIP3    H223726   5.258   3.346  13.790 -0.3003 -0.3982 -0.7381
  771TIP3   OH223727   6.695   1.272  14.930 -0.3519  0.1765  0.1197
  771TIP3    H123728   6.713   1.315  14.847 -3.0167  2.3425  0.6036
  771TIP3    H223729   6.777   1.278  14.979  0.4101  1.3678 -1.2771
  772TIP3   OH223730   2.083   1.807  11.476 -0.2253  0.7038 -0.1957
  772TIP3    H123731   2.019   1.870  11.508  0.0539  0.2144  1.3576
  772TIP3    H223732   2.160   1.821  11.530 -0.1611 -0.9633  0.1703
  773TIP3   OH223733   5.202   6.758  15.202  0.4335  0.0153  0.3008
  773TIP3    H123734   5.227   6.850  15.192 -0.1995  0.1060 -0.4731
  773TIP3    H223735   5.199   6.744  15.296 -1.9766  1.4824  0.4885
  774TIP3   OH223736   1.625   4.822   4.208  0.4224 -1.0714  0.7309
  774TIP3    H123737   1.546   4.877   4.205  1.1391 -0.0724 -0.2213
  774TIP3    H223738   1.668   4.846   4.290  0.8823  0.0277  0.1839
  775TIP3   OH223739   6.000   5.620  12.460 -0.0864  0.2748 -0.2476
  775TIP3    H123740   6.049   5.541  12.485  1.3681  1.5483  1.0860
  775TIP3    H223741   5.996   5.617  12.365 -1.0328 -1.9745 -0.1539
  776TIP3   OH223742   5.236   5.515  15.939  0.0751 -0.0919  0.6151
  776TIP3    H123743   5.233   5.513  16.035  1.7307  1.1085  0.7148
  776TIP3    H223744   5.147   5.538  15.912  0.1020  1.6962  1.9512
  777TIP3   OH223745   2.457   0.947  10.451 -0.2490  0.0451 -0.5366
  777TIP3    H123746   2.526   0.910  10.395 -1.4817 -1.7818 -0.8795
  777TIP3    H223747   2.503   1.013  10.504  1.7832 -1.1466 -0.7376
  778TIP3   OH223748   3.640   5.542  10.923  0.0960 -0.1248  0.6136
  778TIP3    H123749   3.560   5.555  10.975  0.3066  3.4255  0.2112
  778TIP3    H223750   3.711   5.570  10.980  0.5720  1.2379 -0.5961
  779TIP3   OH223751   5.036   6.009   1.949  0.2640  0.4192  0.1199
  779TIP3    H123752   4.954   6.058   1.940  0.4089  0.8289  1.0134
  779TIP3    H223753   5.103   6.070   1.920  0.2941  0.2147 -0.2439
  780TIP3   OH223754   0.511   5.386   5.973 -0.4006 -0.2214  0.4055
  780TIP3    H123755   0.494   5.298   6.007 -1.4473  0.2792  1.2230
  780TIP3    H223756   0.584   5.418   6.026  0.1450 -0.6789 -0.0578
  781TIP3   OH223757   2.365   0.666  11.189  0.2822  0.3155  0.1550
  781TIP3    H123758   2.334   0.576  11.182  1.0908  0.0834 -0.4954
  781TIP3    H223759   2.310   0.715  11.128 -0.4527  0.3437  0.8360
  782TIP3   OH223760   3.562   3.243   4.421  0.4685 -0.2996 -0.2911
  782TIP3    H123761   3.483   3.228   4.370 -1.1669 -1.4024  2.4306
  782TIP3    H223762   3.610   3.161   4.417  1.2670  0.2096 -1.5288
  783TIP3   OH223763   3.070   4.469  15.096  0.0861  0.1641 -0.0832
  783TIP3    H123764   3.040   4.380  15.113  0.5800  0.0410  0.1433
  783TIP3    H223765   3.162   4.459  15.071  0.2557  0.6473  0.3442
  784TIP3   OH223766   6.443   1.009   3.625  0.3192 -0.1720 -0.4716
  784TIP3    H123767   6.538   1.003   3.638  0.4963  3.6967  0.8090
  784TIP3    H223768   6.406   0.952   3.693  1.7024  1.6520  1.8810
  785TIP3   OH223769   0.837   5.341   2.807 -0.7625  0.4101  0.2455
  785TIP3    H123770   0.748   5.320   2.835 -1.1149 -0.1843 -1.2342
  785TIP3    H223771   0.844   5.301   2.720  0.1492  2.4305 -0.6533
  786TIP3   OH223772   0.976   0.106   6.179 -0.3362 -0.0099  0.3462
  786TIP3    H123773   0.957   0.063   6.263 -1.7966  1.3032  0.7004
  786TIP3    H223774   0.904   0.167   6.166  1.4273  2.0076 -0.3861
  787TIP3   OH223775   2.349   1.147   4.165 -0.0180  0.2085  0.0267
  787TIP3    H123776   2.374   1.089   4.237  0.2195 -0.6609 -0.7482
  787TIP3    H223777   2.408   1.222   4.172 -0.8417  0.7514  1.5145
  788TIP3   OH223778   1.387   2.473   5.666  0.3660 -0.1896 -0.4792
  788TIP3    H123779   1.363   2.402   5.606 -1.8564  0.6929 -0.6963
  788TIP3    H223780   1.399   2.549   5.609  1.9898 -0.1939 -0.1702
  789TIP3   OH223781   1.587   3.928  16.024  0.0389  0.7288  0.0835
  789TIP3    H123782   1.539   4.010  16.012 -0.9248  0.4327  1.6926
  789TIP3    H223783   1.548   3.868  15.960  0.0776  1.2526 -0.4305
  790TIP3   OH223784   5.367   1.294   3.263 -0.4523 -0.8649  0.1488
  790TIP3    H123785   5.295   1.230   3.258 -0.2745 -1.0784  0.2988
  790TIP3    H223786   5.401   1.285   3.352 -0.3441 -0.6512  0.1282
  791TIP3   OH223787   1.217   0.625   3.994 -0.0361  0.7212  0.5007
  791TIP3    H123788   1.259   0.579   4.067 -0.0613  0.6688  0.4815
  791TIP3    H223789   1.198   0.713   4.029 -1.2552  0.2720  0.9819
  792TIP3   OH223790   0.559   0.495   3.138 -0.1221  0.1984 -0.0794
  792TIP3    H123791   0.557   0.579   3.091  0.6663 -0.9543 -2.2187
  792TIP3    H223792   0.641   0.454   3.112  0.4477 -0.4327  2.4954
  793TIP3   OH223793   1.431   5.031  16.226 -0.5811 -0.2449 -0.0010
  793TIP3    H123794   1.390   4.947  16.205 -0.0082 -0.6105  0.3444
  793TIP3    H223795   1.358   5.088  16.248 -1.0935 -0.2700 -1.5209
  794TIP3   OH223796   2.243   6.448   2.043  0.4116 -0.5729 -0.5587
  794TIP3    H123797   2.324   6.482   2.005  0.7240 -0.1601  0.4391
  794TIP3    H223798   2.261   6.445   2.137 -0.3935 -1.4137 -0.4253
  795TIP3   OH223799   5.513   3.555   2.594  0.0111 -0.1794 -0.3645
  795TIP3    H123800   5.538   3.464   2.581  2.8331  0.4822  0.0943
  795TIP3    H223801   5.511   3.567   2.689  1.7800  0.7686 -0.4278
  796TIP3   OH223802   4.562   0.505  14.459 -0.9033 -0.3240 -0.2138
  796TIP3    H123803   4.610   0.471  14.383  0.8072 -0.9200  1.0943
  796TIP3    H223804   4.544   0.427  14.512 -3.3183 -0.1045 -0.6281
  797TIP3   OH223805   6.714   2.645   4.583 -0.0914  0.2075 -0.5734
  797TIP3    H123806   6.708   2.595   4.501 -1.5472  2.2789 -1.7750
  797TIP3    H223807   6.695   2.735   4.557  3.0192  1.5057  1.4548
  798TIP3   OH223808   4.126   4.456   3.108 -0.3225 -0.4733  0.1539
  798TIP3    H123809   4.162   4.368   3.098  0.0526 -0.6809  2.9231
  798TIP3    H223810   4.198   4.514   3.084 -0.2327 -0.8946 -0.6301
  799TIP3   OH223811   2.116   2.254  16.022 -0.0068 -0.5765  0.1046
  799TIP3    H123812   2.104   2.165  15.988 -0.3681  0.6328 -3.2025
  799TIP3    H223813   2.102   2.310  15.945  1.0852  2.2845  1.9213
  800TIP3   OH223814   6.109   5.749   3.224  0.2424 -1.1563 -0.3436
  800TIP3    H123815   6.069   5.683   3.167 -1.9879  0.5989 -0.8720
  800TIP3    H223816   6.035   5.789   3.269  1.6192  0.6243  0.3836
  801TIP3   OH223817   3.855   6.299   3.374  0.4662  0.3059  0.6565
  801TIP3    H123818   3.828   6.210   3.396 -0.6299  0.6277  0.6334
  801TIP3    H223819   3.853   6.346   3.458 -2.1247  1.1159  0.1941
  802TIP3   OH223820   4.860   4.880  10.647  0.6458  0.3738  0.7521
  802TIP3    H123821   4.950   4.911  10.659  1.3219 -1.9178  1.8649
  802TIP3    H223822   4.815   4.954  10.607  3.0893  1.4752 -0.0759
  803TIP3   OH223823   6.133   3.737   3.613  0.5781  0.8274 -0.0316
  803TIP3    H123824   6.090   3.822   3.603  1.4580  1.1774 -0.8195
  803TIP3    H223825   6.065   3.680   3.649 -0.1111  1.7754  0.1701
  804TIP3   OH223826   3.972   2.439  10.741  0.3282 -0.2468 -0.1070
  804TIP3    H123827   3.920   2.498  10.686  1.8497 -0.2846 -1.6129
  804TIP3    H223828   3.913   2.365  10.758 -0.1513 -0.2791 -1.7744
  805TIP3   OH223829   3.554   0.734   1.747 -0.2476 -0.2307  0.2524
  805TIP3    H123830   3.599   0.694   1.673 -0.5210  0.6714 -0.4067
  805TIP3    H223831   3.580   0.826   1.745  1.2802 -0.5717  2.4428
  806TIP3   OH223832   6.151   2.657  14.667  0.3407  0.4926  0.6702
  806TIP3    H123833   6.206   2.626  14.739  0.5426  1.9597  1.1656
  806TIP3    H223834   6.213   2.680  14.598  0.2726  0.9111  0.7459
  807TIP3   OH223835   6.319   2.934   5.302 -0.2820 -0.0845  0.2497
  807TIP3    H123836   6.365   2.868   5.352  1.0929  1.2868  0.8456
  807TIP3    H223837   6.331   3.015   5.352 -1.3706  0.7438 -0.7864
  808TIP3   OH223838   4.640   5.808   1.029  0.8565 -0.4010  0.0149
  808TIP3    H123839   4.592   5.860   0.964 -0.2561  0.1075  1.2262
  808TIP3    H223840   4.576   5.792   1.099  2.6193  0.8242  1.9595
  809TIP3   OH223841   0.329   5.791   4.944  0.1431 -0.3384 -0.3510
  809TIP3    H123842   0.379   5.717   4.978 -1.0794 -0.9547  0.1409
  809TIP3    H223843   0.380   5.822   4.869  1.9732 -0.0593  0.9808
  810TIP3   OH223844   1.802   6.551   2.874 -0.2905 -0.4353 -0.5810
  810TIP3    H123845   1.748   6.545   2.953  0.5836 -0.4994  0.0202
  810TIP3    H223846   1.740   6.565   2.803 -0.8955  3.2912  0.5402
  811TIP3   OH223847   6.090   4.504   2.234 -0.1012 -0.8010  0.5065
  811TIP3    H123848   5.996   4.495   2.219  0.2354 -1.8541 -1.1673
  811TIP3    H223849   6.130   4.465   2.156  1.7124  0.4459  0.7876
  812TIP3   OH223850   4.320   3.754   4.165 -0.1701 -0.3699 -0.4277
  812TIP3    H123851   4.278   3.691   4.106 -0.6041  1.9344 -2.6563
  812TIP3    H223852   4.264   3.755   4.242 -1.1872 -1.3140 -1.1323
  813TIP3   OH223853   5.991   5.730  12.867 -0.0746 -0.1165 -0.1743
  813TIP3    H123854   5.925   5.694  12.925 -1.2981  1.0931 -0.7750
  813TIP3    H223855   6.039   5.794  12.921 -1.1014  0.8852 -0.4301
  814TIP3   OH223856   2.409   2.930  11.510  0.4544  0.6379 -0.3860
  814TIP3    H123857   2.334   2.896  11.559  1.0705  0.4335  0.4375
  814TIP3    H223858   2.484   2.884  11.547  1.0351  1.1906 -0.8699
  815TIP3   OH223859   3.920   2.248  11.015  0.1341 -0.8422 -0.1581
  815TIP3    H123860   4.010   2.226  11.037  0.5929 -1.2668 -2.3521
  815TIP3    H223861   3.918   2.344  11.017  0.2927 -0.8496  1.0815
  816TIP3   OH223862   4.988   3.720  11.010  0.0642  0.4984 -0.2342
  816TIP3    H123863   4.917   3.717  10.946  1.6535  0.7432 -2.0761
  816TIP3    H223864   5.060   3.674  10.967  1.0485  0.3122  1.5632
  817TIP3   OH223865   1.443   3.170  12.308  0.6267  0.2858  0.2423
  817TIP3    H123866   1.504   3.230  12.265 -0.5368  0.2609 -1.4983
  817TIP3    H223867   1.361   3.220  12.316  0.0533 -0.6018  0.0327
  818TIP3   OH223868   3.180   4.099  11.410  0.0207  0.4609 -0.0699
  818TIP3    H123869   3.201   4.118  11.501 -0.3540 -0.6362  0.2442
  818TIP3    H223870   3.155   4.007  11.409 -1.2992  0.8149 -1.0443
  819TIP3   OH223871   6.502   3.325  16.551 -0.6994 -0.6127  0.5435
  819TIP3    H123872   6.541   3.247  16.590 -0.9382 -1.2929 -0.5565
  819TIP3    H223873   6.528   3.397  16.609  0.2357 -1.3867  1.0930
  820TIP3   OH223874   0.894   6.242   2.229  0.5147 -0.2133  0.3661
  820TIP3    H123875   0.939   6.250   2.314  0.6078  1.0437  0.2149
  820TIP3    H223876   0.932   6.313   2.176  1.2035 -1.6334 -1.0707
  821TIP3   OH223877   5.513   4.843  10.895  0.5589 -0.4035  0.0186
  821TIP3    H123878   5.516   4.915  10.832 -1.0705 -0.6447 -0.3489
  821TIP3    H223879   5.544   4.767  10.846  2.6867  0.0871  0.5203
  822TIP3   OH223880   0.013   0.974   0.302  0.1261 -0.0033 -0.6544
  822TIP3    H123881  -0.008   0.951   0.393 -1.1204 -0.6452 -1.0876
  822TIP3    H223882   0.098   0.933   0.286 -0.4283 -1.3285 -0.2964
  823TIP3   OH223883   3.651   2.176   5.625  0.3353  0.4934  0.9544
  823TIP3    H123884   3.654   2.157   5.718  1.6745  1.5179  1.1349
  823TIP3    H223885   3.588   2.247   5.618 -0.8171 -0.5199  0.8978
  824TIP3   OH223886   5.452   2.843   3.873  0.4137  0.0109 -0.7047
  824TIP3    H123887   5.369   2.875   3.838 -0.7990 -1.8902  0.3068
  824TIP3    H223888   5.485   2.783   3.806  0.7150  0.4004 -0.9004
  825TIP3   OH223889   5.616   4.982   1.520 -0.7356 -0.1406 -0.3734
  825TIP3    H123890   5.652   4.926   1.589  0.4575 -1.5489 -2.1064
  825TIP3    H223891   5.681   5.052   1.509 -0.3323 -0.6033 -0.9242
  826TIP3   OH223892   5.150   4.200   4.908 -0.4188 -0.0093  0.3602
  826TIP3    H123893   5.159   4.186   4.814  1.2454 -2.0354  0.7932
  826TIP3    H223894   5.108   4.121   4.941 -0.5023  0.4531  1.4063
  827TIP3   OH223895   3.658   2.952  16.882 -0.1341  0.2427  0.4799
  827TIP3    H123896   3.590   2.969  16.817  0.6339  2.6758  0.2502
  827TIP3    H223897   3.725   2.904  16.834  1.2192  3.5050 -1.1088
  828TIP3   OH223898   1.902   3.043  14.012  0.2276 -0.2233 -0.6626
  828TIP3    H123899   1.980   3.069  14.062 -0.3387 -1.4351  0.9186
  828TIP3    H223900   1.858   3.126  13.993  0.5717  0.2876  0.6823
  829TIP3   OH223901   2.741   4.212   0.431  0.5848  0.2910  0.0879
  829TIP3    H123902   2.830   4.245   0.441  0.8338  0.3039 -1.9303
  829TIP3    H223903   2.739   4.174   0.343 -0.5456 -2.3893  1.2014
  830TIP3   OH223904   2.070   0.762  11.306 -0.3168  0.1033  0.1034
  830TIP3    H123905   1.983   0.722  11.306  0.5799 -2.0129 -3.2292
  830TIP3    H223906   2.075   0.810  11.223  2.1506 -0.9182 -0.3693
  831TIP3   OH223907   5.785   2.478  15.262 -0.4318 -0.1179 -0.6348
  831TIP3    H123908   5.821   2.461  15.175 -0.7857  0.9644 -1.0072
  831TIP3    H223909   5.707   2.424  15.268 -1.2543  0.9554 -1.5892
  832TIP3   OH223910   1.213   0.394   1.548 -0.1639  0.4556 -0.7199
  832TIP3    H123911   1.216   0.490   1.538 -1.6696  0.5924 -0.0300
  832TIP3    H223912   1.231   0.361   1.460 -0.5608  1.4008 -1.1708
  833TIP3   OH223913   3.827   6.598  10.176 -0.3796  0.6494 -0.0046
  833TIP3    H123914   3.846   6.546  10.254  1.4632 -0.2814 -1.0594
  833TIP3    H223915   3.891   6.669  10.178  0.2173  0.1381 -1.1324
  834TIP3   OH223916   2.908   6.151   1.067 -0.1936  0.4933 -0.0523
  834TIP3    H123917   2.982   6.152   1.007  0.0757 -0.8952  0.2506
  834TIP3    H223918   2.841   6.204   1.023  0.1849 -0.0846 -1.3539
  835TIP3   OH223919   1.210   3.405   2.756 -0.0154  0.5317  0.2763
  835TIP3    H123920   1.206   3.482   2.812  0.8427  1.0696 -0.3978
  835TIP3    H223921   1.278   3.425   2.691  0.5877 -0.9988  0.4124
  836TIP3   OH223922   4.944   5.892   2.277  0.2740 -0.2025 -0.0764
  836TIP3    H123923   4.886   5.822   2.307 -0.3795  0.6718  0.7428
  836TIP3    H223924   4.894   5.938   2.210  1.2139 -1.3263 -1.5657
  837TIP3   OH223925   4.514   0.269  15.358 -0.3218  0.4056  0.3127
  837TIP3    H123926   4.568   0.245  15.433 -0.6669 -1.5768 -0.0523
  837TIP3    H223927   4.488   0.359  15.376  0.6344  0.3812  1.9544
  838TIP3   OH223928   3.812   2.095  16.718  0.3895 -0.1124  0.7928
  838TIP3    H123929   3.819   2.128  16.807 -0.1388  0.4254  0.6342
  838TIP3    H223930   3.788   2.003  16.728 -0.8431  0.2445  1.1882
  839TIP3   OH223931   6.772   2.228  15.697 -0.4376  0.3290  0.1782
  839TIP3    H123932   6.770   2.305  15.641 -2.3478 -0.7448 -1.2742
  839TIP3    H223933   6.839   2.172  15.658 -1.1104 -0.0129 -0.4898
  840TIP3   OH223934   0.948   4.788   5.021  0.2309  0.1312 -0.0033
  840TIP3    H123935   0.944   4.753   4.932  2.1096  2.1460 -0.9358
  840TIP3    H223936   0.915   4.717   5.076 -0.9161 -1.1722 -2.2806
  841TIP3   OH223937   0.547   2.996   0.303 -0.2063 -0.2188 -0.2752
  841TIP3    H123938   0.635   2.966   0.280  0.9009  0.6015  2.5611
  841TIP3    H223939   0.517   2.934   0.370 -0.1345  1.7380  1.6368
  842TIP3   OH223940   5.107   6.074  15.087  0.5704 -0.2600  0.1840
  842TIP3    H123941   5.048   6.007  15.053  0.7749  0.2527 -1.2110
  842TIP3    H223942   5.082   6.084  15.178 -1.2337 -0.3477 -0.2852
  843TIP3   OH223943   5.051   0.882  16.704 -0.2011  0.6335 -0.7730
  843TIP3    H123944   4.963   0.901  16.737 -0.3492 -0.9260 -0.2521
  843TIP3    H223945   5.039   0.814  16.638  0.8380 -1.1485  0.8441
  844TIP3   OH223946   1.602   2.773   3.578 -0.1559 -0.3534  0.6205
  844TIP3    H123947   1.613   2.853   3.527  1.0195 -0.3403  0.8728
  844TIP3    H223948   1.587   2.705   3.512  2.2232 -0.4899  0.1461
  845TIP3   OH223949   6.236   2.706  15.753  0.1078 -0.4842  0.1421
  845TIP3    H123950   6.300   2.776  15.761 -1.2341  0.6022  1.5997
  845TIP3    H223951   6.188   2.707  15.835 -0.3840 -2.6906 -0.0750
  846TIP3   OH223952   1.570   5.688  16.398 -0.4848  0.3418  0.5539
  846TIP3    H123953   1.547   5.628  16.328 -1.1511  0.5283  0.6068
  846TIP3    H223954   1.595   5.632  16.471 -0.2752  0.1405  0.3276
  847TIP3   OH223955   6.082   0.871  17.097  0.1228  0.0747  0.4657
  847TIP3    H123956   6.026   0.949  17.091  0.3823  0.1724 -0.9888
  847TIP3    H223957   6.113   0.870  17.187  0.0922  1.6542  0.5087
  848TIP3   OH223958   3.323   1.350   3.658  0.0764  0.3614 -0.8018
  848TIP3    H123959   3.290   1.327   3.745 -0.4393  0.0118 -1.0857
  848TIP3    H223960   3.393   1.413   3.675  0.6736 -0.4872 -0.0857
  849TIP3   OH223961   4.121   0.215  11.515  0.1318 -0.3779 -0.2970
  849TIP3    H123962   4.059   0.200  11.586  1.0233 -2.6383  0.0542
  849TIP3    H223963   4.080   0.284  11.462 -0.5841  1.3028  2.3230
  850TIP3   OH223964   4.297   3.758   1.022  0.1356  0.3719 -0.5690
  850TIP3    H123965   4.220   3.812   1.005 -0.2181  0.0977  0.1324
  850TIP3    H223966   4.281   3.678   0.973 -1.2995 -0.7799  1.7156
  851TIP3   OH223967   2.694   2.232  10.560 -0.1675 -0.4860 -0.0863
  851TIP3    H123968   2.619   2.247  10.503 -0.2756 -2.6788 -0.5320
  851TIP3    H223969   2.668   2.159  10.615  1.0538 -0.2491  0.8252
  852TIP3   OH223970   3.333   1.940  11.983 -0.3018  0.2019 -0.3736
  852TIP3    H123971   3.286   1.868  11.942 -0.0112  0.3276 -0.9337
  852TIP3    H223972   3.425   1.913  11.982 -0.2044  0.5309 -0.4882
  853TIP3   OH223973   3.231   3.456  15.085  0.7672  0.3891 -0.2795
  853TIP3    H123974   3.276   3.476  15.167  0.6395  1.2184 -0.4011
  853TIP3    H223975   3.145   3.425  15.111  0.3376  1.6835 -0.1195
  854TIP3   OH223976   2.614   5.995   0.455 -0.0799  0.4261 -0.4490
  854TIP3    H123977   2.585   5.952   0.536  0.1519  0.6428 -0.2477
  854TIP3    H223978   2.558   6.071   0.447  1.5900  1.8585  0.9171
  855TIP3   OH223979   4.010   5.769   0.650 -0.1663 -0.3073 -0.3755
  855TIP3    H123980   3.920   5.738   0.644  0.4416 -1.7980 -2.2497
  855TIP3    H223981   4.032   5.797   0.561  0.7411  1.4618  0.3707
  856TIP3   OH223982   2.573   2.161  12.930 -0.3750  0.1383 -0.0805
  856TIP3    H123983   2.590   2.222  12.859  0.0749 -0.5030 -0.5271
  856TIP3    H223984   2.600   2.208  13.009 -0.7101  0.7833 -0.3461
  857TIP3   OH223985   2.993   5.326   5.228  0.0144  0.0309 -0.7346
  857TIP3    H123986   3.014   5.375   5.148 -2.3287  0.5066 -1.1095
  857TIP3    H223987   2.962   5.241   5.196 -0.6529  0.1205 -0.3329
  858TIP3   OH223988   6.295   1.984   0.921  0.0793  0.8531  0.1592
  858TIP3    H123989   6.337   2.054   0.872 -1.1457  2.1817  0.9802
  858TIP3    H223990   6.202   2.007   0.921 -0.5662 -1.5796 -0.8772
  859TIP3   OH223991   1.201   5.719   4.909  0.2022  0.2465 -0.5078
  859TIP3    H123992   1.196   5.628   4.938 -0.9072  0.6254  0.5458
  859TIP3    H223993   1.131   5.728   4.844  0.4073  0.3167 -0.7218
  860TIP3   OH223994   0.635   0.081  14.560 -0.8539 -0.4032 -0.3197
  860TIP3    H123995   0.637  -0.010  14.530  0.4416 -0.6205  0.3783
  860TIP3    H223996   0.577   0.081  14.636  0.6998 -1.0439  0.8869
  861TIP3   OH223997   0.651   6.343   0.159  0.1484 -0.0624  0.4579
  861TIP3    H123998   0.709   6.268   0.147  0.8799  0.6299 -0.4236
  861TIP3    H223999   0.581   6.330   0.095 -0.5917 -0.8064  1.4003
  862TIP3   OH224000   5.079   4.738  14.459 -0.6347 -0.1958  0.4954
  862TIP3    H124001   5.136   4.748  14.383 -0.7946 -1.5637  0.1987
  862TIP3    H224002   4.992   4.759  14.427 -0.5293  0.4024  0.5912
  863TIP3   OH224003   0.777   2.562   5.696  0.5083 -0.0590  0.2148
  863TIP3    H124004   0.799   2.482   5.646 -0.4190  0.9647 -1.9151
  863TIP3    H224005   0.685   2.549   5.721  0.0271  0.7517 -1.0459
  864TIP3   OH224006   3.938   0.156   0.573 -0.5992  0.7058  0.4310
  864TIP3    H124007   4.006   0.163   0.640 -0.4891  0.6318  0.3263
  864TIP3    H224008   3.865   0.207   0.608 -0.2985  1.2322  0.3064
  865TIP3   OH224009   0.835   3.288  14.422 -0.0237 -0.2546  0.5351
  865TIP3    H124010   0.888   3.298  14.342 -0.3443  1.3853  0.5079
  865TIP3    H224011   0.753   3.332  14.402  0.7389  2.1878  2.5453
  866TIP3   OH224012   3.938   3.453   4.224 -0.1360  0.2980 -0.2579
  866TIP3    H124013   3.915   3.544   4.203  2.0204  1.2774  1.4519
  866TIP3    H224014   3.874   3.427   4.290 -1.4558  0.1739 -1.5599
  867TIP3   OH224015   6.295   1.703   1.160 -0.2552 -0.2245  0.6926
  867TIP3    H124016   6.384   1.716   1.128  0.3228 -1.6103  1.6566
  867TIP3    H224017   6.243   1.690   1.081  0.7164 -1.1582  0.1899
  868TIP3   OH224018   6.645   2.718   1.670 -0.4172 -0.3676  0.1156
  868TIP3    H124019   6.730   2.677   1.685 -0.9920 -1.0371  1.7793
  868TIP3    H224020   6.587   2.645   1.647 -0.5611  0.0766 -0.9704
  869TIP3   OH224021   4.054   1.810   5.979 -0.2260 -0.0794  0.2923
  869TIP3    H124022   4.080   1.741   5.918  1.3748 -0.5279  1.4481
  869TIP3    H224023   4.078   1.892   5.935 -0.4258 -0.3298 -0.2895
  870TIP3   OH224024   4.719   1.216   3.129  0.2796  0.1406 -0.3792
  870TIP3    H124025   4.731   1.296   3.181 -0.8658 -0.5481  1.0038
  870TIP3    H224026   4.799   1.207   3.079  0.7973  1.6652  0.1435
  871TIP3   OH224027   5.848   1.187  16.825  0.0020 -0.4060 -0.0591
  871TIP3    H124028   5.807   1.144  16.751  0.1578  0.3513 -0.5971
  871TIP3    H224029   5.846   1.281  16.803  0.3281 -0.2010  0.7456
  872TIP3   OH224030   2.394   5.989  16.781  0.2530  0.4828  0.1266
  872TIP3    H124031   2.361   5.991  16.871 -1.4141 -0.6420 -0.4416
  872TIP3    H224032   2.471   6.047  16.783  0.1245  0.6374  2.2132
  873TIP3   OH224033   4.651   0.439   1.280 -0.0424 -0.2943 -0.1295
  873TIP3    H124034   4.613   0.373   1.222  0.1912  0.4367 -1.1094
  873TIP3    H224035   4.620   0.522   1.247  0.0632  0.1270  0.8175
  874TIP3   OH224036   1.049   1.090   2.012 -0.1274 -0.0591 -0.2917
  874TIP3    H124037   1.071   1.068   1.921 -1.1058 -0.0600 -0.5328
  874TIP3    H224038   1.134   1.091   2.057  0.4427  0.5322 -1.3255
  875TIP3   OH224039   6.195   3.443  12.019  0.0884 -0.5537  0.0827
  875TIP3    H124040   6.139   3.367  12.006 -2.3325  0.8303  1.9174
  875TIP3    H224041   6.178   3.499  11.944 -1.4750  0.1195  0.9176
  876TIP3   OH224042   3.081   5.597  16.598 -0.2381 -0.9674  0.3643
  876TIP3    H124043   3.073   5.662  16.668 -0.1852 -0.9922  0.3923
  876TIP3    H224044   3.147   5.633  16.539 -1.5145 -0.1116 -0.5823
  877TIP3   OH224045   4.254   2.623   3.413 -0.3873 -0.0442  0.5702
  877TIP3    H124046   4.339   2.582   3.399 -0.5233  0.1487 -0.8734
  877TIP3    H224047   4.271   2.692   3.477  0.7741  0.7637 -0.5800
  878TIP3   OH224048   3.052   1.978  12.917  0.8456  0.1377  0.0449
  878TIP3    H124049   2.963   2.007  12.939  1.3809  0.7537  1.4729
  878TIP3    H224050   3.049   1.883  12.923 -0.0692  0.0653 -1.3210
  879TIP3   OH224051   4.070   2.022   3.470  0.8950 -0.3429 -0.2478
  879TIP3    H124052   4.121   1.942   3.481 -1.0198 -1.1939  2.7859
  879TIP3    H224053   4.086   2.073   3.549 -1.9396 -0.0547  0.1909
  880TIP3   OH224054   2.917   6.657   2.814 -0.6225  0.2191 -0.7769
  880TIP3    H124055   3.006   6.635   2.787 -0.7905  0.4538 -1.5306
  880TIP3    H224056   2.882   6.709   2.741 -0.8979  1.3202  0.1254
  881TIP3   OH224057   4.522   5.980  11.797  0.1164 -0.5230 -0.3623
  881TIP3    H124058   4.588   5.932  11.847 -0.4116 -0.7488  0.1234
  881TIP3    H224059   4.486   5.915  11.737  0.7707 -0.2448 -1.0626
  882TIP3   OH224060   1.527   4.675   0.200  0.3273  0.1740  0.0917
  882TIP3    H124061   1.560   4.764   0.215  0.6197  0.0473  0.1981
  882TIP3    H224062   1.518   4.670   0.105  0.9564  0.0880  0.0364
  883TIP3   OH224063   4.495   6.148   3.875 -0.5620  0.0295  0.1679
  883TIP3    H124064   4.463   6.167   3.963 -1.3585 -0.4252 -0.0201
  883TIP3    H224065   4.442   6.204   3.817 -0.8514 -0.5519 -0.1259
  884TIP3   OH224066   5.735   5.960  11.292 -0.6572  0.1272  0.2718
  884TIP3    H124067   5.763   6.051  11.288 -0.3989  0.1699  2.3092
  884TIP3    H224068   5.704   5.948  11.382 -0.2714 -1.9085  0.1662
  885TIP3   OH224069   0.567   3.317   4.212  0.3343 -0.7439  0.0533
  885TIP3    H124070   0.506   3.271   4.269  0.2039  0.7839  1.1695
  885TIP3    H224071   0.650   3.271   4.223  0.1324 -0.8981  0.9201
  886TIP3   OH224072   0.579   0.606  12.977  0.1601  0.1195  0.0567
  886TIP3    H124073   0.524   0.531  13.001  0.3508 -0.1053 -0.2080
  886TIP3    H224074   0.517   0.671  12.943  0.0134  0.0101  0.1159
  887TIP3   OH224075   4.436   2.187   2.408 -0.2078 -0.5718  0.9457
  887TIP3    H124076   4.480   2.182   2.493  1.6837  1.8684  0.1765
  887TIP3    H224077   4.367   2.252   2.420  0.8054  0.6530  0.3660
  888TIP3   OH224078   3.994   0.885   6.018 -0.3680 -0.4372 -0.5294
  888TIP3    H124079   3.985   0.939   6.096 -2.0619  0.3939 -1.2754
  888TIP3    H224080   4.085   0.855   6.020 -0.6176 -1.1257  2.1933
  889TIP3   OH224081   3.846   3.243   0.648  0.2810 -0.0562 -0.1243
  889TIP3    H124082   3.887   3.321   0.611 -1.5654  0.6887 -0.6318
  889TIP3    H224083   3.754   3.267   0.659 -0.0791 -1.7851  0.7705
  890TIP3   OH224084   6.199   1.553  12.235  0.7234 -0.1257 -0.3086
  890TIP3    H124085   6.180   1.565  12.328 -1.0180  0.0685 -0.6571
  890TIP3    H224086   6.224   1.639  12.204  1.1644 -0.1606 -0.0518
  891TIP3   OH224087   2.356   3.465  17.226 -0.0500  0.1021  0.0349
  891TIP3    H124088   2.297   3.499  17.158  0.4343  0.1595 -0.3637
  891TIP3    H224089   2.444   3.477  17.189  0.2456  0.5883  0.8789
  892TIP3   OH224090   1.139   3.952  16.630  0.0950  0.3306  0.0628
  892TIP3    H124091   1.227   3.989  16.631 -0.1845  1.2414 -3.0186
  892TIP3    H224092   1.150   3.865  16.590 -0.1386 -0.4649  1.6593
  893TIP3   OH224093   3.846   3.786   4.441  0.2427 -0.1449 -0.1104
  893TIP3    H124094   3.876   3.867   4.482  0.6140 -1.2353  1.8399
  893TIP3    H224095   3.767   3.763   4.489  0.6122 -1.3855 -0.0872
  894TIP3   OH224096   6.455   2.230   0.007 -0.0337  0.1846  0.0792
  894TIP3    H124097   6.382   2.267  -0.042  2.4570  1.9702 -2.4264
  894TIP3    H224098   6.489   2.159  -0.048 -0.2161 -1.0376  1.4990
  895TIP3   OH224099   0.257   4.966   3.274  0.4951  0.0370 -0.1324
  895TIP3    H124100   0.169   4.928   3.273  0.6280 -0.3046 -2.8387
  895TIP3    H224101   0.286   4.958   3.365 -0.9630 -2.9361  0.1407
  896TIP3   OH224102   1.436   4.154  15.998  0.1387 -0.2360  0.5305
  896TIP3    H124103   1.484   4.208  15.935 -0.1070 -0.3485  0.2472
  896TIP3    H224104   1.344   4.167  15.975  0.0909 -0.9360  0.3388
  897TIP3   OH224105   1.112   6.652   5.216  0.0312 -0.0849  0.0001
  897TIP3    H124106   1.075   6.694   5.139  0.2509  0.2367  0.0697
  897TIP3    H224107   1.135   6.564   5.186  0.7800  0.2771 -0.4941
  898TIP3   OH224108   3.639   5.740   6.099  0.4010  0.0284  0.4805
  898TIP3    H124109   3.582   5.693   6.160  1.2958 -1.0916  0.4624
  898TIP3    H224110   3.725   5.699   6.109  0.4601 -0.4833 -1.8870
  899TIP3   OH224111   2.722   5.943   5.836 -0.1957  0.6055  0.7421
  899TIP3    H124112   2.648   6.002   5.822 -0.7387  0.1668  1.7280
  899TIP3    H224113   2.798   6.001   5.843 -0.1410  0.9685 -2.1098
  900TIP3   OH224114   5.404   6.485   0.271  0.0320  0.8521 -0.3183
  900TIP3    H124115   5.386   6.442   0.187  1.6670  0.9358 -0.7237
  900TIP3    H224116   5.368   6.573   0.262 -2.4109 -0.0575  0.1398
  901TIP3   OH224117   3.709   2.334  14.630  0.4726  0.0975 -0.3835
  901TIP3    H124118   3.683   2.336  14.538 -2.9074  1.4460  0.5274
  901TIP3    H224119   3.670   2.253  14.664  1.2801 -0.1407 -0.0193
  902TIP3   OH224120   6.576   2.257   4.265  0.4169 -0.6697  0.4557
  902TIP3    H124121   6.610   2.293   4.347  0.1379 -0.7276  0.5984
  902TIP3    H224122   6.654   2.237   4.213  0.5672  0.1928  0.3496
  903TIP3   OH224123   2.251   6.099   6.378 -0.3216  0.3822  0.5862
  903TIP3    H124124   2.183   6.085   6.312  0.4455  2.6968 -0.7566
  903TIP3    H224125   2.224   6.177   6.424  0.5538  0.3298  1.1992
  904TIP3   OH224126   2.288   0.887   4.059 -0.0342  0.0686 -0.2547
  904TIP3    H124127   2.318   0.902   4.148  0.3555 -0.7494 -0.2428
  904TIP3    H224128   2.240   0.804   4.063 -0.5537  0.3433 -0.6799
  905TIP3   OH224129   2.007   0.675  15.150 -0.0249  0.2491  0.1820
  905TIP3    H124130   2.055   0.687  15.068 -0.6167  0.3110 -0.1600
  905TIP3    H224131   1.949   0.601  15.133 -0.2203  0.3246  0.5186
  906TIP3   OH224132   1.198   1.669  16.210 -0.5046 -0.0631 -0.6221
  906TIP3    H124133   1.223   1.737  16.147  1.2748 -1.0136 -0.9977
  906TIP3    H224134   1.280   1.646  16.254 -1.4513 -0.5172  0.9471
  907TIP3   OH224135   2.089   0.713  16.260  0.4055  0.3144 -0.1494
  907TIP3    H124136   2.121   0.629  16.295 -0.1505  0.2972  0.3370
  907TIP3    H224137   2.168   0.760  16.232  0.7112 -0.4289 -0.5565
  908TIP3   OH224138   3.122   0.674  14.558 -0.4701  0.2777 -0.3440
  908TIP3    H124139   3.028   0.664  14.543 -0.4173  2.2296 -2.2979
  908TIP3    H224140   3.128   0.710  14.646 -1.3883 -1.9495  0.6861
  909TIP3   OH224141   3.273   6.514   3.198  0.6777  0.0062  0.0745
  909TIP3    H124142   3.249   6.589   3.253 -1.5006  0.6602 -1.6894
  909TIP3    H224143   3.367   6.524   3.184  0.6729  1.6008  1.0636
  910TIP3   OH224144   5.582   3.745  15.485  0.1986 -0.3676 -0.5987
  910TIP3    H124145   5.653   3.754  15.420 -0.1527 -1.9327 -1.2383
  910TIP3    H224146   5.627   3.739  15.569  0.8400 -1.1710 -0.9874
  911TIP3   OH224147   5.342   4.160  11.469  0.9645 -0.2106 -0.1103
  911TIP3    H124148   5.272   4.112  11.424 -1.8631  2.7646  0.8746
  911TIP3    H224149   5.380   4.215  11.401  1.4161 -0.8000 -0.3390
  912TIP3   OH224150   0.283   2.932   5.639  0.1074  0.0680 -0.3861
  912TIP3    H124151   0.350   2.881   5.685  1.0370  0.4527 -1.2726
  912TIP3    H224152   0.307   3.023   5.657 -0.4736  0.2087 -0.3131
  913TIP3   OH224153   3.503   2.698   1.704 -0.0218  0.4511  0.2621
  913TIP3    H124154   3.522   2.660   1.618  3.2965  0.4296  0.9704
  913TIP3    H224155   3.527   2.630   1.767 -1.6288  0.7865  1.2767
  914TIP3   OH224156   5.281   6.186   1.177 -0.0908  0.0519 -0.1220
  914TIP3    H124157   5.316   6.224   1.097  0.7127  1.5042  0.9078
  914TIP3    H224158   5.186   6.185   1.163 -0.0498  1.5751 -0.5196
  915TIP3   OH224159   4.628   3.863   6.216  0.4683  0.1795  0.2256
  915TIP3    H124160   4.585   3.933   6.166  0.2104  0.7804  1.2519
  915TIP3    H224161   4.719   3.866   6.188  0.6102  1.4131  0.7582
  916TIP3   OH224162   5.253   2.199   4.585 -0.4374 -0.2379  0.0137
  916TIP3    H124163   5.321   2.215   4.519  0.3267  2.1898  1.3420
  916TIP3    H224164   5.192   2.272   4.574 -1.7367 -1.2548  0.2647
  917TIP3   OH224165   6.246   2.792   0.370 -0.3375 -0.3191  0.3356
  917TIP3    H124166   6.261   2.858   0.302  3.6716 -1.3577  0.1199
  917TIP3    H224167   6.170   2.743   0.339 -0.4598  1.1711 -1.8357
  918TIP3   OH224168   5.249   2.691  15.232  0.0276 -0.2115  0.3461
  918TIP3    H124169   5.270   2.599  15.248 -2.0990 -0.5016  1.6717
  918TIP3    H224170   5.333   2.736  15.241  0.7908 -1.7833  1.5096
  919TIP3   OH224171   4.114   2.181   6.536 -0.1145  0.2258  0.1070
  919TIP3    H124172   4.081   2.270   6.549 -1.5906 -0.4578  1.2107
  919TIP3    H224173   4.172   2.188   6.460 -1.3965  1.8254 -0.7622
  920TIP3   OH224174   3.406   5.678  15.940 -0.4172  0.0138 -0.7589
  920TIP3    H124175   3.480   5.671  15.879 -0.3445  1.9901 -0.9161
  920TIP3    H224176   3.445   5.712  16.021 -0.8681 -0.6015 -0.2798
  921TIP3   OH224177   3.688   2.320   0.255 -0.1737 -0.0888  0.5673
  921TIP3    H124178   3.709   2.413   0.248 -0.2463 -0.1589 -0.7280
  921TIP3    H224179   3.737   2.290   0.332  1.6026  0.5467 -0.2736
  922TIP3   OH224180   2.482   1.509   5.509  0.3123  0.2543 -1.1403
  922TIP3    H124181   2.512   1.423   5.538  0.2737  0.7805  0.5668
  922TIP3    H224182   2.553   1.542   5.454  1.3760  0.0586  0.0665
  923TIP3   OH224183   4.628   4.977   4.667 -0.1417  0.1229  0.0179
  923TIP3    H124184   4.705   4.957   4.615 -0.0090  0.8676 -0.0835
  923TIP3    H224185   4.643   5.066   4.699 -0.9962  0.3115 -0.0840
  924TIP3   OH224186   3.275   3.601   4.315 -0.0328 -0.4681 -0.1097
  924TIP3    H124187   3.200   3.544   4.330  0.4259 -1.1498 -0.3983
  924TIP3    H224188   3.312   3.570   4.232 -0.0861  0.5745 -0.5305
  925TIP3   OH224189   1.100   0.372   5.325  0.3453  0.1223 -0.5724
  925TIP3    H124190   1.151   0.353   5.246 -0.2503 -3.2651 -0.2303
  925TIP3    H224191   1.023   0.316   5.318 -0.6028  1.0873  1.5774
  926TIP3   OH224192   2.086   5.231   2.256  0.4640  0.6355  0.0298
  926TIP3    H124193   2.074   5.151   2.308  2.6811  0.6267  0.5655
  926TIP3    H224194   1.997   5.255   2.229 -0.2482 -1.9482 -0.0743
  927TIP3   OH224195   3.792   4.443  15.826 -0.1361 -0.0822  0.0233
  927TIP3    H124196   3.712   4.403  15.792  0.0224 -0.5014  0.1373
  927TIP3    H224197   3.792   4.532  15.790  0.4288 -0.7715 -1.7259
  928TIP3   OH224198   0.674   2.918  16.896  0.7047  0.3726  0.1131
  928TIP3    H124199   0.650   2.847  16.955  0.7079 -0.2327 -0.6037
  928TIP3    H224200   0.762   2.944  16.924  0.9057 -0.2451  0.0621
  929TIP3   OH224201   1.934   6.462  16.315  0.4039  0.5460  0.3019
  929TIP3    H124202   1.897   6.551  16.320 -0.7143  0.0765  0.5329
  929TIP3    H224203   1.896   6.417  16.390 -1.5203 -1.0411 -1.5773
  930TIP3   OH224204   5.830   3.535   2.470  0.6712 -0.2426  0.1006
  930TIP3    H124205   5.846   3.527   2.564  1.7751  1.3169  0.0634
  930TIP3    H224206   5.880   3.612   2.444  0.0293 -0.4169 -1.6932
  931TIP3   OH224207   4.812   0.441  14.895 -0.3828  0.1960  0.0855
  931TIP3    H124208   4.773   0.528  14.888 -4.0450 -1.1935  2.1619
  931TIP3    H224209   4.849   0.439  14.984 -0.7666 -0.5402  0.2279
  932TIP3   OH224210   1.287   3.134  11.466  0.5425 -0.0817  0.5359
  932TIP3    H124211   1.277   3.040  11.449 -0.6858 -0.1242  1.3804
  932TIP3    H224212   1.365   3.140  11.521  0.8945 -0.5599  0.0984
  933TIP3   OH224213   1.712   4.392  12.147 -0.2909 -0.4731  0.2766
  933TIP3    H124214   1.719   4.473  12.197 -1.9907 -0.6799  0.8769
  933TIP3    H224215   1.784   4.396  12.084 -0.5790  1.6789  0.0568
  934TIP3   OH224216   0.127   0.788   3.100 -0.1494  0.1608 -0.5365
  934TIP3    H124217   0.201   0.830   3.144 -0.1138 -0.3045 -0.1400
  934TIP3    H224218   0.162   0.705   3.069  0.2103  1.1200 -2.7472
  935TIP3   OH224219   1.210   2.861  15.055 -0.0970  0.4603  0.7698
  935TIP3    H124220   1.169   2.936  15.013  1.4948  2.6979  3.0838
  935TIP3    H224221   1.280   2.898  15.109  2.1224 -2.8548  0.3478
  936TIP3   OH224222   4.986   6.238   1.112 -0.3454  0.1455 -0.2379
  936TIP3    H124223   5.033   6.315   1.081 -0.2427  0.6056  1.0225
  936TIP3    H224224   4.905   6.236   1.060 -0.8591  1.7419  0.4841
  937TIP3   OH224225   4.839   0.239  11.692 -0.5908  0.2397 -0.2641
  937TIP3    H124226   4.919   0.227  11.743 -1.6990 -2.4029  0.9157
  937TIP3    H224227   4.869   0.242  11.601  0.7671 -2.0607  0.0679
  938TIP3   OH224228   1.021   6.474   0.573 -0.3269 -0.2789 -0.0752
  938TIP3    H124229   1.065   6.420   0.639 -0.4047 -0.3330 -0.0667
  938TIP3    H224230   1.053   6.563   0.590 -2.0124  0.0726  1.4770
  939TIP3   OH224231   1.780   5.635  16.186  0.7134  0.0957 -0.2998
  939TIP3    H124232   1.782   5.607  16.278  0.7744 -0.0399 -0.3441
  939TIP3    H224233   1.817   5.562  16.137 -0.4629 -0.3280 -0.5700
  940TIP3   OH224234   2.096   0.955   5.549  0.1048  0.5156 -0.1983
  940TIP3    H124235   2.072   0.947   5.641 -2.8618 -1.6285 -1.0737
  940TIP3    H224236   2.021   0.999   5.508  1.0239  0.7073 -1.7231
  941TIP3   OH224237   3.838   3.504  10.818  0.1112 -0.3499  0.6173
  941TIP3    H124238   3.896   3.467  10.751 -1.8320 -0.2009 -1.1705
  941TIP3    H224239   3.862   3.596  10.822 -0.7733 -0.0444 -0.9480
  942TIP3   OH224240   3.648   1.669  17.186 -0.7340  0.3315  0.4449
  942TIP3    H124241   3.576   1.625  17.230 -0.5226 -1.4653 -0.9242
  942TIP3    H224242   3.606   1.736  17.131 -1.4614 -1.2177 -0.9381
  943TIP3   OH224243   0.879   4.788  12.623  0.4782  0.7288 -0.2430
  943TIP3    H124244   0.818   4.718  12.647  0.4743  0.2806 -1.5375
  943TIP3    H224245   0.896   4.834  12.705 -0.8234  0.2418  0.3054
  944TIP3   OH224246   5.036   3.626  13.516 -0.0457 -0.1750 -0.2599
  944TIP3    H124247   4.991   3.598  13.596 -1.7785  0.9884 -0.7961
  944TIP3    H224248   5.076   3.710  13.540  1.6985 -1.0857  0.1422
  945TIP3   OH224249   2.337   0.240   6.716 -0.3414 -0.1153  0.0305
  945TIP3    H124250   2.406   0.200   6.663  0.7505  1.7095  0.0336
  945TIP3    H224251   2.372   0.325   6.742 -2.6081  0.8729  0.0211
  946TIP3   OH224252   5.988   6.272  12.639 -0.2628 -0.0604 -0.5221
  946TIP3    H124253   6.020   6.327  12.568 -0.4327 -1.1853 -1.4958
  946TIP3    H224254   5.986   6.329  12.716  0.6059  0.9805 -1.2646
  947TIP3   OH224255   1.091   3.659  10.953  0.7270 -0.4298  0.1426
  947TIP3    H124256   1.034   3.599  10.905 -0.2847  1.8839 -1.6421
  947TIP3    H224257   1.143   3.702  10.885  2.2842 -0.1322  1.4917
  948TIP3   OH224258   0.649   2.549  16.277 -0.1769 -0.0873  0.4473
  948TIP3    H124259   0.598   2.474  16.310 -1.5049  0.0547 -1.2233
  948TIP3    H224260   0.596   2.583  16.205  1.1146  1.6052  0.2953
  949TIP3   OH224261   4.587   4.830  12.870  0.1136  0.0892  0.1954
  949TIP3    H124262   4.507   4.861  12.911 -0.3201  0.1426 -0.6626
  949TIP3    H224263   4.627   4.773  12.935 -1.6588 -1.5498 -0.1054
  950TIP3   OH224264   2.186   6.060   5.129  0.2280 -0.5129  0.3137
  950TIP3    H124265   2.183   6.144   5.175  0.8315 -0.6458  0.5974
  950TIP3    H224266   2.272   6.058   5.087 -0.3732 -0.3397 -0.9415
  951TIP3   OH224267   5.336   1.912  14.431 -0.0643  0.1215 -0.1427
  951TIP3    H124268   5.364   1.999  14.402 -1.3944  0.9915  1.1635
  951TIP3    H224269   5.340   1.858  14.352  1.6838  1.1122 -0.7687
  952TIP3   OH224270   0.214   4.351  15.806  0.5946  0.3652  0.3562
  952TIP3    H124271   0.300   4.312  15.792  0.7927  0.5194  1.1317
  952TIP3    H224272   0.165   4.285  15.856  0.3764  0.4158  0.2122
  953TIP3   OH224273   0.156   0.752  13.564 -0.6075  0.3270 -0.6416
  953TIP3    H124274   0.250   0.749  13.576 -0.5572 -3.0442 -1.5989
  953TIP3    H224275   0.120   0.749  13.653  0.1296 -2.7504 -0.4170
  954TIP3   OH224276   4.356   1.192  14.005 -0.1839 -0.7585 -0.2275
  954TIP3    H124277   4.450   1.208  14.016 -0.7098  0.8938  2.4828
  954TIP3    H224278   4.322   1.272  13.965 -0.4583 -1.3163 -1.1205
  955TIP3   OH224279   3.316   5.125  13.719  0.2686 -0.2487 -0.0457
  955TIP3    H124280   3.293   5.149  13.629  2.6173  3.4856  0.2110
  955TIP3    H224281   3.399   5.079  13.711  0.7604  0.5750  0.2050
  956TIP3   OH224282   3.366   3.372   3.863 -0.3252  0.3620 -0.5691
  956TIP3    H124283   3.322   3.432   3.804  0.1345  1.2822  0.0221
  956TIP3    H224284   3.443   3.341   3.815 -0.0584  0.9598 -0.5284
  957TIP3   OH224285   2.087   6.698  17.181  0.1395 -0.2649 -0.4469
  957TIP3    H124286   2.144   6.656  17.116  0.3656  1.2290 -1.2365
  957TIP3    H224287   2.050   6.774  17.135 -0.7654  0.0313  0.7519
  958TIP3   OH224288   5.461   4.623   3.049 -0.2161 -0.2282 -0.3713
  958TIP3    H124289   5.390   4.671   3.090 -0.0978 -0.2787 -0.1025
  958TIP3    H224290   5.438   4.619   2.956  0.1528  1.0022 -0.5198
  959TIP3   OH224291   4.251   0.397  14.117  0.2999 -0.1084 -0.0134
  959TIP3    H124292   4.330   0.349  14.141  0.4644  0.1170 -0.0967
  959TIP3    H224293   4.282   0.486  14.099 -0.2772  0.4925  1.9249
  960TIP3   OH224294   5.186   3.359   4.664 -0.6680  0.6400  0.2383
  960TIP3    H124295   5.255   3.294   4.647  0.5320  2.1727 -1.0077
  960TIP3    H224296   5.119   3.312   4.712  0.9340 -1.0988  0.8160
  961TIP3   OH224297   1.428   4.709  11.116 -0.2951  0.2573 -0.5607
  961TIP3    H124298   1.364   4.774  11.143 -0.1846  0.0195  0.3156
  961TIP3    H224299   1.385   4.658  11.048 -1.5610 -0.7779  0.9703
  962TIP3   OH224300   4.948   4.883   5.545  0.2056 -0.5921 -0.1712
  962TIP3    H124301   4.968   4.853   5.457 -2.0411  1.3623 -1.4279
  962TIP3    H224302   4.975   4.975   5.546 -0.6345 -0.3399  0.8750
  963TIP3   OH224303   5.354   4.545   3.598  0.0002 -0.4168 -0.3309
  963TIP3    H124304   5.283   4.540   3.534 -0.7389  0.9310  0.3459
  963TIP3    H224305   5.387   4.456   3.604 -1.7647 -1.1095 -0.5208
  964TIP3   OH224306   3.333   3.928  10.676  0.5143 -0.1439 -0.7978
  964TIP3    H124307   3.299   3.868  10.609  0.9838 -0.1534 -1.0253
  964TIP3    H224308   3.269   3.999  10.678 -1.7580 -2.0985  1.6556
  965TIP3   OH224309   2.232   2.542  12.520  0.5101 -0.3269 -0.1462
  965TIP3    H124310   2.251   2.508  12.608 -1.1534  0.7273  0.6298
  965TIP3    H224311   2.143   2.512  12.501  0.5209  0.2304 -1.0999
  966TIP3   OH224312   5.415   5.274   6.494  0.3245 -0.5958 -0.5666
  966TIP3    H124313   5.483   5.328   6.453  0.5737  0.0737  0.7246
  966TIP3    H224314   5.360   5.336   6.541 -0.8605 -1.1992 -1.1377
  967TIP3   OH224315   2.310   6.009  14.878  0.2406  0.8105 -0.4383
  967TIP3    H124316   2.358   6.033  14.799  1.2254  2.6483  0.6669
  967TIP3    H224317   2.271   6.092  14.908  0.2104  0.2180  1.2099
  968TIP3   OH224318   5.169   2.559  16.236 -0.5048  0.3157 -0.4487
  968TIP3    H124319   5.137   2.477  16.200 -2.5674  0.5614  0.6896
  968TIP3    H224320   5.234   2.533  16.301  0.2689 -0.3073 -1.4607
  969TIP3   OH224321   0.872   0.623   3.462 -0.3387  0.2906 -0.0007
  969TIP3    H124322   0.854   0.617   3.368 -0.7656  2.6739 -0.1013
  969TIP3    H224323   0.927   0.547   3.481  0.1876  0.0725 -2.2854
  970TIP3   OH224324   3.756   5.124  16.141 -0.4717 -0.0237 -0.1177
  970TIP3    H124325   3.681   5.099  16.196 -0.3437  0.2517  0.1803
  970TIP3    H224326   3.822   5.057  16.157 -0.9554 -0.7337 -1.0148
  971TIP3   OH224327   5.986   0.226  11.807  0.3802 -0.1573 -0.7605
  971TIP3    H124328   6.009   0.158  11.744 -0.5465 -0.6438 -0.5819
  971TIP3    H224329   5.936   0.290  11.756  0.9283  0.2136 -0.8446
  972TIP3   OH224330   2.445   3.421   5.683  0.2818  0.1855  0.3866
  972TIP3    H124331   2.379   3.428   5.752  0.2285  2.6213  0.1404
  972TIP3    H224332   2.504   3.352   5.712 -0.9525 -0.2678  1.8327
  973TIP3   OH224333   6.330   2.848  13.629 -0.3384 -0.0825 -0.1332
  973TIP3    H124334   6.317   2.755  13.647 -1.1418  0.1653  0.5671
  973TIP3    H224335   6.382   2.849  13.548  1.1683 -1.1463  0.7976
  974TIP3   OH224336   3.262   5.377  16.054 -0.3616 -0.3377  0.4920
  974TIP3    H124337   3.235   5.292  16.088 -0.1398 -0.5802  0.0646
  974TIP3    H224338   3.184   5.432  16.061 -0.7667 -0.8327 -0.0778
  975TIP3   OH224339   6.026   2.893   2.125 -0.0795 -0.0414 -0.2755
  975TIP3    H124340   5.989   2.823   2.072 -1.5407  1.1169 -0.8166
  975TIP3    H224341   6.080   2.944   2.064  1.1901 -0.8122  0.1718
  976TIP3   OH224342   5.263   3.946   1.132  0.2045  0.0180  0.0187
  976TIP3    H124343   5.226   4.027   1.166  0.6317 -0.0620  0.6897
  976TIP3    H224344   5.273   3.962   1.038 -1.7091 -0.0442 -0.2082
  977TIP3   OH224345   5.930   4.318   6.235  0.7141  0.0189 -0.0245
  977TIP3    H124346   5.993   4.284   6.173  1.3971  0.3996  0.4555
  977TIP3    H224347   5.931   4.256   6.308  1.5014  0.7132  0.5695
  978TIP3   OH224348   4.092   0.057  12.945  0.3012  0.7064  0.4696
  978TIP3    H124349   4.157   0.007  12.896 -1.3572 -1.3141  0.2376
  978TIP3    H224350   4.032   0.090  12.878  0.1246  1.1046  0.8203
  979TIP3   OH224351   2.456   3.844  14.564 -0.5198 -0.8780  0.3433
  979TIP3    H124352   2.468   3.831  14.658  0.8542  0.3513  0.3640
  979TIP3    H224353   2.542   3.825  14.527 -0.0027  2.3616 -0.2244
  980TIP3   OH224354   5.583   1.917  16.224  0.1711 -0.5451  0.2128
  980TIP3    H124355   5.599   1.969  16.145 -1.1810  0.0808  0.3399
  980TIP3    H224356   5.661   1.931  16.278  0.0799  0.8824 -0.0124
  981TIP3   OH224357   2.002   3.819   2.880 -0.2461 -0.7282 -0.2169
  981TIP3    H124358   2.087   3.837   2.841 -0.7315  0.2264 -0.8387
  981TIP3    H224359   1.944   3.804   2.805 -0.5897 -1.5757  0.2083
  982TIP3   OH224360   0.642   5.939  14.406 -0.3702 -0.0609  0.5503
  982TIP3    H124361   0.684   5.855  14.428  1.4933  0.4289 -0.9927
  982TIP3    H224362   0.585   5.957  14.481 -0.2473 -2.3397  1.2437
  983TIP3   OH224363   1.930   0.555   0.500 -0.1426 -0.4535  0.4086
  983TIP3    H124364   1.961   0.643   0.479 -2.6507  0.5496  0.7602
  983TIP3    H224365   1.928   0.510   0.416 -0.1651  0.2446  0.0297
  984TIP3   OH224366   3.416   0.920   2.073  0.0002 -0.5880  0.1230
  984TIP3    H124367   3.438   0.868   1.996 -0.7104 -2.3568  1.0874
  984TIP3    H224368   3.467   1.000   2.063  0.3920 -1.0610 -1.8671
  985TIP3   OH224369   4.275   0.672   2.295  0.1850 -0.1805 -0.2101
  985TIP3    H124370   4.281   0.609   2.366  1.3756  0.0385 -0.0960
  985TIP3    H224371   4.189   0.658   2.257 -1.1422  0.8594  2.3310
  986TIP3   OH224372   2.016   5.944  12.443  0.2525  0.1707 -0.2788
  986TIP3    H124373   1.946   5.961  12.507  0.0778  2.2788 -1.0073
  986TIP3    H224374   2.013   5.849  12.430 -2.5807  0.2263 -0.3864
  987TIP3   OH224375   5.113   3.065   4.810 -0.1005  0.0614 -0.3583
  987TIP3    H124376   5.172   3.121   4.861 -0.5666  0.4319 -0.2210
  987TIP3    H224377   5.029   3.071   4.856 -0.4795  0.2465 -1.0660
  988TIP3   OH224378   4.686   3.719  11.335  0.0353 -0.0109  0.6127
  988TIP3    H124379   4.679   3.659  11.261  0.5376  0.9877 -0.2550
  988TIP3    H224380   4.657   3.804  11.301  1.2206  0.6770  1.2798
  989TIP3   OH224381   4.921   0.249   1.414 -0.0086 -0.2622 -0.0369
  989TIP3    H124382   4.894   0.334   1.451 -0.1385  0.6664 -2.1902
  989TIP3    H224383   4.863   0.186   1.455  0.7825  0.5280  2.4126
  990TIP3   OH224384   2.062   1.297  15.269  0.2238 -0.0829 -0.2524
  990TIP3    H124385   2.104   1.371  15.311 -0.0769 -0.6660  1.0998
  990TIP3    H224386   2.051   1.232  15.339 -2.2622 -0.2177 -0.7008
  991TIP3   OH224387   4.364   0.848  17.010 -0.4670 -0.0484 -0.8398
  991TIP3    H124388   4.425   0.879  16.943 -0.4634  0.3268 -0.6696
  991TIP3    H224389   4.284   0.828  16.962  0.0164 -1.2363 -1.1763
  992TIP3   OH224390   5.322   1.814  16.846  0.0578  0.8616 -0.1174
  992TIP3    H124391   5.373   1.832  16.768 -0.2230  1.5952 -0.1306
  992TIP3    H224392   5.232   1.834  16.821 -0.4623 -1.6993 -0.5309
  993TIP3   OH224393   1.691   5.803   5.678 -0.0345 -0.5763  0.4206
  993TIP3    H124394   1.704   5.780   5.770 -0.7839 -1.2432  0.3566
  993TIP3    H224395   1.653   5.891   5.681 -0.4128 -0.7513  0.7555
  994TIP3   OH224396   0.503   0.511   4.602  0.3047 -0.0967  0.0340
  994TIP3    H124397   0.597   0.528   4.610 -0.1643  2.0112  1.8513
  994TIP3    H224398   0.484   0.446   4.670  0.0841  1.3059  1.3614
  995TIP3   OH224399   6.224   0.116  14.504 -0.0717  0.1200 -0.2608
  995TIP3    H124400   6.133   0.116  14.474 -0.4896  0.3636  0.9889
  995TIP3    H224401   6.231   0.195  14.558  0.2068 -1.2001  1.6647
  996TIP3   OH224402   5.291   0.275  16.162 -0.8078 -0.4059  0.3720
  996TIP3    H124403   5.224   0.343  16.167 -0.4188  0.0105 -0.0780
  996TIP3    H224404   5.353   0.298  16.230 -0.6046 -0.2308  0.1277
  997TIP3   OH224405   4.975   1.608  11.784  0.4996 -0.1235 -0.0117
  997TIP3    H124406   4.952   1.520  11.813 -0.3110 -0.1675 -0.7633
  997TIP3    H224407   4.981   1.659  11.865 -1.1016 -0.3893  0.2865
  998TIP3   OH224408   0.254   4.945  13.730  0.0338  0.3339  0.3537
  998TIP3    H124409   0.179   4.892  13.702 -0.4675  0.0368  2.2033
  998TIP3    H224410   0.277   4.911  13.816 -0.3769  3.1641  1.6388
  999TIP3   OH224411   0.637   1.578  12.792 -0.4235 -0.3954  0.1930
  999TIP3    H124412   0.702   1.600  12.858 -1.7424  3.2079  0.4144
  999TIP3    H224413   0.553   1.582  12.838 -1.1572 -0.5079 -1.0813
 1000TIP3   OH224414   2.923   0.689   5.494  1.2059 -0.5017 -0.5172
 1000TIP3    H124415   2.998   0.736   5.531 -0.9344 -0.4616  4.2286
 1000TIP3    H224416   2.957   0.601   5.477  2.8044  0.0453 -0.2768
 1001TIP3   OH224417   3.364   0.046   6.583  0.4448 -0.1129 -0.5439
 1001TIP3    H124418   3.348   0.090   6.666  2.3207  0.0389 -0.2415
 1001TIP3    H224419   3.423  -0.027   6.605 -0.0019 -0.7897 -1.5482
 1002TIP3   OH224420   4.470   3.234   6.393  0.0628 -0.1101  0.1845
 1002TIP3    H124421   4.554   3.209   6.430  0.5462 -0.6480 -1.2230
 1002TIP3    H224422   4.492   3.274   6.308 -1.1835 -1.7193 -0.9245
 1003TIP3   OH224423   3.214   4.233   1.163  0.3035 -0.3020 -0.0814
 1003TIP3    H124424   3.271   4.236   1.240 -0.4613 -0.8811  0.5083
 1003TIP3    H224425   3.256   4.293   1.101  0.5879  0.6608  1.0135
 1004TIP3   OH224426   2.289   4.730  12.604  0.3874 -0.2182 -0.5786
 1004TIP3    H124427   2.303   4.770  12.518  0.5990 -0.1279 -0.5017
 1004TIP3    H224428   2.215   4.671  12.591  0.5201 -0.3233 -0.8633
 1005TIP3   OH224429   1.109   3.518   1.903 -0.0542 -0.8206  0.9218
 1005TIP3    H124430   1.016   3.531   1.882  0.5314 -0.0003 -1.3882
 1005TIP3    H224431   1.134   3.597   1.951 -0.1002 -0.1146 -0.1878
 1006TIP3   OH224432   4.380   1.865   6.254  0.2106 -0.2042 -0.2523
 1006TIP3    H124433   4.308   1.920   6.221  2.1809  1.1560 -2.4331
 1006TIP3    H224434   4.381   1.789   6.196  0.3681 -0.3431 -0.0684
 1007TIP3   OH224435   1.384   6.522   4.266 -0.1470  0.0011  0.3364
 1007TIP3    H124436   1.480   6.517   4.264 -0.1557 -0.4702  1.2002
 1007TIP3    H224437   1.356   6.482   4.184  0.4167  0.6544 -0.1849
 1008TIP3   OH224438   2.160   5.385  16.198  0.1200 -0.0890 -0.3054
 1008TIP3    H124439   2.177   5.393  16.104 -0.1933 -0.4195 -0.3935
 1008TIP3    H224440   2.190   5.468  16.235 -0.4944  0.3570 -0.8088
 1009TIP3   OH224441   5.197   2.096  16.812 -0.0181  0.3904  0.1032
 1009TIP3    H124442   5.166   2.050  16.890  1.3533 -0.8361 -0.0666
 1009TIP3    H224443   5.130   2.079  16.746  0.6879 -1.7512 -0.0851
 1010TIP3   OH224444   0.671   2.743   2.550  0.1632  0.1609  0.3210
 1010TIP3    H124445   0.766   2.742   2.561  0.0642 -0.2159  1.1532
 1010TIP3    H224446   0.636   2.724   2.637 -0.7106  2.1627  0.4488
 1011TIP3   OH224447   0.807   3.921   0.071 -0.1904 -0.5050 -0.0672
 1011TIP3    H124448   0.805   3.979   0.147  1.4457 -0.8642  0.2658
 1011TIP3    H224449   0.724   3.875   0.074 -0.2678 -0.2936  1.3296
 1012TIP3   OH224450   3.270   0.087   5.565 -0.1875 -0.3923  0.4614
 1012TIP3    H124451   3.359   0.073   5.595  1.8432  3.0591 -3.5056
 1012TIP3    H224452   3.258   0.025   5.494 -0.9495 -0.7792  0.9190
 1013TIP3   OH224453   2.890   3.470   4.055 -0.4450 -0.0889 -0.1893
 1013TIP3    H124454   2.960   3.404   4.056  0.9620  1.3514  1.5826
 1013TIP3    H224455   2.885   3.499   4.146 -0.5555  2.7206 -1.0607
 1014TIP3   OH224456   4.987   2.541   0.626 -0.3340  0.3735 -0.1306
 1014TIP3    H124457   4.894   2.523   0.614 -0.2192 -0.5610  0.3143
 1014TIP3    H224458   5.019   2.468   0.679  0.2323  1.7651  1.4874
 1015TIP3   OH224459   3.892   4.798  12.167  0.2239  0.1905 -0.0345
 1015TIP3    H124460   3.817   4.816  12.224 -0.7016 -1.9240 -0.5240
 1015TIP3    H224461   3.862   4.818  12.079  0.2372 -0.5621 -0.2224
 1016TIP3   OH224462   6.777   3.459   2.662 -0.0410 -0.5850  0.7416
 1016TIP3    H124463   6.863   3.486   2.693  0.6475 -0.3062 -1.3739
 1016TIP3    H224464   6.720   3.534   2.679  0.6685  0.1476 -0.0997
 1017TIP3   OH224465   6.168   5.809   6.263 -0.5547 -0.5286  0.6173
 1017TIP3    H124466   6.074   5.827   6.256 -0.8350 -1.4129  1.9991
 1017TIP3    H224467   6.198   5.865   6.335  0.3885  1.2321 -1.0828
 1018TIP3   OH224468   0.605   1.472   4.328  0.1668  0.4959 -1.1185
 1018TIP3    H124469   0.654   1.473   4.410  0.6947 -1.7853 -1.3603
 1018TIP3    H224470   0.671   1.451   4.262 -0.9421 -1.6118 -1.5808
 1019TIP3   OH224471   1.722   6.520  11.868  0.4891  0.0901 -0.5278
 1019TIP3    H124472   1.719   6.604  11.914 -0.5548  0.2149 -0.8114
 1019TIP3    H224473   1.748   6.457  11.935  2.5254  0.8158 -0.5879
 1020TIP3   OH224474   3.919   4.533  11.692 -0.1876 -0.3536  0.0227
 1020TIP3    H124475   3.949   4.619  11.721 -0.8183 -0.1865  0.1991
 1020TIP3    H224476   3.893   4.488  11.773  0.4907 -0.8518 -0.0292
 1021TIP3   OH224477   1.090   3.022  15.397  0.2669 -0.2669  0.3586
 1021TIP3    H124478   1.055   3.039  15.309  0.8996 -1.1832 -0.0785
 1021TIP3    H224479   1.032   3.071  15.456 -0.4128  0.0164 -0.5380
 1022TIP3   OH224480   6.190   0.745  15.667  0.1703 -0.2495 -0.1235
 1022TIP3    H124481   6.220   0.669  15.717  2.3448  0.0429 -0.9145
 1022TIP3    H224482   6.155   0.709  15.586 -0.9265 -0.5405  0.4658
 1023TIP3   OH224483   6.525   4.227   4.628  0.1736 -0.1113 -0.2739
 1023TIP3    H124484   6.559   4.197   4.713 -0.0880  0.5030  0.0543
 1023TIP3    H224485   6.554   4.161   4.566  0.9804 -0.1933  0.1837
 1024TIP3   OH224486   1.614   0.244  13.327 -0.4577  0.0303  0.0500
 1024TIP3    H124487   1.585   0.200  13.407  0.5132  1.5412  1.2770
 1024TIP3    H224488   1.551   0.314  13.313  0.4480  0.9707  0.5997
 1025TIP3   OH224489   1.842   0.627  11.335  0.8999 -0.1396 -0.2919
 1025TIP3    H124490   1.857   0.539  11.369  0.5788 -0.2060 -0.3193
 1025TIP3    H224491   1.798   0.673  11.406  0.0810 -0.3261 -0.6663
 1026TIP3   OH224492   1.793   4.318   2.905 -0.2653  0.3432 -0.4724
 1026TIP3    H124493   1.810   4.245   2.963 -1.2740  0.3193 -0.1961
 1026TIP3    H224494   1.710   4.297   2.863 -1.4624  2.1283  0.9030
 1027TIP3   OH224495   4.036   4.464  13.586  0.1571  0.4414 -0.6472
 1027TIP3    H124496   4.015   4.554  13.564 -1.0068 -0.0810 -1.7475
 1027TIP3    H224497   4.096   4.470  13.661 -2.9636  2.0318  1.8165
 1028TIP3   OH224498   0.321   1.213  12.390 -0.3142  0.2243 -0.6024
 1028TIP3    H124499   0.294   1.280  12.453 -0.4586 -0.3447 -0.0506
 1028TIP3    H224500   0.239   1.182  12.351 -0.2644  0.2446 -0.7209
 1029TIP3   OH224501   5.043   1.349  16.514 -0.6305 -0.0080  0.1901
 1029TIP3    H124502   5.050   1.368  16.608 -0.2920  2.0345 -0.2222
 1029TIP3    H224503   4.953   1.321  16.502 -0.4731 -1.0132  1.2472
 1030TIP3   OH224504   1.558   2.739  12.027 -0.0747 -0.1563  0.5079
 1030TIP3    H124505   1.652   2.732  12.014 -0.3103  1.0224 -2.1514
 1030TIP3    H224506   1.522   2.741  11.938 -2.4233  1.6638  1.4604
 1031TIP3   OH224507   6.577   5.276   0.366  0.8904 -0.0222  0.5202
 1031TIP3    H124508   6.613   5.214   0.303 -1.4885 -0.5701 -0.3577
 1031TIP3    H224509   6.549   5.222   0.440  0.2284  0.1569  0.4093
 1032TIP3   OH224510   3.383   4.896  12.614 -0.0902 -0.6094  0.3551
 1032TIP3    H124511   3.399   4.983  12.576  0.2167 -0.1887  1.4143
 1032TIP3    H224512   3.334   4.914  12.695 -1.2783 -1.5302 -0.1501
 1033TIP3   OH224513   5.988   4.170   4.534  0.0120 -0.0841  0.1533
 1033TIP3    H124514   5.955   4.252   4.570  0.2644  0.0032  0.1807
 1033TIP3    H224515   5.922   4.105   4.560 -0.2782  0.1389 -0.0178
 1034TIP3   OH224516   0.111   0.508   1.248  0.4935  0.2091 -0.0783
 1034TIP3    H124517   0.018   0.521   1.266  0.6349 -0.2286  0.9971
 1034TIP3    H224518   0.133   0.577   1.185 -0.7771 -0.2875 -1.0864
 1035TIP3   OH224519   3.763   3.985  15.186 -0.4271 -0.1663 -0.2030
 1035TIP3    H124520   3.817   4.058  15.155  2.6820 -1.2633  2.3345
 1035TIP3    H224521   3.796   3.909  15.140 -0.6669 -0.6654  0.4456
 1036TIP3   OH224522   3.192   4.389  11.345  0.2394 -0.0317  0.0187
 1036TIP3    H124523   3.202   4.371  11.251  0.0469  0.3177 -0.0646
 1036TIP3    H224524   3.191   4.302  11.385  0.0320 -0.1929 -0.3316
 1037TIP3   OH224525   4.697   4.754   5.868 -0.3718 -0.1134  0.3875
 1037TIP3    H124526   4.700   4.812   5.944 -0.8441  2.6763 -1.6460
 1037TIP3    H224527   4.606   4.760   5.838  0.3137  0.5837 -1.6577
 1038TIP3   OH224528   3.252   6.441   0.779  0.3025  0.3523  0.7518
 1038TIP3    H124529   3.269   6.397   0.696  0.8808  0.0045  1.0526
 1038TIP3    H224530   3.225   6.529   0.754 -0.2042  0.0375  0.1732
 1039TIP3   OH224531   4.211   4.224  12.134 -0.1249  0.7025 -0.6758
 1039TIP3    H124532   4.288   4.276  12.159  0.2926  0.3792 -1.2914
 1039TIP3    H224533   4.246   4.153  12.080 -0.6135 -0.5528  0.6168
 1040TIP3   OH224534   4.490   1.051   4.817  0.1494 -0.0142 -0.0600
 1040TIP3    H124535   4.527   0.963   4.825 -0.1907 -0.2400 -0.9019
 1040TIP3    H224536   4.396   1.036   4.803  0.0974  0.4807 -0.2505
 1041TIP3   OH224537   6.702   6.528  16.728 -0.6463  0.0596 -0.6715
 1041TIP3    H124538   6.675   6.564  16.813  1.7559  0.8845 -0.2311
 1041TIP3    H224539   6.790   6.495  16.743  0.4202  1.6336 -3.2404
 1042TIP3   OH224540   1.073   4.715  16.842  0.6941  0.5064 -0.7506
 1042TIP3    H124541   1.143   4.697  16.904 -0.0240  2.7596  0.7519
 1042TIP3    H224542   1.016   4.638  16.847  0.7433  0.5873  1.2546
 1043TIP3   OH224543   0.038   2.408  13.885  0.8363  0.4198 -0.2428
 1043TIP3    H124544   0.114   2.465  13.894  1.3533 -0.4935  1.2451
 1043TIP3    H224545  -0.016   2.428  13.961  1.8576 -2.2904  1.2658
 1044TIP3   OH224546   1.347   3.288  10.877 -0.3199 -0.1249 -0.5491
 1044TIP3    H124547   1.297   3.209  10.854  0.3614 -0.6099 -0.3721
 1044TIP3    H224548   1.434   3.255  10.900 -0.2335  0.6187  0.1837
 1045TIP3   OH224549   3.405   5.066  12.178 -0.4620  0.2256 -0.5150
 1045TIP3    H124550   3.496   5.077  12.150  0.3294 -1.1314  1.4040
 1045TIP3    H224551   3.353   5.095  12.102  1.5538 -2.2732 -2.9473
 1046TIP3   OH224552   6.686   3.682   4.256  0.0958 -0.4864  0.4049
 1046TIP3    H124553   6.622   3.612   4.241  0.5308 -0.6960 -0.4851
 1046TIP3    H224554   6.651   3.757   4.207  0.6365 -0.6665 -0.2706
 1047TIP3   OH224555   0.693   5.181  13.903  0.4669 -0.1579 -0.1515
 1047TIP3    H124556   0.687   5.269  13.941 -2.6504  0.8822 -2.7962
 1047TIP3    H224557   0.617   5.135  13.937  0.7993 -1.0755 -0.6356
 1048TIP3   OH224558   4.150   1.543  10.755  0.7143 -0.2315 -0.3593
 1048TIP3    H124559   4.098   1.518  10.679 -2.3003  2.0285  0.8466
 1048TIP3    H224560   4.201   1.619  10.725 -1.1648  1.2474  0.0334
 1049TIP3   OH224561   2.210   0.751  14.967  0.4898 -0.0200  0.1614
 1049TIP3    H124562   2.205   0.701  14.886  0.4124 -0.5727  0.5029
 1049TIP3    H224563   2.217   0.842  14.939 -0.0822 -0.1661 -0.4571
 1050TIP3   OH224564   0.804   1.245   0.955 -0.5935  0.0545 -0.3485
 1050TIP3    H124565   0.749   1.207   1.023 -1.1802  0.1505 -0.7685
 1050TIP3    H224566   0.813   1.175   0.889  0.5474 -0.2854  0.1446
 1051TIP3   OH224567   1.958   4.384  10.649  0.1488 -0.1252 -0.4081
 1051TIP3    H124568   2.045   4.410  10.619 -0.0817  0.0219 -0.9654
 1051TIP3    H224569   1.898   4.438  10.596 -0.2189  2.1604  2.2159
 1052TIP3   OH224570   5.524   1.682  14.280 -0.0803  0.1565  0.1434
 1052TIP3    H124571   5.431   1.680  14.259  0.3662  0.3850 -1.9591
 1052TIP3    H224572   5.544   1.593  14.308 -0.4420 -0.4818 -1.6113
 1053TIP3   OH224573   4.090   2.552   1.292  0.6901  0.4589  0.6619
 1053TIP3    H124574   4.180   2.529   1.273  1.0941  2.3409  0.2672
 1053TIP3    H224575   4.086   2.557   1.388  0.7544 -0.5534  0.7239
 1054TIP3   OH224576   1.741   3.469  11.774 -0.5754 -0.1567 -0.1573
 1054TIP3    H124577   1.711   3.379  11.763  1.7151 -0.9089 -0.5833
 1054TIP3    H224578   1.758   3.500  11.685 -0.4807  0.3730  0.0420
 1055TIP3   OH224579   5.336   6.203  13.294  0.0417 -0.1083 -0.1942
 1055TIP3    H124580   5.262   6.149  13.323 -0.3628  0.1225 -0.7919
 1055TIP3    H224581   5.309   6.292  13.315  0.1996 -0.0323 -0.3177
 1056TIP3   OH224582   2.522   0.920   6.280 -0.6018 -0.3326 -0.2345
 1056TIP3    H124583   2.611   0.901   6.311 -1.8066 -4.0714  1.1592
 1056TIP3    H224584   2.467   0.908   6.357 -2.4083  1.7654 -1.1318
 1057TIP3   OH224585   2.236   2.388  14.147 -0.4081 -0.9017 -0.7210
 1057TIP3    H124586   2.331   2.390  14.152 -0.4721  0.4126  0.1775
 1057TIP3    H224587   2.215   2.300  14.115  1.1302 -0.9362 -1.6627
 1058TIP3   OH224588   1.594   2.230  11.883  0.1485  0.4467 -0.7797
 1058TIP3    H124589   1.609   2.138  11.902  1.5838  0.5650 -1.2347
 1058TIP3    H224590   1.534   2.260  11.952  1.2105 -0.3553  0.5180
 1059TIP3   OH224591   5.770   4.570  15.374 -0.0446 -0.2241  0.4508
 1059TIP3    H124592   5.862   4.593  15.365 -0.8024  2.0362 -2.4879
 1059TIP3    H224593   5.765   4.480  15.342  1.2013 -0.5481  1.1357
 1060TIP3   OH224594   1.049   2.311   1.129 -0.2716  0.3893 -0.5284
 1060TIP3    H124595   1.088   2.320   1.042 -0.7517  1.3680 -0.6497
 1060TIP3    H224596   1.046   2.217   1.145 -0.9202  0.1646 -1.9179
 1061TIP3   OH224597   3.006   1.599  15.235  0.3681  0.5451  0.1581
 1061TIP3    H124598   3.040   1.525  15.185  1.1532  2.1673 -1.7729
 1061TIP3    H224599   2.992   1.565  15.323  1.3987 -1.6998 -0.5301
 1062TIP3   OH224600   1.637   4.086   4.723 -0.2884 -0.7202  0.0461
 1062TIP3    H124601   1.722   4.126   4.703 -0.7260  0.3220  0.2697
 1062TIP3    H224602   1.659   3.996   4.747  0.8867 -0.1163  1.3196
 1063TIP3   OH224603   4.558   2.188  16.284  0.0385 -0.0088  0.0064
 1063TIP3    H124604   4.510   2.270  16.271 -3.2949 -1.7587  0.8266
 1063TIP3    H224605   4.550   2.142  16.200 -1.6271 -1.2510  0.8230
 1064TIP3   OH224606   6.660   6.213  13.618  0.1840  0.0161 -0.6815
 1064TIP3    H124607   6.605   6.157  13.563  0.1038  0.6013 -1.1977
 1064TIP3    H224608   6.602   6.243  13.688  0.3953 -1.0654 -0.0411
 1065TIP3   OH224609   6.114   1.789   3.532  0.3882  0.7215 -0.4267
 1065TIP3    H124610   6.079   1.703   3.553  2.6374 -0.1117  0.0112
 1065TIP3    H224611   6.090   1.803   3.441  0.8201 -0.7775 -0.7839
 1066TIP3   OH224612   3.359   5.320   2.397  0.2842  0.1338 -0.2123
 1066TIP3    H124613   3.318   5.321   2.483 -1.0517  0.2723 -0.8330
 1066TIP3    H224614   3.286   5.307   2.336  1.1571  0.4895 -1.3487
 1067TIP3   OH224615   5.834   5.222   2.420 -0.2407  0.4366  0.0461
 1067TIP3    H124616   5.922   5.217   2.459 -0.2416  1.2210  0.1521
 1067TIP3    H224617   5.798   5.134   2.432 -0.8031  1.0065  3.1437
 1068TIP3   OH224618   3.145   0.571  16.156 -0.0823 -0.1911 -0.3028
 1068TIP3    H124619   3.051   0.566  16.169 -0.1537  1.3040 -0.1475
 1068TIP3    H224620   3.155   0.598  16.064  0.2415 -2.2237 -0.8850
 1069TIP3   OH224621   5.986   6.049  13.906  0.1697  0.1345 -0.1201
 1069TIP3    H124622   5.997   5.971  13.960  0.6827 -0.8192 -1.5965
 1069TIP3    H224623   5.898   6.042  13.869  0.1510  0.3434 -0.1186
 1070TIP3   OH224624   5.945   3.067  11.385  0.7008 -0.2479  0.1301
 1070TIP3    H124625   5.990   3.142  11.424 -1.7826  0.5506  1.5317
 1070TIP3    H224626   5.898   3.104  11.310  0.3296 -0.6018  0.1867
 1071TIP3   OH224627   4.442   5.209   5.830 -0.1951 -0.2449  0.1821
 1071TIP3    H124628   4.374   5.259   5.784 -1.0979 -1.4631  0.1530
 1071TIP3    H224629   4.395   5.166   5.901  0.7454 -0.3145  0.7645
 1072TIP3   OH224630   3.489   5.226   3.785 -0.1610  0.1032 -0.4735
 1072TIP3    H124631   3.582   5.240   3.768  0.3585 -0.7131  1.5265
 1072TIP3    H224632   3.446   5.250   3.703  1.7131  1.4802 -1.0888
 1073TIP3   OH224633   1.573   3.196  15.467  0.0786 -0.3964 -0.6992
 1073TIP3    H124634   1.619   3.122  15.427 -1.4699 -1.1015 -1.2583
 1073TIP3    H224635   1.490   3.158  15.496 -0.8797  1.2080 -1.3126
 1074TIP3   OH224636   5.087   0.999  13.652  0.8588 -0.3725 -0.7055
 1074TIP3    H124637   5.105   1.041  13.568 -1.7894 -0.1869 -1.2137
 1074TIP3    H224638   4.999   1.028  13.676  1.2216 -1.1236  1.7184
 1075TIP3   OH224639   1.422   1.182   5.327 -0.4317 -0.3154  0.4756
 1075TIP3    H124640   1.392   1.259   5.278 -0.8586  0.0962  1.3520
 1075TIP3    H224641   1.342   1.134   5.348 -0.1176 -1.2882 -0.5258
 1076TIP3   OH224642   2.975   2.562   0.787  0.5261 -0.4080 -1.3414
 1076TIP3    H124643   3.025   2.533   0.711  1.4167  0.6670 -1.1739
 1076TIP3    H224644   3.007   2.650   0.805 -0.5303 -0.1970 -0.4493
 1077TIP3   OH224645   6.785   4.754  13.666 -0.2614 -0.3080  0.4263
 1077TIP3    H124646   6.790   4.665  13.631 -0.2425  0.0805 -0.5597
 1077TIP3    H224647   6.753   4.807  13.593 -1.2433  0.3321  1.3114
 1078TIP3   OH224648   3.041   3.443   0.339  0.0692 -0.0566  0.7495
 1078TIP3    H124649   3.080   3.527   0.364 -0.0990  0.0974  0.5046
 1078TIP3    H224650   3.072   3.428   0.250 -2.1064  1.1166 -0.2671
 1079TIP3   OH224651   1.225   1.259   1.273 -0.0651  0.2311 -0.0499
 1079TIP3    H124652   1.285   1.269   1.199  0.0765 -0.2976 -0.0079
 1079TIP3    H224653   1.149   1.312   1.249 -0.2065 -0.2973 -0.7716
 1080TIP3   OH224654   5.855   5.344  16.143 -0.2720  0.2891 -0.1052
 1080TIP3    H124655   5.866   5.254  16.171  0.4792  0.2268 -0.5813
 1080TIP3    H224656   5.915   5.394  16.198  0.0175  0.3740 -0.4950
 1081TIP3   OH224657   1.041   4.096  12.510 -0.1239  0.2523  0.1606
 1081TIP3    H124658   1.105   4.167  12.514  0.2873 -0.1559  0.9509
 1081TIP3    H224659   1.028   4.071  12.602  1.0004 -1.8306 -0.2269
 1082TIP3   OH224660   2.829   0.648   0.770 -0.6160  0.0383  0.1507
 1082TIP3    H124661   2.790   0.565   0.744  0.5045 -0.7435  0.9257
 1082TIP3    H224662   2.762   0.689   0.825 -0.0372 -1.7211  2.2542
 1083TIP3   OH224663   1.442   4.780  15.493 -0.5016  0.2978 -0.1850
 1083TIP3    H124664   1.425   4.782  15.587 -0.0840 -0.9717 -0.0631
 1083TIP3    H224665   1.396   4.856  15.458  0.7705  1.7601  1.2723
 1084TIP3   OH224666   5.956   6.629  13.329  0.3414 -0.5596 -0.3395
 1084TIP3    H124667   5.881   6.604  13.274 -0.9708 -0.1808  1.2487
 1084TIP3    H224668   5.943   6.580  13.411  1.6762 -0.2560  0.0686
 1085TIP3   OH224669   6.499   4.064   5.821 -0.6203  0.1253  0.1177
 1085TIP3    H124670   6.565   4.132   5.803 -0.4438 -0.7256 -2.7194
 1085TIP3    H224671   6.497   4.058   5.916  0.3638  3.1275  0.3999
 1086TIP3   OH224672   3.473   2.020   2.479  0.1342  0.3473 -0.2943
 1086TIP3    H124673   3.522   1.958   2.533 -0.6277 -0.5752 -0.6558
 1086TIP3    H224674   3.397   1.971   2.448  0.3711  0.9736 -1.9160
 1087TIP3   OH224675   2.906   4.419   0.233  0.1076  0.3578  0.4372
 1087TIP3    H124676   2.946   4.446   0.150 -1.3317 -0.4253 -0.5371
 1087TIP3    H224677   2.970   4.362   0.274  1.1413  1.3393  0.2252
 1088TIP3   OH224678   3.377   5.117  15.156 -0.4381 -0.2273  0.3263
 1088TIP3    H124679   3.313   5.074  15.100  0.7419  0.1348 -1.3308
 1088TIP3    H224680   3.337   5.201  15.178 -0.4519  0.0770 -0.8558
 1089TIP3   OH224681   1.583   6.470   3.931  0.2733 -0.5721  0.2035
 1089TIP3    H124682   1.508   6.504   3.980 -0.1428 -2.1575  0.7058
 1089TIP3    H224683   1.609   6.542   3.873 -1.1657  0.2515  0.5651
 1090TIP3   OH224684   1.349   3.948   3.444 -0.1143 -0.5907 -0.1952
 1090TIP3    H124685   1.393   3.899   3.514  0.9485 -0.9958 -1.1277
 1090TIP3    H224686   1.270   3.983   3.485  0.1889 -1.3308  1.0454
 1091TIP3   OH224687   6.417   4.936   1.477 -0.0865 -0.6782 -0.1917
 1091TIP3    H124688   6.405   4.898   1.565 -0.3058  0.0360  0.0869
 1091TIP3    H224689   6.328   4.949   1.445 -0.0124 -0.0903 -0.1557
 1092TIP3   OH224690   1.738   5.714   5.077 -0.4212  0.2836 -0.2463
 1092TIP3    H124691   1.788   5.659   5.017  0.1930 -2.1346  2.3353
 1092TIP3    H224692   1.646   5.695   5.057 -0.2867  1.5286 -2.1619
 1093TIP3   OH224693   1.346   2.421   1.873 -0.1579  0.2867 -0.6504
 1093TIP3    H124694   1.426   2.430   1.820  0.3416  3.2802  0.4892
 1093TIP3    H224695   1.292   2.496   1.848 -1.8446 -0.7323 -0.1251
 1094TIP3   OH224696   1.661   4.649   1.719  0.0361 -0.4572  0.9389
 1094TIP3    H124697   1.723   4.577   1.728 -0.7363 -1.1545  0.8191
 1094TIP3    H224698   1.588   4.625   1.776 -0.1018  0.3736  1.1238
 1095TIP3   OH224699   1.932   6.356   0.524  0.1918  0.1573  0.5708
 1095TIP3    H124700   1.987   6.351   0.446 -1.1924  1.7539 -0.5290
 1095TIP3    H224701   1.884   6.273   0.525  0.8224 -0.2113  0.1941
 1096TIP3   OH224702   0.464   6.631  12.263  0.4603  0.1166  0.6020
 1096TIP3    H124703   0.369   6.632  12.253  0.7210  0.2152 -2.1231
 1096TIP3    H224704   0.488   6.539  12.255  0.7175  0.2279  0.1211
 1097TIP3   OH224705   0.491   1.407  11.473  0.5570  0.0387  0.4448
 1097TIP3    H124706   0.519   1.358  11.550  0.4509  1.3326  1.3127
 1097TIP3    H224707   0.496   1.499  11.499  1.1402  0.5264 -1.2899
 1098TIP3   OH224708   4.963   1.505   2.815  0.5169  0.2276  0.9272
 1098TIP3    H124709   4.931   1.441   2.879  0.6560  0.3638  1.1331
 1098TIP3    H224710   5.008   1.452   2.749 -0.6930 -0.0206  0.2943
 1099TIP3   OH224711   5.440   3.985   3.028  0.2314  0.0227 -0.4645
 1099TIP3    H124712   5.497   3.994   2.951  0.9955 -1.1169 -0.0336
 1099TIP3    H224713   5.411   3.894   3.026  1.8570 -0.5672  1.7140
 1100TIP3   OH224714   4.911   1.675  16.500 -0.0993 -0.0425  0.3295
 1100TIP3    H124715   4.888   1.768  16.508 -0.5114 -0.0782 -0.4220
 1100TIP3    H224716   4.855   1.631  16.564  0.7727  0.3269  1.3641
 1101TIP3   OH224717   1.520   5.224   0.090  0.3429 -0.5854  0.0062
 1101TIP3    H124718   1.437   5.243   0.048  0.7884 -0.5541 -0.8623
 1101TIP3    H224719   1.559   5.310   0.106  0.3477 -0.6109  0.1356
 1102TIP3   OH224720   2.420   5.704   4.711 -0.0656  0.2956 -0.3026
 1102TIP3    H124721   2.495   5.677   4.658  0.7272  1.6766  0.1013
 1102TIP3    H224722   2.380   5.776   4.662  0.0731  0.9062  0.4566
 1103TIP3   OH224723   2.363   0.244   4.157  0.4329  0.2986  0.0679
 1103TIP3    H124724   2.276   0.227   4.122 -0.0831  1.4615  0.7645
 1103TIP3    H224725   2.397   0.316   4.104  2.0025 -1.7742 -1.8635
 1104TIP3   OH224726   4.051   4.464  12.134 -0.0607  0.0758  0.6689
 1104TIP3    H124727   4.086   4.376  12.118 -2.8261 -0.9400 -0.0442
 1104TIP3    H224728   3.988   4.452  12.205 -2.5570  0.9444 -1.3368
 1105TIP3   OH224729   2.233   3.164   4.393  0.4374  0.1642 -0.3363
 1105TIP3    H124730   2.322   3.134   4.378  0.7523  0.1667  1.3642
 1105TIP3    H224731   2.182   3.083   4.403  0.4313  0.1626 -0.3829
 1106TIP3   OH224732   1.611   5.131   0.892 -0.6170  0.1692 -0.9457
 1106TIP3    H124733   1.552   5.206   0.885  1.2723  1.7253 -0.8151
 1106TIP3    H224734   1.569   5.062   0.841 -3.4389  0.6053  0.7053
 1107TIP3   OH224735   4.895   5.990  15.559 -0.8471 -0.3089 -0.1887
 1107TIP3    H124736   4.818   6.010  15.506 -0.5618  0.1501 -0.4413
 1107TIP3    H224737   4.896   6.057  15.627 -0.4644 -0.0816 -0.4137
 1108TIP3   OH224738   1.132   2.577   0.013 -0.1815 -0.2250 -0.3133
 1108TIP3    H124739   1.159   2.486   0.013 -0.0484 -0.2221  1.8285
 1108TIP3    H224740   1.210   2.625   0.044 -0.4488  0.5354 -0.8088
 1109TIP3   OH224741   6.743   4.812  12.561  0.3383  0.2667  0.0930
 1109TIP3    H124742   6.763   4.902  12.588  1.6240 -0.4978  1.7719
 1109TIP3    H224743   6.667   4.788  12.615 -0.1019  0.4021 -0.4688
 1110TIP3   OH224744   4.198   4.359   0.374  0.1371 -0.1617 -0.2379
 1110TIP3    H124745   4.217   4.452   0.359  0.0677 -0.1091 -0.0030
 1110TIP3    H224746   4.249   4.337   0.452 -0.4639 -0.1198  0.1724
 1111TIP3   OH224747   6.159   2.893   0.656  0.1869 -0.5592  0.2389
 1111TIP3    H124748   6.134   2.982   0.682 -1.2859 -1.3123  1.4959
 1111TIP3    H224749   6.166   2.897   0.561 -0.5956  0.7177  0.2229
 1112TIP3   OH224750   1.043   6.141  14.748 -0.0338  0.2303 -0.3941
 1112TIP3    H124751   0.997   6.169  14.669  0.5198  0.6586 -0.5728
 1112TIP3    H224752   0.980   6.155  14.819 -0.6359 -0.4370 -0.7948
 1113TIP3   OH224753   3.760   4.217   3.957  0.0992 -0.1313  0.6444
 1113TIP3    H124754   3.726   4.292   4.005  0.5062  0.1233  0.5375
 1113TIP3    H224755   3.843   4.247   3.920  1.3028 -1.2676  2.3521
 1114TIP3   OH224756   2.531   3.154  12.054 -0.4487 -0.5353 -0.1915
 1114TIP3    H124757   2.490   3.137  12.138 -2.7744 -2.4753 -1.6353
 1114TIP3    H224758   2.624   3.162  12.073 -0.8556 -1.7171  2.4346
 1115TIP3   OH224759   6.662   1.896  15.447 -0.2075  0.2389 -0.1741
 1115TIP3    H124760   6.737   1.950  15.421 -0.8886  0.4881 -1.6527
 1115TIP3    H224761   6.630   1.858  15.365 -0.0864 -1.9670  0.7699
 1116TIP3   OH224762   6.328   2.789  15.221 -0.0984  0.1322  0.0925
 1116TIP3    H124763   6.313   2.826  15.308  1.4005 -0.9115  0.8257
 1116TIP3    H224764   6.307   2.696  15.231  1.9388 -0.3730 -0.1337
 1117TIP3   OH224765   0.704   3.062   2.145 -0.1289  0.0819  0.4771
 1117TIP3    H124766   0.790   3.080   2.184  0.0226 -0.3085  0.3357
 1117TIP3    H224767   0.724   3.009   2.068 -0.4267  0.8789 -0.1486
 1118TIP3   OH224768   5.910   2.177   0.257 -0.6759  0.4303 -0.2621
 1118TIP3    H124769   5.955   2.247   0.304  1.5851 -1.2200  0.0916
 1118TIP3    H224770   5.847   2.143   0.321  0.3823  0.0929  0.6191
 1119TIP3   OH224771   4.500   2.254  11.131 -0.2751 -0.2374 -0.1521
 1119TIP3    H124772   4.451   2.184  11.087 -1.3040  0.4137 -0.0552
 1119TIP3    H224773   4.573   2.272  11.072 -0.7089 -0.5397 -0.7957
 1120TIP3   OH224774   6.228   0.526   2.663  0.2727 -0.5731 -0.2935
 1120TIP3    H124775   6.210   0.496   2.573 -0.9804 -0.0792 -0.2102
 1120TIP3    H224776   6.224   0.621   2.657 -0.6432 -0.5629  0.4559
 1121TIP3   OH224777   2.506   3.577  13.287 -0.3351 -0.0038  0.2214
 1121TIP3    H124778   2.520   3.609  13.377 -1.5465  3.3596 -0.7055
 1121TIP3    H224779   2.576   3.617  13.237 -0.0155 -1.4102 -0.4811
 1122TIP3   OH224780   5.899   1.899  16.375  0.5255  0.0926 -0.2385
 1122TIP3    H124781   5.820   1.905  16.428  0.6964  0.9625 -0.0695
 1122TIP3    H224782   5.895   1.976  16.318  0.8128 -0.3307 -0.8328
 1123TIP3   OH224783   5.162   1.417   3.093  0.4599 -0.4998  0.0268
 1123TIP3    H124784   5.220   1.421   3.169  0.8483  0.0980 -0.2918
 1123TIP3    H224785   5.218   1.388   3.021  0.3495 -0.0047 -0.2639
 1124TIP3   OH224786   5.088   5.550  15.507  0.4955 -0.2424  0.2893
 1124TIP3    H124787   5.179   5.521  15.496  1.0810  1.7689 -0.4977
 1124TIP3    H224788   5.074   5.611  15.435 -0.6317  1.4394  1.8802
 1125TIP3   OH224789   0.959   4.974   1.457  0.5101 -0.3647 -0.0347
 1125TIP3    H124790   0.944   4.883   1.480  0.7421 -0.4643 -0.2753
 1125TIP3    H224791   1.014   4.970   1.378  2.6803 -0.0140  1.4137
 1126TIP3   OH224792   2.554   4.027  12.508  0.4046  0.2965  0.3391
 1126TIP3    H124793   2.498   3.986  12.442 -1.4335 -1.0799  2.6901
 1126TIP3    H224794   2.518   4.114  12.520  0.2371  0.2547  0.1364
 1127TIP3   OH224795   0.543   5.930  13.184  0.4988  0.4750 -0.8721
 1127TIP3    H124796   0.531   5.950  13.277  0.9624 -1.7944 -0.3078
 1127TIP3    H224797   0.470   5.975  13.141 -0.3885  0.5874  0.7079
 1128TIP3   OH224798   1.483   1.800   2.634 -0.0745  0.2511 -0.4089
 1128TIP3    H124799   1.491   1.706   2.619 -0.9437  0.1756 -0.4207
 1128TIP3    H224800   1.571   1.834   2.619  0.1461 -0.4948 -0.8415
 1129TIP3   OH224801   4.861   2.823   5.028  0.3732  0.0995  1.2867
 1129TIP3    H124802   4.812   2.741   5.023 -0.7875  0.7562  1.6560
 1129TIP3    H224803   4.953   2.796   5.028  0.0404 -1.1060 -0.2450
 1130TIP3   OH224804   1.402   2.681  13.424 -0.1269  0.2687  0.4734
 1130TIP3    H124805   1.469   2.732  13.469  1.8133 -0.2478 -1.7318
 1130TIP3    H224806   1.418   2.696  13.331 -1.3069 -2.0865 -0.1559
 1131TIP3   OH224807   1.824   2.458   5.660  0.0700  0.1355  0.6364
 1131TIP3    H124808   1.797   2.547   5.637 -0.4705 -0.0598  0.5188
 1131TIP3    H224809   1.809   2.453   5.755 -2.1926 -0.6282  0.2511
 1132TIP3   OH224810   5.244   1.646   3.590 -0.4745 -0.0348 -0.8225
 1132TIP3    H124811   5.284   1.574   3.543 -0.4657 -0.4473 -0.1839
 1132TIP3    H224812   5.226   1.611   3.677  1.0979  1.2333  0.0402
 1133TIP3   OH224813   1.929   3.723  11.352  0.4831  0.0712  0.2653
 1133TIP3    H124814   2.018   3.692  11.361 -0.1335 -1.6040  0.6853
 1133TIP3    H224815   1.938   3.811  11.315  2.2758 -0.2447 -0.0763
 1134TIP3   OH224816   4.011   5.594   4.055 -0.2785 -0.3936  0.4286
 1134TIP3    H124817   3.957   5.629   3.984 -1.8683 -3.3140  0.1098
 1134TIP3    H224818   3.985   5.645   4.132  0.4962  1.8976 -0.7833
 1135TIP3   OH224819   0.386   3.686  10.982 -0.4276  0.2047 -0.5728
 1135TIP3    H124820   0.452   3.631  10.940 -0.1328  0.7963 -0.8915
 1135TIP3    H224821   0.435   3.739  11.045 -0.7686 -0.1882  0.0268
 1136TIP3   OH224822   6.002   4.877   1.774  0.9466  0.2731  0.1378
 1136TIP3    H124823   5.960   4.883   1.689  0.6763  0.4291  0.2822
 1136TIP3    H224824   5.962   4.800   1.815  1.2813  0.0321  0.0108
 1137TIP3   OH224825   6.033   0.389  17.137  0.5855 -0.6563  0.0794
 1137TIP3    H124826   6.030   0.298  17.166  0.3534 -0.6465  0.0847
 1137TIP3    H224827   6.096   0.430  17.196  0.0046 -0.6033  0.6717
 1138TIP3   OH224828   1.459   3.936  15.139 -0.7467  0.6059  0.4409
 1138TIP3    H124829   1.366   3.921  15.124 -1.2945  1.7339  2.4868
 1138TIP3    H224830   1.490   3.856  15.181 -0.9061  0.4137  0.1886
 1139TIP3   OH224831   0.218   4.719  14.991 -0.6227 -0.1600 -0.4859
 1139TIP3    H124832   0.178   4.687  15.071  0.9325  0.7686  0.7116
 1139TIP3    H224833   0.312   4.708  15.005 -0.2377  1.6729 -1.4415
 1140TIP3   OH224834   5.328   1.703  10.835 -0.8981  0.4333  0.5760
 1140TIP3    H124835   5.237   1.681  10.857 -1.5057  2.5998  0.2693
 1140TIP3    H224836   5.341   1.790  10.872  1.2212 -0.0688  1.0425
 1141TIP3   OH224837   0.258   0.600  17.209  0.0982  0.1254 -0.0548
 1141TIP3    H124838   0.196   0.618  17.279  0.7815 -0.3790  0.6803
 1141TIP3    H224839   0.242   0.669  17.145 -0.2267  0.8495  0.7983
 1142TIP3   OH224840   4.159   0.537   0.453  0.1802 -0.1480 -0.4571
 1142TIP3    H124841   4.223   0.472   0.425  0.0427 -0.7623  0.6311
 1142TIP3    H224842   4.126   0.575   0.372 -0.6829 -2.3550 -1.1827
 1143TIP3   OH224843   0.349   5.647  16.086  0.4152  0.0324 -0.5421
 1143TIP3    H124844   0.304   5.719  16.042  1.1218  0.1788 -1.0232
 1143TIP3    H224845   0.411   5.614  16.021 -1.5281 -2.5500 -1.1430
 1144TIP3   OH224846   4.593   6.387   2.944  0.3225 -0.0367  0.2752
 1144TIP3    H124847   4.554   6.397   2.858 -1.1921 -1.7073  0.7494
 1144TIP3    H224848   4.594   6.293   2.961 -1.2294  0.3562  2.8899
 1145TIP3   OH224849   6.613   0.096   1.617 -0.0342 -0.0601 -0.2865
 1145TIP3    H124850   6.521   0.122   1.618 -0.3630 -1.1815 -0.3491
 1145TIP3    H224851   6.637   0.086   1.709 -0.1930 -0.4937 -0.2905
 1146TIP3   OH224852   6.482   0.671   0.931  0.2263  0.3813 -0.7531
 1146TIP3    H124853   6.511   0.637   1.016 -0.2473  1.7350 -0.0340
 1146TIP3    H224854   6.500   0.600   0.869  2.7145  0.2139  0.0929
 1147TIP3   OH224855   1.862   2.632   4.483  0.0318 -0.0874  0.2628
 1147TIP3    H124856   1.874   2.713   4.433 -1.5717 -0.7179 -1.2051
 1147TIP3    H224857   1.949   2.592   4.485  0.7761  1.5080  0.7389
 1148TIP3   OH224858   6.132   5.703  13.656  0.3736 -0.7499  0.0638
 1148TIP3    H124859   6.137   5.669  13.746 -0.8154 -2.1226 -0.3648
 1148TIP3    H224860   6.091   5.632  13.607  2.3138 -0.5707 -1.8661
 1149TIP3   OH224861   5.490   0.755   4.879 -0.3266  0.2535 -0.1802
 1149TIP3    H124862   5.495   0.843   4.843  0.7337 -0.7153 -2.5094
 1149TIP3    H224863   5.425   0.761   4.949 -0.7787  2.7240 -0.7813
 1150TIP3   OH224864   3.905   2.534  12.046  0.4299 -0.4146 -0.3108
 1150TIP3    H124865   3.874   2.496  12.129  1.3193  1.3776  0.8931
 1150TIP3    H224866   3.868   2.622  12.046  0.0620 -0.5692 -2.0664
 1151TIP3   OH224867   6.189   1.407  10.488  0.6120  0.2108 -0.1338
 1151TIP3    H124868   6.134   1.483  10.509 -1.2557 -0.4882 -2.2966
 1151TIP3    H224869   6.272   1.424  10.532 -0.0307  3.1499  0.0125
 1152TIP3   OH224870   6.784   4.978  13.925  0.1662 -0.7506 -0.4245
 1152TIP3    H124871   6.863   4.952  13.878  0.1882  0.6255 -1.1709
 1152TIP3    H224872   6.800   5.069  13.951 -0.8729 -0.6931  0.0488
 1153TIP3   OH224873   3.117   3.839  14.696 -0.3331 -0.0038 -0.3221
 1153TIP3    H124874   3.198   3.856  14.743  1.1526  3.3116 -3.7775
 1153TIP3    H224875   3.131   3.755  14.652  1.2750  0.5615 -0.9118
 1154TIP3   OH224876   0.459   2.005  14.367  0.0877  0.2196  0.2594
 1154TIP3    H124877   0.430   1.914  14.379  1.3581 -0.4271 -1.2987
 1154TIP3    H224878   0.506   2.003  14.284  0.8850  2.1338  0.6558
 1155TIP3   OH224879   0.462   5.300  12.305  0.2557 -0.6651  0.4241
 1155TIP3    H124880   0.462   5.333  12.216 -1.7279 -0.6244  0.4102
 1155TIP3    H224881   0.486   5.376  12.359 -1.6310  0.1348  0.1703
 1156TIP3   OH224882   4.174   6.167  11.262 -0.2216  0.8044  0.1192
 1156TIP3    H124883   4.180   6.131  11.350 -0.7649 -0.1523 -0.2263
 1156TIP3    H224884   4.250   6.133  11.216  0.4168  1.8303  0.3935
 1157TIP3   OH224885   1.964   6.091  11.231 -0.0413  0.5863  0.1223
 1157TIP3    H124886   1.938   6.164  11.174 -1.0997  0.2932  0.2223
 1157TIP3    H224887   1.922   6.014  11.193  2.1355 -0.2083 -0.7348
 1158TIP3   OH224888   4.063   0.963  16.129  0.4568 -0.0622 -0.4280
 1158TIP3    H124889   4.070   0.873  16.097  1.7205  0.3652 -1.3937
 1158TIP3    H224890   4.099   0.960  16.217 -0.2124 -0.6583 -0.1767
 1159TIP3   OH224891   3.826   2.272   4.641  0.2335 -0.0966 -0.0568
 1159TIP3    H124892   3.831   2.366   4.658  0.6172 -0.5158  2.3366
 1159TIP3    H224893   3.752   2.262   4.582 -1.0767  1.5256  1.2586
 1160TIP3   OH224894   6.509   1.945   5.428 -0.1834 -0.2443  0.7152
 1160TIP3    H124895   6.419   1.915   5.413  0.1048 -1.5298  1.4604
 1160TIP3    H224896   6.542   1.965   5.340 -1.3481  0.7297  0.4753
 1161TIP3   OH224897   3.183   5.983  16.490  0.0432  0.3154  0.0763
 1161TIP3    H124898   3.212   5.893  16.502  0.0798  0.1595 -1.1006
 1161TIP3    H224899   3.088   5.980  16.501  0.0649  0.1599  0.2087
 1162TIP3   OH224900   4.009   1.348  11.367  0.4486 -0.7600  0.3101
 1162TIP3    H124901   4.087   1.393  11.401  1.9639 -2.0569 -1.3810
 1162TIP3    H224902   4.006   1.266  11.416  0.4377 -0.9347  0.0179
 1163TIP3   OH224903   5.516   1.301  16.481  0.3270 -0.1178 -0.2319
 1163TIP3    H124904   5.432   1.336  16.450  1.0092  2.2584  0.4860
 1163TIP3    H224905   5.492   1.234  16.544 -1.0724  1.0568  0.5250
 1164TIP3   OH224906   2.748   5.201  11.243  0.4498 -0.3414  0.5286
 1164TIP3    H124907   2.795   5.155  11.312  2.0856  0.1882 -0.1816
 1164TIP3    H224908   2.713   5.279  11.285  0.3533 -0.6704  1.0503
 1165TIP3   OH224909   3.236   3.321  14.731 -0.2419 -0.1933  0.0654
 1165TIP3    H124910   3.204   3.247  14.681  0.2828  1.0510 -2.1583
 1165TIP3    H224911   3.273   3.282  14.811 -0.9990 -2.1980 -0.5421
 1166TIP3   OH224912   0.694   2.085  14.994 -0.4262 -0.0788 -0.1645
 1166TIP3    H124913   0.694   2.033  15.073 -1.2104  0.6011  0.2988
 1166TIP3    H224914   0.621   2.050  14.942 -2.0163  1.5926  0.8728
 1167TIP3   OH224915   0.853   0.567  13.544  0.2770  0.1725 -0.5650
 1167TIP3    H124916   0.814   0.622  13.476  0.6678  0.5697 -0.4702
 1167TIP3    H224917   0.933   0.613  13.569 -0.9816  1.1821  1.7262
 1168TIP3   OH224918   2.886   4.834   0.892 -0.0798  0.2726 -0.5808
 1168TIP3    H124919   2.808   4.779   0.902  1.4467 -1.8894 -0.2862
 1168TIP3    H224920   2.923   4.807   0.808  0.0264  1.7251 -1.0036
 1169TIP3   OH224921   5.473   5.560  12.581  0.4088 -0.1682  0.0437
 1169TIP3    H124922   5.410   5.515  12.637  1.5389 -0.0005  1.4836
 1169TIP3    H224923   5.545   5.497  12.570  1.1619  0.5866  0.5584
 1170TIP3   OH224924   6.589   5.937   4.695 -0.1079 -0.1381  0.1093
 1170TIP3    H124925   6.532   5.868   4.730 -0.3870  0.3248  0.5914
 1170TIP3    H224926   6.529   5.999   4.654  0.2514 -0.8391 -1.4994
 1171TIP3   OH224927   1.598   3.165   1.856  0.4393 -0.0979 -0.3614
 1171TIP3    H124928   1.653   3.236   1.822  2.1364 -0.6385  1.1850
 1171TIP3    H224929   1.641   3.085   1.825 -0.9059 -0.4959 -1.2539
 1172TIP3   OH224930   6.549   5.367  11.597 -0.4341 -0.3815  0.6548
 1172TIP3    H124931   6.483   5.298  11.606 -0.8250 -0.2369 -0.9438
 1172TIP3    H224932   6.502   5.439  11.555  0.7938 -0.3638 -0.7283
 1173TIP3   OH224933   4.183   0.560  12.856 -0.0270  0.3330 -0.0378
 1173TIP3    H124934   4.236   0.482  12.874 -0.6423  0.3376  1.9913
 1173TIP3    H224935   4.206   0.620  12.927 -0.2572  1.6403 -1.0582
 1174TIP3   OH224936   4.573   3.903  14.144 -0.5451 -0.3145  0.1423
 1174TIP3    H124937   4.669   3.905  14.151 -0.6688  0.6606  1.8471
 1174TIP3    H224938   4.551   3.981  14.092 -0.5035  0.3803  1.1505
 1175TIP3   OH224939   3.880   3.094   2.190  0.0135  0.6130 -0.4033
 1175TIP3    H124940   3.948   3.026   2.193 -1.1505 -0.5438  1.7104
 1175TIP3    H224941   3.815   3.060   2.128 -0.3383 -0.0065  0.2911
 1176TIP3   OH224942   5.774   5.210  11.100 -0.2035 -0.1946  0.0032
 1176TIP3    H124943   5.758   5.274  11.031 -0.6026  0.6947  0.9128
 1176TIP3    H224944   5.762   5.259  11.182 -1.5194 -1.6615  0.7157
 1177TIP3   OH224945   0.142   6.201   4.905  0.6916  0.1246 -0.0651
 1177TIP3    H124946   0.125   6.257   4.830 -0.3767 -1.4732 -1.0483
 1177TIP3    H224947   0.228   6.163   4.889  1.3958  1.4237  0.5809
 1178TIP3   OH224948   2.408   2.698   1.862 -0.1538  0.4418 -0.7088
 1178TIP3    H124949   2.469   2.753   1.912  0.1828 -0.4905 -0.0911
 1178TIP3    H224950   2.415   2.731   1.772  0.4873  1.0144 -0.4550
 1179TIP3   OH224951   5.682   4.083   0.291  0.1281 -0.5161 -0.1572
 1179TIP3    H124952   5.744   4.049   0.226  0.2033 -0.7359  0.0273
 1179TIP3    H224953   5.677   4.014   0.357  0.8199  0.1296  0.5836
 1180TIP3   OH224954   0.112   0.752  14.465 -0.5984 -0.2134  0.6782
 1180TIP3    H124955   0.088   0.811  14.393  1.7682  0.2757  0.2424
 1180TIP3    H224956   0.117   0.665  14.424 -1.0097 -0.2188  0.6390
 1181TIP3   OH224957   2.154   2.326   2.406  0.4057  0.5931  0.4106
 1181TIP3    H124958   2.139   2.382   2.483 -1.3581  0.9404 -0.1530
 1181TIP3    H224959   2.123   2.239   2.434  0.4249  0.5617  0.3327
 1182TIP3   OH224960   4.696   2.517   0.601 -0.0030 -0.3404  0.0009
 1182TIP3    H124961   4.677   2.433   0.560 -0.1869 -0.7396  0.8958
 1182TIP3    H224962   4.670   2.506   0.692 -0.0894  0.7097  0.1125
 1183TIP3   OH224963   0.466   2.012  13.641 -0.6124  0.3135  0.2711
 1183TIP3    H124964   0.545   2.016  13.695 -0.4970 -0.8639  0.2003
 1183TIP3    H224965   0.476   1.933  13.588 -2.6304 -0.8525  1.5365
 1184TIP3   OH224966   6.577   5.533   4.660  0.0204  0.2617  0.0756
 1184TIP3    H124967   6.552   5.547   4.569 -0.0150 -1.9981 -0.2913
 1184TIP3    H224968   6.524   5.595   4.710 -1.4235  0.1363 -1.2674
 1185TIP3   OH224969   0.823   3.880  15.542  0.2204 -0.0376 -0.5550
 1185TIP3    H124970   0.855   3.909  15.628 -0.7403 -0.7923  0.0673
 1185TIP3    H224971   0.760   3.947  15.516  1.2663  0.7249 -1.1457
 1186TIP3   OH224972   0.490   1.413   1.497  0.1338  0.5237  0.3132
 1186TIP3    H124973   0.486   1.481   1.430 -0.6565  0.5213  0.3491
 1186TIP3    H224974   0.543   1.452   1.567 -0.8786  1.3779  0.6242
 1187TIP3   OH224975   4.867   3.011  16.024  0.4734 -0.3457 -0.1227
 1187TIP3    H124976   4.842   3.034  15.934  4.0901  0.2965 -1.0437
 1187TIP3    H224977   4.879   3.095  16.068  0.0525 -0.6521  0.5966
 1188TIP3   OH224978   5.898   5.898   6.231  0.2006  0.0927 -0.0974
 1188TIP3    H124979   5.861   5.825   6.280 -1.4516  0.8511 -0.1929
 1188TIP3    H224980   5.824   5.955   6.212  1.3502  1.4679 -0.6075
 1189TIP3   OH224981   4.019   2.692   3.263 -0.4581  0.2794  0.0956
 1189TIP3    H124982   3.960   2.649   3.324  0.4307  0.5237  1.1355
 1189TIP3    H224983   4.106   2.658   3.285  0.0378  1.3484 -0.1536
 1190TIP3   OH224984   3.317   2.548   3.302  0.0335 -0.0927  0.0106
 1190TIP3    H124985   3.247   2.484   3.290  0.5392 -0.2600 -2.2149
 1190TIP3    H224986   3.297   2.618   3.240  1.0857  0.5085  0.3378
 1191TIP3   OH224987   4.187   2.713   3.894 -0.0387 -0.3624  0.6636
 1191TIP3    H124988   4.115   2.772   3.915 -0.7628 -1.9080  2.7551
 1191TIP3    H224989   4.264   2.769   3.889 -0.9371  0.9373  1.1371
 1192TIP3   OH224990   1.221   4.394  11.796 -0.4880  0.4225  0.0972
 1192TIP3    H124991   1.183   4.386  11.883  0.1632 -1.0258  0.2557
 1192TIP3    H224992   1.289   4.327  11.793  0.4553  1.3991 -1.0230
 1193TIP3   OH224993   0.580   1.771  15.767  0.1555  0.1344 -0.4354
 1193TIP3    H124994   0.527   1.791  15.690 -0.3407 -1.2131 -0.4566
 1193TIP3    H224995   0.589   1.855  15.812 -0.0776  0.8149 -1.6282
 1194TIP3   OH224996   0.395   3.999  14.408 -0.1929  0.5918 -0.0756
 1194TIP3    H124997   0.472   4.047  14.379  0.5643 -0.0086  0.9099
 1194TIP3    H224998   0.366   4.044  14.487  0.7406 -0.7613  1.0617
 1195TIP3   OH224999   4.443   2.494   3.815 -0.3304 -0.6814 -0.0867
 1195TIP3    H125000   4.385   2.479   3.890 -0.7372 -1.5842 -0.5770
 1195TIP3    H225001   4.433   2.587   3.796 -0.2069 -0.4375  0.9918
 1196TIP3   OH225002   1.447   0.454  12.021  0.1696 -0.0900 -0.2767
 1196TIP3    H125003   1.410   0.504  12.094  0.1112 -0.1247 -0.2833
 1196TIP3    H225004   1.422   0.364  12.038 -0.1017 -0.0548 -0.4990
 1197TIP3   OH225005   2.276   2.163  17.078  0.5110 -0.0456 -0.4695
 1197TIP3    H125006   2.195   2.185  17.032 -0.4063 -0.1605  1.0208
 1197TIP3    H225007   2.252   2.089  17.134  1.4238  0.4410  0.5840
 1198TIP3   OH225008   4.926   3.927  15.073  0.3042 -0.4853 -0.3211
 1198TIP3    H125009   4.975   3.852  15.039 -2.7617 -1.8463 -1.9379
 1198TIP3    H225010   4.911   3.983  14.997  1.8373  1.3986  0.7176
 1199TIP3   OH225011   2.635   0.205   2.420  0.2043  0.0888  0.2384
 1199TIP3    H125012   2.729   0.220   2.431  0.6937 -1.7363 -1.3231
 1199TIP3    H225013   2.626   0.166   2.333 -2.0399  0.5020  0.2495
 1200TIP3   OH225014   4.782   0.001   3.822 -0.3041 -0.5593  0.3675
 1200TIP3    H125015   4.824  -0.081   3.798  0.6123  0.6106 -2.2610
 1200TIP3    H225016   4.847   0.046   3.877 -0.0294 -0.7750  0.2173
 1201TIP3   OH225017   3.974   0.507  16.782  0.3368 -0.2074  0.4074
 1201TIP3    H125018   3.999   0.543  16.867  0.6858 -1.4350  0.8362
 1201TIP3    H225019   4.000   0.415  16.787 -1.0699 -0.6632 -0.4451
 1202TIP3   OH225020   2.319   3.824   6.054  0.3294 -0.4331 -0.7559
 1202TIP3    H125021   2.268   3.819   6.135 -0.6479 -0.3982 -1.3487
 1202TIP3    H225022   2.342   3.734   6.034  1.1737 -0.3699 -0.0657
 1203TIP3   OH225023   4.085   3.945  11.756 -0.2386  0.7458  0.4243
 1203TIP3    H125024   4.114   4.002  11.827  0.9285  0.6173  0.0653
 1203TIP3    H225025   4.161   3.890  11.737 -1.2563 -0.7684  0.5978
 1204TIP3   OH225026   6.155   6.006  15.887  0.1866 -0.4379 -0.7941
 1204TIP3    H125027   6.067   6.041  15.875  0.7097  1.6137  0.9290
 1204TIP3    H225028   6.208   6.083  15.910  1.3553 -2.3012  3.1991
 1205TIP3   OH225029   3.766   2.983   0.569  0.0657  0.1639  0.7436
 1205TIP3    H125030   3.802   3.070   0.583 -1.5349  1.0501 -0.4726
 1205TIP3    H225031   3.800   2.955   0.484  1.1885 -0.7308  1.4729
 1206TIP3   OH225032   4.103   5.944  13.381 -0.2467  0.1926 -0.0146
 1206TIP3    H125033   4.189   5.907  13.401  0.4895  1.0005 -1.6562
 1206TIP3    H225034   4.120   6.035  13.359 -1.5182  0.3326 -0.4451
 1207TIP3   OH225035   5.589   5.103  13.721 -0.5170 -0.6427 -0.2394
 1207TIP3    H125036   5.545   5.044  13.659 -1.9247 -0.3411  0.4653
 1207TIP3    H225037   5.566   5.069  13.807  0.7539 -0.5611  0.1435
 1208TIP3   OH225038   2.761   1.305   0.748 -0.4168  0.1784 -0.0023
 1208TIP3    H125039   2.829   1.270   0.691  0.4769  2.1326 -0.1695
 1208TIP3    H225040   2.790   1.281   0.836 -1.2363 -1.8757 -0.2497
 1209TIP3   OH225041   6.451   2.694   5.406  0.7060 -0.7452 -0.0845
 1209TIP3    H125042   6.405   2.685   5.489 -0.1249 -1.2393 -0.5874
 1209TIP3    H225043   6.399   2.643   5.344  0.9554  0.1412 -1.0414
 1210TIP3   OH225044   2.122   0.946   3.679 -0.1588  0.3597 -0.3916
 1210TIP3    H125045   2.169   0.894   3.614  0.5085 -1.4808  1.4771
 1210TIP3    H225046   2.186   1.011   3.708 -0.4216  1.1063 -1.5007
 1211TIP3   OH225047   1.387   3.713   1.294  0.0696  0.4836  0.6883
 1211TIP3    H125048   1.403   3.677   1.206 -1.1866 -0.7379  0.9358
 1211TIP3    H225049   1.401   3.807   1.284  1.1822  0.2095 -0.5290
 1212TIP3   OH225050   0.077   2.231   5.272 -0.2224  1.1740  0.0920
 1212TIP3    H125051   0.169   2.221   5.248 -0.1281  0.9440  0.5446
 1212TIP3    H225052   0.067   2.179   5.351 -1.2900 -0.7021 -1.2465
 1213TIP3   OH225053   1.831   0.991  15.035  0.0269  0.1669 -0.2512
 1213TIP3    H125054   1.764   1.022  15.095 -0.6109 -1.3614 -0.1360
 1213TIP3    H225055   1.794   1.006  14.948 -0.1990 -0.0855 -0.2006
 1214TIP3   OH225056   5.570   0.032  15.357 -0.0006 -0.3208 -0.1033
 1214TIP3    H125057   5.576   0.125  15.382  1.3680 -0.2958 -0.4638
 1214TIP3    H225058   5.529   0.033  15.271 -0.1592 -0.0636 -0.0260
 1215TIP3   OH225059   1.041   2.761  15.802 -0.5277  0.6815 -0.3463
 1215TIP3    H125060   1.110   2.827  15.792 -0.0870  0.4690  1.2250
 1215TIP3    H225061   1.083   2.688  15.847 -1.4604  0.0233 -0.5221
 1216TIP3   OH225062   2.323   4.886  14.541 -0.4976  0.7110  0.4741
 1216TIP3    H125063   2.351   4.869  14.630 -0.1749  1.7016  0.5681
 1216TIP3    H225064   2.369   4.820  14.488  1.5319  1.8892  0.7038
 1217TIP3   OH225065   5.525   0.871   0.889 -0.3508 -0.3601 -0.0102
 1217TIP3    H125066   5.616   0.841   0.897 -0.0136  0.5197 -0.4859
 1217TIP3    H225067   5.487   0.814   0.823  0.9886  1.8299 -2.7631
 1218TIP3   OH225068   2.245   5.283  13.098  0.3902 -0.1478  0.0771
 1218TIP3    H125069   2.301   5.255  13.025  2.3663  1.2713  1.0135
 1218TIP3    H225070   2.276   5.232  13.172 -1.5642 -1.5270 -0.0082
 1219TIP3   OH225071   6.439   3.562   4.073 -0.0710  0.6284 -0.1932
 1219TIP3    H125072   6.385   3.493   4.035 -0.0434  0.6945 -0.3504
 1219TIP3    H225073   6.383   3.639   4.075  0.3162  0.9369 -1.2127
 1220TIP3   OH225074   1.652   5.757   4.202 -0.9552 -0.4321  0.5041
 1220TIP3    H125075   1.667   5.836   4.151 -1.2098 -0.7157 -0.0090
 1220TIP3    H225076   1.728   5.702   4.185  0.3853  0.6718  2.7164
 1221TIP3   OH225077   3.908   1.189   3.385 -0.3219 -0.2941 -0.2366
 1221TIP3    H125078   3.933   1.098   3.397 -0.0587 -0.0880  0.9118
 1221TIP3    H225079   3.833   1.186   3.325 -1.5501 -1.4371  1.2982
 1222TIP3   OH225080   0.743   1.894  13.312 -0.1956 -0.1112  0.5507
 1222TIP3    H125081   0.815   1.886  13.249 -1.3950 -1.4407 -0.7065
 1222TIP3    H225082   0.782   1.869  13.396  0.7945 -0.8923 -0.1251
 1223TIP3   OH225083   2.228   2.877  12.438 -0.5057  0.0002 -0.0870
 1223TIP3    H125084   2.305   2.835  12.478 -2.2579 -1.9570  1.3277
 1223TIP3    H225085   2.241   2.971  12.454  2.0639 -0.1931 -0.7668
 1224TIP3   OH225086   6.461   5.724  15.669  0.3085 -0.1517  0.4174
 1224TIP3    H125087   6.412   5.700  15.748 -1.3546 -1.4738 -0.9623
 1224TIP3    H225088   6.406   5.790  15.627  1.1374  0.4743  0.3116
 1225TIP3   OH225089   0.461   4.522   2.831  0.2868  0.0651 -0.2182
 1225TIP3    H125090   0.455   4.603   2.780  0.0931 -0.4510 -1.0295
 1225TIP3    H225091   0.378   4.517   2.879  0.3283  0.3843 -0.1151
 1226TIP3   OH225092   3.064   4.558  12.350 -0.0319 -0.2890 -0.4086
 1226TIP3    H125093   3.093   4.643  12.317 -0.4644 -0.0332 -0.1322
 1226TIP3    H225094   3.046   4.574  12.443 -0.7704 -0.5192 -0.5101
 1227TIP3   OH225095   1.235   2.495   0.267 -0.0782  0.3392  0.0160
 1227TIP3    H125096   1.241   2.419   0.209  1.3347  0.0602  0.5204
 1227TIP3    H225097   1.281   2.564   0.220  0.4127  0.3189  0.4634
 1228TIP3   OH225098   6.318   4.769   5.446 -0.6040  0.2948  0.2332
 1228TIP3    H125099   6.372   4.826   5.499  1.7742 -2.5261  0.9810
 1228TIP3    H225100   6.365   4.686   5.444 -1.8720 -0.4639 -4.1945
 1229TIP3   OH225101   4.908   4.189   5.414  0.0775  0.0336 -0.5456
 1229TIP3    H125102   4.926   4.278   5.385 -1.0749  0.9302  1.3580
 1229TIP3    H225103   4.937   4.188   5.506 -1.1552 -1.1487 -0.1573
 1230TIP3   OH225104   4.107   2.080   2.167  0.2062 -0.2996 -0.2282
 1230TIP3    H125105   4.161   2.015   2.123 -1.0914 -0.7276 -1.2254
 1230TIP3    H225106   4.017   2.057   2.143 -0.3299  1.3536  0.0877
 1231TIP3   OH225107   0.222   5.050   4.984  0.5985  0.2541 -0.3531
 1231TIP3    H125108   0.264   4.977   5.029  0.7332  0.3332 -0.3501
 1231TIP3    H225109   0.223   5.024   4.891  1.2950  0.5677 -0.4403
 1232TIP3   OH225110   2.563   1.149  12.380  0.0025 -0.5263 -0.6538
 1232TIP3    H125111   2.625   1.130  12.311  1.0826 -0.0605  0.1697
 1232TIP3    H225112   2.527   1.235  12.358  0.8249 -0.0880 -0.3003
 1233TIP3   OH225113   2.449   1.461   3.503 -0.4701  0.5018 -0.4091
 1233TIP3    H125114   2.456   1.399   3.576  0.5648  1.3106  0.1828
 1233TIP3    H225115   2.534   1.505   3.499 -0.2716 -0.0001 -2.5484
 1234TIP3   OH225116   0.316   3.149   2.613  0.2423  0.3140 -0.6419
 1234TIP3    H125117   0.333   3.225   2.559 -0.2683  0.9464  0.0779
 1234TIP3    H225118   0.363   3.166   2.695  0.6180 -0.4133 -0.7016
 1235TIP3   OH225119   6.416   3.221  16.080  0.3259 -0.3247  0.2216
 1235TIP3    H125120   6.397   3.290  16.016 -1.3844 -0.0412  1.0202
 1235TIP3    H225121   6.422   3.267  16.164 -0.2121 -1.0572  0.6668
 1236TIP3   OH225122   0.986   5.675   3.857  0.0743 -0.2648 -0.1838
 1236TIP3    H125123   1.025   5.588   3.847 -1.6437 -1.1503  0.5778
 1236TIP3    H225124   0.954   5.697   3.770 -1.2032 -1.2768 -0.0018
 1237TIP3   OH225125   0.803   1.192   3.685  0.1796 -0.2586 -0.2085
 1237TIP3    H125126   0.777   1.100   3.684  1.9331 -0.7874  0.2198
 1237TIP3    H225127   0.730   1.238   3.726  0.1641 -1.7639  1.4972
 1238TIP3   OH225128   0.315   2.576   4.961 -0.1561 -0.1572  0.1109
 1238TIP3    H125129   0.287   2.563   4.870  1.8537  3.5229 -1.1304
 1238TIP3    H225130   0.269   2.655   4.989  2.0598  0.8675  1.0080
 1239TIP3   OH225131   2.594   3.531   4.439  0.2140  0.0970  0.5578
 1239TIP3    H125132   2.513   3.575   4.464 -0.1701  0.1582 -0.7351
 1239TIP3    H225133   2.566   3.463   4.378  1.2304  0.6913 -0.5881
 1240TIP3   OH225134   2.631   0.279  11.195 -0.3271 -0.0958 -0.1893
 1240TIP3    H125135   2.628   0.371  11.223  0.5219 -0.1833  0.2219
 1240TIP3    H225136   2.688   0.237  11.259  0.0511 -0.7135 -0.9234
 1241TIP3   OH225137   5.192   0.842   6.092  0.0839 -0.1590 -0.4846
 1241TIP3    H125138   5.235   0.909   6.145  1.2051 -1.0689 -0.2159
 1241TIP3    H225139   5.105   0.877   6.074 -0.3652  0.1305  2.0492
 1242TIP3   OH225140   0.918   2.056   4.955 -0.1854  0.6129  0.2172
 1242TIP3    H125141   0.850   2.063   5.022  0.3353  0.6055  0.7457
 1242TIP3    H225142   0.912   1.966   4.925  0.9532  0.0112  1.7196
 1243TIP3   OH225143   2.878   2.627  14.677 -0.0783 -0.2226 -0.2675
 1243TIP3    H125144   2.880   2.535  14.704 -1.7738  0.0873  0.9281
 1243TIP3    H225145   2.964   2.661  14.704 -0.0215 -1.0603  0.6484
 1244TIP3   OH225146   3.798   3.009   3.041 -0.8400  0.4961  0.3199
 1244TIP3    H125147   3.721   2.956   3.063 -0.2140 -0.3411  0.5506
 1244TIP3    H225148   3.763   3.083   2.992 -1.6756 -0.5187 -0.6577
 1245TIP3   OH225149   0.767   3.803   2.757 -0.2812  0.5230  0.1154
 1245TIP3    H125150   0.843   3.841   2.713 -2.2349  3.6064 -0.8044
 1245TIP3    H225151   0.770   3.840   2.846  0.5850 -1.2834  0.8683
 1246TIP3   OH225152   1.525   0.798   0.962  0.1956  0.1247  0.0730
 1246TIP3    H125153   1.492   0.768   0.877 -1.1784 -0.9549  0.9754
 1246TIP3    H225154   1.575   0.724   0.995 -0.8427 -0.1593  1.0367
 1247TIP3   OH225155   5.026   6.288   4.785 -0.2870 -0.0282 -0.4647
 1247TIP3    H125156   5.023   6.242   4.700 -0.9315  1.6415 -1.3650
 1247TIP3    H225157   5.040   6.380   4.762 -0.0334  0.3721  1.2743
 1248TIP3   OH225158   0.628   4.668   4.587  0.2917 -0.1384  0.2356
 1248TIP3    H125159   0.695   4.611   4.625 -0.3000 -0.4817  0.7749
 1248TIP3    H225160   0.643   4.753   4.627  0.8907 -0.0272 -0.2249
 1249TIP3   OH225161   4.746   1.960  16.159  0.7812  0.3577 -0.0666
 1249TIP3    H125162   4.740   1.878  16.111  1.5090 -0.7097  1.5840
 1249TIP3    H225163   4.832   1.956  16.201  0.3558  1.4448  0.9326
 1250TIP3   OH225164   4.329   0.414   1.535  0.3287  0.7976  0.0552
 1250TIP3    H125165   4.362   0.497   1.569 -0.3873  2.1242 -2.3477
 1250TIP3    H225166   4.407   0.364   1.514  0.8518  2.3582 -1.9083
 1251TIP3   OH225167   6.611   3.351  13.845 -0.2475  0.1442  0.8161
 1251TIP3    H125168   6.651   3.414  13.785 -1.2399  0.7327  0.7576
 1251TIP3    H225169   6.625   3.266  13.804  0.0579  0.4422  0.3013
 1252TIP3   OH225170   1.859   4.624  16.102  0.5019  0.0502 -0.2434
 1252TIP3    H125171   1.937   4.637  16.048 -0.5646  0.3366 -1.7512
 1252TIP3    H225172   1.812   4.707  16.098  0.3753  0.0582  1.0887
 1253TIP3   OH225173   0.913   2.536  16.187 -0.2622  0.0685 -0.1090
 1253TIP3    H125174   0.960   2.459  16.156 -0.4421  0.4662 -1.3651
 1253TIP3    H225175   0.826   2.503  16.211 -1.0949  0.2474 -2.7338
 1254TIP3   OH225176   6.248   0.045   1.803  0.3343 -0.0903  0.1670
 1254TIP3    H125177   6.273  -0.047   1.805  0.9939 -0.0039 -2.6512
 1254TIP3    H225178   6.327   0.093   1.828 -0.1151 -0.2546  2.0257
 1255TIP3   OH225179   1.729   1.677   5.538 -0.1212 -0.3001  0.2828
 1255TIP3    H125180   1.785   1.754   5.547  0.6016 -0.8804  0.7925
 1255TIP3    H225181   1.738   1.650   5.447  2.1754 -1.6962  0.8677
 1256TIP3   OH225182   2.271   5.936   5.906 -0.2831 -0.3730 -0.6313
 1256TIP3    H125183   2.253   5.979   5.822  1.2480 -0.2094 -0.8877
 1256TIP3    H225184   2.312   6.004   5.960 -1.5608 -0.3773  0.3832
 1257TIP3   OH225185   3.749   2.395  11.407 -0.0745 -0.6265 -0.1982
 1257TIP3    H125186   3.764   2.300  11.408 -0.3466 -0.6665  0.2487
 1257TIP3    H225187   3.682   2.409  11.341 -0.4719 -0.8138  0.1634
 1258TIP3   OH225188   1.005   1.080  12.982  0.2903 -0.6498  0.5325
 1258TIP3    H125189   1.038   1.007  13.035 -0.1966 -1.9633 -0.9420
 1258TIP3    H225190   0.913   1.059  12.968 -0.3350  1.2552  1.7399
 1259TIP3   OH225191   6.385   4.863   5.704 -0.1717 -0.3219 -0.0463
 1259TIP3    H125192   6.390   4.918   5.783  1.9351 -1.3975  0.6067
 1259TIP3    H225193   6.339   4.784   5.732 -4.4553  1.5993 -1.3282
 1260TIP3   OH225194   2.740   3.996  14.149 -0.0556  0.5376  0.4706
 1260TIP3    H125195   2.805   4.059  14.179  0.7404 -0.5117  0.9931
 1260TIP3    H225196   2.783   3.911  14.159 -2.2786 -0.3549  2.9138
 1261TIP3   OH225197   1.033   4.775   0.128  0.6448  0.4048  0.1824
 1261TIP3    H125198   0.999   4.733   0.049  0.9932 -0.2602  0.3794
 1261TIP3    H225199   0.977   4.851   0.141 -0.6754 -0.6030  0.4359
 1262TIP3   OH225200   0.419   4.099  11.597  0.0294 -0.3829  0.3425
 1262TIP3    H125201   0.476   4.135  11.665 -0.5155  0.4904  0.3498
 1262TIP3    H225202   0.435   4.005  11.599  2.7154  0.0004 -0.7641
 1263TIP3   OH225203   3.525   4.366   5.459  0.3059  0.1021  0.4087
 1263TIP3    H125204   3.432   4.374   5.437  1.1676 -0.7557 -4.0229
 1263TIP3    H225205   3.568   4.435   5.408  2.1911  0.0470  1.8614
 1264TIP3   OH225206   0.030   4.553  12.473  0.0296  0.6547  0.1828
 1264TIP3    H125207   0.016   4.647  12.481  1.3194  0.8279  0.4247
 1264TIP3    H225208   0.086   4.543  12.396  1.9896  0.2826  1.6339
 1265TIP3   OH225209   3.149   1.912  13.748 -0.1625  0.3745 -0.0915
 1265TIP3    H125210   3.129   1.886  13.838 -0.6365  3.7840  0.8446
 1265TIP3    H225211   3.179   1.831  13.706  2.3115 -0.8469  3.7566
 1266TIP3   OH225212   3.817   1.609   3.304  0.1240 -0.1275 -0.2178
 1266TIP3    H125213   3.908   1.588   3.325  0.7133  2.6919  0.2880
 1266TIP3    H225214   3.766   1.549   3.358  1.6774  0.1126  1.5734
 1267TIP3   OH225215   1.610   0.801   5.448  0.4146 -0.2137 -0.1791
 1267TIP3    H125216   1.565   0.805   5.364 -1.2364 -0.4710  0.6582
 1267TIP3    H225217   1.684   0.743   5.434  0.0844 -0.3396 -1.4186
 1268TIP3   OH225218   5.319   5.810  15.792 -0.0676  0.0789 -0.1539
 1268TIP3    H125219   5.380   5.794  15.720  0.4415 -1.2458  0.5468
 1268TIP3    H225220   5.233   5.796  15.755  0.1154  0.6388 -0.8111
 1269TIP3   OH225221   0.968   1.976  14.254  0.2124 -0.6767 -0.0776
 1269TIP3    H125222   0.978   2.045  14.189 -0.9406 -0.2924  0.1539
 1269TIP3    H225223   0.891   2.001  14.304 -0.8444 -2.6825 -0.6675
 1270TIP3   OH225224   1.185   2.862   2.815  0.4758 -0.1473 -0.5901
 1270TIP3    H125225   1.216   2.952   2.803  0.8950 -0.2314 -0.1070
 1270TIP3    H225226   1.095   2.872   2.845  0.5709  0.1104 -0.3944
 1271TIP3   OH225227   6.207   0.318  16.640 -0.6132 -0.0813 -0.0631
 1271TIP3    H125228   6.163   0.326  16.556 -0.4677  1.0148 -0.0427
 1271TIP3    H225229   6.202   0.406  16.678 -0.6261 -0.5573  1.0454
 1272TIP3   OH225230   2.716   5.391   4.863 -0.1702  0.4425 -0.3241
 1272TIP3    H125231   2.788   5.353   4.813  0.0037  1.4327 -0.8264
 1272TIP3    H225232   2.637   5.364   4.815 -0.1950 -1.2551  0.6302
 1273TIP3   OH225233   2.144   1.069  16.805 -0.1156 -0.0703 -0.1095
 1273TIP3    H125234   2.184   1.065  16.892 -1.5870 -0.2783  0.5801
 1273TIP3    H225235   2.103   1.156  16.803 -0.9834 -0.4781 -0.1800
 1274TIP3   OH225236   6.639   3.587  13.047  0.0282 -0.1380 -0.5845
 1274TIP3    H125237   6.601   3.504  13.075 -0.1963  0.2627  0.3081
 1274TIP3    H225238   6.698   3.563  12.975  0.8014 -1.2081  0.3943
 1275TIP3   OH225239   3.362   3.654  14.918 -0.2767 -0.1741  0.1476
 1275TIP3    H125240   3.350   3.590  14.987  0.7170  0.3870  0.8579
 1275TIP3    H225241   3.422   3.612  14.856  0.6626  0.1794  0.7926
 1276TIP3   OH225242   4.836   5.070  11.774 -0.1774  0.0580 -0.8374
 1276TIP3    H125243   4.871   4.985  11.800 -1.3522 -0.2496 -0.1937
 1276TIP3    H225244   4.910   5.129  11.778  0.5921 -0.8796 -1.0113
 1277TIP3   OH225245   0.215   4.254  16.840 -0.3420  0.0612  0.3716
 1277TIP3    H125246   0.259   4.270  16.757 -1.4635  2.1880  0.1286
 1277TIP3    H225247   0.216   4.159  16.851  2.2498 -0.0755 -0.7036
 1278TIP3   OH225248   2.274   0.997  14.819 -0.1424  0.7230 -0.0778
 1278TIP3    H125249   2.261   1.047  14.900  1.8438 -0.3792  0.9734
 1278TIP3    H225250   2.363   1.018  14.792  0.2026 -1.1110 -0.4181
 1279TIP3   OH225251   0.909   5.538  11.781 -0.0077 -0.0721  0.2294
 1279TIP3    H125252   0.840   5.479  11.812 -0.0142 -0.4691 -0.5204
 1279TIP3    H225253   0.906   5.612  11.841  0.6784 -1.2871  1.7900
 1280TIP3   OH225254   1.735   2.144   0.674  0.0364  0.7556 -0.2669
 1280TIP3    H125255   1.643   2.134   0.649  0.8542  1.1044 -3.7445
 1280TIP3    H225256   1.752   2.238   0.664  0.5048  0.8734  1.4746
 1281TIP3   OH225257   5.020   3.171  14.649 -0.5747  0.3355 -1.0890
 1281TIP3    H125258   4.950   3.106  14.652 -1.1262  0.9269 -1.2751
 1281TIP3    H225259   5.098   3.120  14.624 -1.0707 -0.1969 -1.5491
 1282TIP3   OH225260   5.882   4.733   4.161  0.4265  0.5935  0.0295
 1282TIP3    H125261   5.923   4.672   4.224 -0.8877  0.7564  1.0645
 1282TIP3    H225262   5.856   4.807   4.215 -2.5089 -0.1163 -0.3537
 1283TIP3   OH225263   6.021   6.762  16.176  0.0439 -0.1930 -0.1058
 1283TIP3    H125264   5.967   6.822  16.226  2.6936  0.9711  1.4500
 1283TIP3    H225265   6.058   6.703  16.242  3.4428  1.2561 -0.6389
 1284TIP3   OH225266   2.898   1.049  14.524  0.3644 -0.3503  0.1703
 1284TIP3    H125267   2.882   1.137  14.558  1.6814 -0.2019  0.4262
 1284TIP3    H225268   2.953   1.008  14.590  1.5965 -0.6114 -0.9875
 1285TIP3   OH225269   2.861   5.156   3.672 -0.2706  0.6850 -0.0314
 1285TIP3    H125270   2.768   5.172   3.654 -0.7852 -3.4512 -1.4800
 1285TIP3    H225271   2.904   5.167   3.587 -0.3561 -3.1807 -0.6376
 1286TIP3   OH225272   1.796   3.694   3.271  0.7584 -0.0272  0.6075
 1286TIP3    H125273   1.849   3.680   3.350  0.1629  0.9989  1.2035
 1286TIP3    H225274   1.852   3.664   3.200  0.6008 -2.6550  1.5606
 1287TIP3   OH225275   2.824   5.631  10.491 -0.2141  0.2917 -0.8779
 1287TIP3    H125276   2.808   5.715  10.536 -0.2553 -0.2612  0.1563
 1287TIP3    H225277   2.785   5.565  10.549 -0.2079 -0.4456 -1.7025
 1288TIP3   OH225278   3.341   3.328   1.119  0.4866  0.0630  0.0984
 1288TIP3    H125279   3.273   3.272   1.155  0.5901  0.6807  1.2605
 1288TIP3    H225280   3.330   3.320   1.024  1.2184 -2.8200  0.1958
 1289TIP3   OH225281   3.488   0.793   5.733 -0.1189  0.1516  0.3601
 1289TIP3    H125282   3.580   0.770   5.746  0.2653  0.3477 -1.8374
 1289TIP3    H225283   3.441   0.737   5.794  1.3348 -1.2610  0.2306
 1290TIP3   OH225284   3.042   4.225  16.706  0.0205 -0.1845 -0.6099
 1290TIP3    H125285   2.993   4.167  16.647 -0.7836  2.1768 -2.3166
 1290TIP3    H225286   3.134   4.199  16.694 -0.5158 -2.7326  0.5025
 1291TIP3   OH225287   5.410   4.376   3.189  0.2478 -0.4254  0.3596
 1291TIP3    H125288   5.407   4.328   3.106  1.7917  0.0606  0.0183
 1291TIP3    H225289   5.422   4.467   3.164 -1.8309  0.0788  1.0422
 1292TIP3   OH225290   5.172   2.228  14.358 -0.3691 -0.0728  0.0155
 1292TIP3    H125291   5.173   2.316  14.321  0.3285 -0.2704 -0.4558
 1292TIP3    H225292   5.168   2.241  14.452  0.1668  0.4758 -0.0339
 1293TIP3   OH225293   6.419   2.892   1.185  0.7109  0.2122 -0.4148
 1293TIP3    H125294   6.429   2.818   1.245 -0.0228 -0.8607 -1.6149
 1293TIP3    H225295   6.460   2.863   1.104 -1.8686  0.1223 -1.7276
 1294TIP3   OH225296   4.189   5.092   1.376 -0.6269 -0.4881 -0.0277
 1294TIP3    H125297   4.221   5.007   1.348  0.9849 -0.0679  0.4857
 1294TIP3    H225298   4.119   5.073   1.438 -0.9008 -1.4249 -0.6241
 1295TIP3   OH225299   3.867   5.912   5.126  0.1646  0.6061  0.2032
 1295TIP3    H125300   3.857   5.868   5.210 -0.3334  0.6926  0.1878
 1295TIP3    H225301   3.905   5.845   5.069 -0.6834  0.1595  0.1542
 1296TIP3   OH225302   0.830   6.397  13.548  0.0217  0.1625 -0.0836
 1296TIP3    H125303   0.842   6.303  13.562 -0.1100  0.4054  1.7486
 1296TIP3    H225304   0.737   6.413  13.567  0.3575  0.8891  1.0016
 1297TIP3   OH225305   1.238   4.539  14.483  0.0283  0.2089  0.3743
 1297TIP3    H125306   1.269   4.625  14.454  0.9830 -0.2441  0.0237
 1297TIP3    H225307   1.156   4.526  14.437  0.8532  0.0893 -1.0782
 1298TIP3   OH225308   6.745   1.288   1.879  0.0887  0.5246 -0.1059
 1298TIP3    H125309   6.708   1.229   1.812  1.4811 -0.3456 -0.1237
 1298TIP3    H225310   6.717   1.375   1.852 -0.9554 -0.0010 -0.7749
 1299TIP3   OH225311   3.830   1.932   4.360  0.0445 -0.4391 -0.4338
 1299TIP3    H125312   3.832   1.941   4.455 -3.2649  1.2106 -0.4396
 1299TIP3    H225313   3.823   2.022   4.327  0.4810 -1.0256 -2.2034
 1300TIP3   OH225314   2.301   2.906  12.045 -0.0718  0.2366  0.1362
 1300TIP3    H125315   2.387   2.918  12.004 -0.6497  1.7849 -0.6628
 1300TIP3    H225316   2.291   2.982  12.102 -0.8071 -0.0617  0.4070
 1301TIP3   OH225317   1.826   6.486   5.525  0.2397 -0.0275  0.3833
 1301TIP3    H125318   1.882   6.516   5.597  0.4725 -0.3202  0.3268
 1301TIP3    H225319   1.862   6.400   5.501  0.9297  0.6110 -0.9062
 1302TIP3   OH225320   3.032   6.067  13.441  0.0895 -0.1269  0.4903
 1302TIP3    H125321   3.057   6.085  13.350 -1.3275 -2.3816 -0.3935
 1302TIP3    H225322   2.954   6.122  13.454 -1.6047 -2.1349 -0.7548
 1303TIP3   OH225323   3.744   4.873  14.874  0.3401  0.4645 -0.0021
 1303TIP3    H125324   3.821   4.854  14.927 -0.6038 -1.1778  0.8242
 1303TIP3    H225325   3.694   4.937  14.925  1.0126  1.3174 -0.4093
 1304TIP3   OH225326   3.899   0.510  13.921 -0.0357 -0.4212  0.1242
 1304TIP3    H125327   3.845   0.450  13.870  1.3088 -1.5710  0.0491
 1304TIP3    H225328   3.915   0.465  14.004 -2.3622  1.5090  1.7020
 1305TIP3   OH225329   3.421   2.762  15.243 -0.5707  0.5269 -0.0848
 1305TIP3    H125330   3.468   2.813  15.309 -0.1600 -0.9465  0.7741
 1305TIP3    H225331   3.465   2.784  15.161 -0.3940  1.5517  0.2807
 1306TIP3   OH225332   1.819   1.226   0.637 -0.4501  0.1984  0.2406
 1306TIP3    H125333   1.730   1.251   0.662 -0.4809 -0.4569  0.8112
 1306TIP3    H225334   1.836   1.146   0.686 -0.2956 -0.8105 -1.4140
 1307TIP3   OH225335   1.332   3.539  16.845 -0.3167 -0.9649  0.0733
 1307TIP3    H125336   1.394   3.467  16.832  0.0030 -0.9164  1.2896
 1307TIP3    H225337   1.364   3.609  16.788  2.0705 -0.1222  2.3595
 1308TIP3   OH225338   2.881   6.692   0.677 -0.3942 -0.2504  0.1180
 1308TIP3    H125339   2.801   6.723   0.633 -1.1481 -0.1756  1.5336
 1308TIP3    H225340   2.914   6.623   0.619 -2.1882 -1.1799  0.1619
 1309TIP3   OH225341   2.826   6.279   1.408 -0.6679  0.0224  0.1267
 1309TIP3    H125342   2.776   6.340   1.462 -1.0282  1.0285 -1.3154
 1309TIP3    H225343   2.867   6.334   1.342 -0.2335 -1.1923 -0.6185
 1310TIP3   OH225344   6.025   1.529   6.351  0.1776 -0.5787 -0.0653
 1310TIP3    H125345   5.981   1.606   6.387  0.6044  0.2814 -1.3159
 1310TIP3    H225346   5.995   1.526   6.260  0.1014 -1.9480 -0.0025
 1311TIP3   OH225347   1.471   0.970   4.391 -0.2924 -0.6788 -0.3920
 1311TIP3    H125348   1.531   0.989   4.318 -1.5030 -1.1285 -1.5364
 1311TIP3    H225349   1.404   1.038   4.384 -0.2127 -0.4949  0.5584
 1312TIP3   OH225350   1.580   1.481  16.994 -0.0271  0.4840  0.0372
 1312TIP3    H125351   1.537   1.479  17.079  0.2326  1.5348  0.2040
 1312TIP3    H225352   1.535   1.414  16.942  0.2920 -0.6442  1.2175
 1313TIP3   OH225353   4.533   2.849   1.751  0.2353 -0.0281  0.3664
 1313TIP3    H125354   4.585   2.852   1.831 -0.2581  1.1475  0.6505
 1313TIP3    H225355   4.509   2.940   1.734  0.9569 -0.1536 -1.5321
 1314TIP3   OH225356   1.124   1.523   2.839  0.1438 -0.2415  0.5341
 1314TIP3    H125357   1.118   1.438   2.883  0.5872 -0.1655  0.7392
 1314TIP3    H225358   1.187   1.509   2.768  0.1357 -0.1139  0.5024
 1315TIP3   OH225359   2.176   3.269  15.440 -0.0669  0.7568 -0.0107
 1315TIP3    H125360   2.263   3.287  15.404  0.3846  0.3491  0.8702
 1315TIP3    H225361   2.119   3.267  15.363  0.5343  2.0037 -0.5053
 1316TIP3   OH225362   1.068   3.223  13.552  0.0128 -0.1249 -0.0076
 1316TIP3    H125363   1.156   3.259  13.544 -0.1899  0.4011  0.1226
 1316TIP3    H225364   1.049   3.187  13.465 -0.2563  1.1845 -0.5143
 1317TIP3   OH225365   4.536   1.245  13.057  0.1058  0.4780  0.1298
 1317TIP3    H125366   4.583   1.312  13.106 -1.7050  3.2181 -1.7268
 1317TIP3    H225367   4.446   1.251  13.088  0.0809 -1.7026  0.5297
 1318TIP3   OH225368   3.574   2.178   3.905 -0.3667 -0.0641 -0.2310
 1318TIP3    H125369   3.622   2.095   3.900  0.8361  0.6892 -2.2975
 1318TIP3    H225370   3.523   2.172   3.985  0.6825 -2.2760  0.3197
 1319TIP3   OH225371   4.827   1.163  16.297 -0.1927  0.3122  0.2431
 1319TIP3    H125372   4.779   1.217  16.359  0.2017 -0.6166  1.3765
 1319TIP3    H225373   4.759   1.127  16.240 -0.5509  1.1889  0.1134
 1320TIP3   OH225374   2.651   2.019  13.510 -0.1272  0.0798 -0.1094
 1320TIP3    H125375   2.648   2.113  13.488  0.1531  0.2857  0.7169
 1320TIP3    H225376   2.646   1.975  13.425  0.2176  0.8561 -0.5448
 1321TIP3   OH225377   5.434   3.498   3.526 -0.4748  0.0625 -0.0497
 1321TIP3    H125378   5.476   3.548   3.596 -0.5116 -0.4091  0.3072
 1321TIP3    H225379   5.340   3.502   3.545 -0.5881  0.9402 -0.7331
 1322TIP3   OH225380   5.434   2.971   4.878 -0.9942 -0.2793  0.2270
 1322TIP3    H125381   5.462   2.977   4.787  0.0054  0.7441  0.5924
 1322TIP3    H225382   5.428   3.062   4.907 -0.0287 -0.6317  1.5636
 1323TIP3   OH225383   6.459   4.027  15.835  0.3797  0.0286 -0.9269
 1323TIP3    H125384   6.485   4.032  15.927  1.1062  0.9625 -1.1800
 1323TIP3    H225385   6.430   4.115  15.814  0.4093 -0.1384 -1.6647
 1324TIP3   OH225386   1.082   4.512  12.946  0.4943  0.2968  0.1298
 1324TIP3    H125387   1.058   4.483  12.858  0.9440  0.0745  0.0811
 1324TIP3    H225388   1.121   4.598  12.933 -0.1837  0.6182  0.2009
 1325TIP3   OH225389   6.322   4.910   0.928  0.2742 -0.3358  0.1352
 1325TIP3    H125390   6.260   4.956   0.872  0.1905 -0.0671  0.4455
 1325TIP3    H225391   6.404   4.910   0.879  0.1783 -0.1768 -0.0247
 1326TIP3   OH225392   1.023   5.936   2.303 -0.3558 -0.1229  0.4225
 1326TIP3    H125393   1.007   6.005   2.367 -0.1897 -0.4464  0.8163
 1326TIP3    H225394   0.936   5.911   2.274 -0.3317  1.8531 -1.4549
 1327TIP3   OH225395   6.614   5.820   3.459 -0.0141  0.4577 -0.0328
 1327TIP3    H125396   6.705   5.812   3.430 -0.2424  1.6940 -1.0915
 1327TIP3    H225397   6.605   5.751   3.525  1.6776  0.2948  0.0620
 1328TIP3   OH225398   0.494   3.547  12.738  0.6977 -0.2213  0.1921
 1328TIP3    H125399   0.475   3.454  12.754  0.8696 -0.7520 -2.4054
 1328TIP3    H225400   0.588   3.555  12.754  0.4848 -0.2205  1.5203
 1329TIP3   OH225401   1.208   3.595  17.072  0.1767 -0.3434 -0.3254
 1329TIP3    H125402   1.290   3.607  17.120 -0.5542 -0.8318  1.0903
 1329TIP3    H225403   1.235   3.578  16.982  1.5262  2.5687 -0.5280
 1330TIP3   OH225404   4.966   4.971   5.798  0.0944 -0.1749  0.5942
 1330TIP3    H125405   4.973   4.890   5.748 -1.0289 -1.4470  2.4366
 1330TIP3    H225406   4.983   4.946   5.889 -0.6385  1.5642  1.2501
 1331TIP3   OH225407   3.444   6.397   5.614 -0.0374  0.6542  0.2730
 1331TIP3    H125408   3.522   6.381   5.561 -1.5799 -0.5965 -1.6802
 1331TIP3    H225409   3.432   6.316   5.663 -0.4239  0.6402  0.1532
 1332TIP3   OH225410   5.183   1.949   6.282  0.1944 -0.0663 -0.5364
 1332TIP3    H125411   5.251   2.013   6.303 -0.8558  0.4523  1.3758
 1332TIP3    H225412   5.189   1.884   6.352 -0.6810 -0.4951 -0.8560
 1333TIP3   OH225413   0.103   1.749   0.570 -0.4718  0.1227  0.4212
 1333TIP3    H125414   0.074   1.814   0.506 -1.7012  0.3022  1.1448
 1333TIP3    H225415   0.138   1.678   0.517 -0.5674  0.6914 -0.4226
 1334TIP3   OH225416   4.390   1.435  10.873 -0.2249  0.2094 -0.4461
 1334TIP3    H125417   4.345   1.518  10.891 -0.6515  0.1730 -1.3506
 1334TIP3    H225418   4.413   1.440  10.780  1.3868  0.1102 -0.0688
 1335TIP3   OH225419   2.125   5.288  12.563  0.4069  0.1946  0.1139
 1335TIP3    H125420   2.111   5.369  12.515  0.2272 -0.4873 -1.0135
 1335TIP3    H225421   2.129   5.220  12.495  1.5769 -0.6051  0.9566
 1336TIP3   OH225422   1.617   3.615   5.240 -0.1426  0.3601  0.0785
 1336TIP3    H125423   1.552   3.668   5.285 -0.9916 -1.6688  1.3013
 1336TIP3    H225424   1.679   3.590   5.309  0.9602  0.8167 -0.7365
 1337TIP3   OH225425   4.501   3.433  15.000  0.2478 -0.2693 -0.0538
 1337TIP3    H125426   4.433   3.382  15.043  2.0202 -0.1143  3.0951
 1337TIP3    H225427   4.458   3.473  14.925 -2.4441 -2.2441  0.3712
 1338TIP3   OH225428   6.357   3.769   3.453 -0.4906 -0.1864  0.0806
 1338TIP3    H125429   6.298   3.750   3.526 -0.2407 -1.8113 -0.1183
 1338TIP3    H225430   6.443   3.779   3.494 -1.0087  2.9309  0.4565
 1339TIP3   OH225431   4.487   4.472   6.472  0.2431  0.6958 -0.7145
 1339TIP3    H125432   4.429   4.524   6.528  1.4423 -0.7538  1.9737
 1339TIP3    H225433   4.487   4.385   6.512  3.0742  0.2715 -1.5346
 1340TIP3   OH225434   6.180   6.661  15.956 -0.3513  0.1950  0.5999
 1340TIP3    H125435   6.149   6.710  16.032  0.0052 -1.4357  1.8330
 1340TIP3    H225436   6.197   6.573  15.990  0.1033 -0.4763 -1.3080
 1341TIP3   OH225437   0.580   4.437  15.522 -0.4812 -0.0272  0.2135
 1341TIP3    H125438   0.625   4.373  15.466  1.3202 -0.9342  2.6333
 1341TIP3    H225439   0.544   4.384  15.593  0.1033  1.5243  1.6694
 1342TIP3   OH225440   4.765   3.864  11.040 -0.6664  0.3607  0.2876
 1342TIP3    H125441   4.794   3.915  10.965  0.0692  0.4493  0.6276
 1342TIP3    H225442   4.845   3.838  11.085 -1.1215  2.0362  2.1769
 1343TIP3   OH225443   0.400   0.650  12.553 -0.3654 -0.6786  0.1852
 1343TIP3    H125444   0.388   0.694  12.469  1.4303 -0.2574  0.1164
 1343TIP3    H225445   0.495   0.653  12.568 -0.4348 -2.6567  1.1959
 1344TIP3   OH225446   4.611   2.073   3.332  0.0256 -0.0484 -0.0820
 1344TIP3    H125447   4.525   2.115   3.325  0.1016  0.1276  0.0128
 1344TIP3    H225448   4.671   2.138   3.296  0.2954  0.4321  1.1979
 1345TIP3   OH225449   1.791   1.342  14.901  0.0836  0.6667  0.4576
 1345TIP3    H125450   1.706   1.369  14.868 -0.2762  0.0862  0.8914
 1345TIP3    H225451   1.771   1.287  14.977  0.6476 -3.5659 -2.2577
 1346TIP3   OH225452   1.425   0.188  16.140 -0.1361  0.0293  0.3505
 1346TIP3    H125453   1.378   0.261  16.099 -1.3877 -0.4218  0.9727
 1346TIP3    H225454   1.504   0.229  16.176  0.1043  0.7413 -0.9314
 1347TIP3   OH225455   4.627   2.212   0.784  0.1168  0.5984 -0.2535
 1347TIP3    H125456   4.641   2.303   0.808 -2.8776  0.9217  0.4297
 1347TIP3    H225457   4.592   2.171   0.863 -2.0554 -0.2607 -1.6038
 1348TIP3   OH225458   3.787   5.182   3.755  0.4956  0.1827  0.3557
 1348TIP3    H125459   3.848   5.152   3.687 -0.5423  1.0460 -0.9808
 1348TIP3    H225460   3.841   5.186   3.834  1.7481 -0.7660 -0.4166
 1349TIP3   OH225461   6.152   4.321  13.594  0.4078  0.0480  0.3009
 1349TIP3    H125462   6.076   4.266  13.616 -1.1484  1.2320 -1.9368
 1349TIP3    H225463   6.133   4.406  13.634 -0.3403  0.8858 -1.7789
 1350TIP3   OH225464   6.173   3.819   0.553  0.0453  0.5421  0.5637
 1350TIP3    H125465   6.264   3.793   0.568  0.0023  0.9693  1.5867
 1350TIP3    H225466   6.180   3.905   0.511  0.1197  0.2721  0.0112
 1351TIP3   OH225467   3.160   6.749  12.486  0.4867 -0.0523  0.4011
 1351TIP3    H125468   3.150   6.747  12.390 -2.8117 -0.7714  0.7024
 1351TIP3    H225469   3.236   6.694  12.503  0.3025 -1.0305 -1.7444
 1352TIP3   OH225470   3.611   6.040  16.559  0.3218  0.0632  0.3039
 1352TIP3    H125471   3.650   6.007  16.478  0.7154 -0.5728  0.7536
 1352TIP3    H225472   3.640   6.131  16.564 -0.5727  0.4282 -0.8089
 1353TIP3   OH225473   5.192   0.201  11.419 -0.2693  0.3766 -0.2440
 1353TIP3    H125474   5.101   0.172  11.415  0.5648 -2.5143  0.7279
 1353TIP3    H225475   5.202   0.238  11.507  0.0663 -1.3543  0.4546
 1354TIP3   OH225476   6.383   2.842   4.128  0.3377  0.2647 -0.3574
 1354TIP3    H125477   6.348   2.774   4.070 -3.3000  3.0513 -1.6360
 1354TIP3    H225478   6.315   2.853   4.195  0.6855  2.8128 -0.3799
 1355TIP3   OH225479   1.018   5.049  14.235  0.3102 -0.0548 -0.8953
 1355TIP3    H125480   0.999   5.078  14.146 -0.8228 -1.5226 -1.1511
 1355TIP3    H225481   0.956   4.977  14.251  0.7901 -0.0986  0.9127
 1356TIP3   OH225482   5.226   1.616   3.865  0.2478 -0.5292 -0.3311
 1356TIP3    H125483   5.211   1.604   3.959  0.9835  0.2917 -0.1036
 1356TIP3    H225484   5.315   1.650   3.859  0.1319 -0.3803 -1.3134
 1357TIP3   OH225485   3.922   4.562   0.475  0.6635  0.5193  0.1341
 1357TIP3    H125486   3.947   4.488   0.531  0.8393 -2.5079 -3.7216
 1357TIP3    H225487   3.833   4.584   0.503  0.3790 -1.5726  0.9812
 1358TIP3   OH225488   5.227   1.805  14.168  0.4596 -0.0302 -0.2359
 1358TIP3    H125489   5.217   1.727  14.113 -1.1742 -0.4889  0.6888
 1358TIP3    H225490   5.205   1.878  14.110 -0.0812 -0.4253 -0.5340
 1359TIP3   OH225491   6.653   1.888  13.866 -0.0002 -0.6854  0.5995
 1359TIP3    H125492   6.695   1.965  13.903  0.8685  0.3604 -2.4444
 1359TIP3    H225493   6.706   1.814  13.899  0.6687  0.1904  1.5107
 1360TIP3   OH225494   2.981   0.487   0.933  0.8107  0.2459 -0.0606
 1360TIP3    H125495   3.074   0.495   0.916  0.9110 -0.3816  0.1884
 1360TIP3    H225496   2.942   0.563   0.889  1.4305  0.5027 -0.1735
 1361TIP3   OH225497   0.633   3.166   3.693  0.0310  0.0519 -0.4309
 1361TIP3    H125498   0.618   3.172   3.787  0.7254  2.2793 -0.4367
 1361TIP3    H225499   0.671   3.079   3.680  0.1566 -0.1818  1.3763
 1362TIP3   OH225500   2.315   6.612  14.113 -0.0399 -0.2983 -0.2715
 1362TIP3    H125501   2.394   6.571  14.150  1.8089  0.6533 -2.9625
 1362TIP3    H225502   2.306   6.570  14.027 -1.6229  0.6865 -0.5916
 1363TIP3   OH225503   1.096   0.142  14.695  0.2394  0.1367  0.0078
 1363TIP3    H125504   1.032   0.078  14.725  0.7415 -0.6413 -0.5401
 1363TIP3    H225505   1.153   0.156  14.770 -1.1198  1.5451  0.7983
 1364TIP3   OH225506   3.372   5.655  16.827 -0.5809  0.7204  0.7059
 1364TIP3    H125507   3.353   5.748  16.815  0.5467  0.9605  0.7157
 1364TIP3    H225508   3.402   5.626  16.741  1.6272  1.0026  1.3597
 1365TIP3   OH225509   6.390   6.276  16.690  0.3449  0.1393  0.4604
 1365TIP3    H125510   6.421   6.186  16.693  2.7048  0.8512 -0.8994
 1365TIP3    H225511   6.374   6.299  16.782  2.0551 -0.9054  1.0455
 1366TIP3   OH225512   0.006   1.246   3.004  0.1811  0.5587  0.2463
 1366TIP3    H125513   0.020   1.186   2.930  2.2527  0.3439  0.7787
 1366TIP3    H225514   0.005   1.333   2.965 -2.7481  0.2155 -0.5237
 1367TIP3   OH225515   3.719   4.473  13.355  0.3918 -0.0517  0.0886
 1367TIP3    H125516   3.706   4.564  13.381  0.2623  0.6417 -2.2708
 1367TIP3    H225517   3.810   4.469  13.326  0.3630 -0.6475  0.0653
 1368TIP3   OH225518   5.337   3.843  15.565 -0.0342 -0.0445 -0.3499
 1368TIP3    H125519   5.270   3.840  15.498  0.9282 -1.1565 -1.2729
 1368TIP3    H225520   5.417   3.815  15.521  0.8126  0.1740  1.0070
 1369TIP3   OH225521   2.106   1.915   2.669 -0.0345 -0.3088  0.4967
 1369TIP3    H125522   2.106   1.953   2.757 -2.2775 -0.5511  0.6267
 1369TIP3    H225523   2.094   1.821   2.684  1.6055 -0.6206 -0.0048
 1370TIP3   OH225524   5.706   5.205   4.867 -0.2318  0.3651  0.0210
 1370TIP3    H125525   5.694   5.276   4.930  0.2389 -0.8319  1.4811
 1370TIP3    H225526   5.617   5.174   4.849 -0.4296  1.2423 -0.5371
 1371TIP3   OH225527   5.402   0.920   4.639 -0.1631 -0.6291 -0.7198
 1371TIP3    H125528   5.423   0.942   4.549  3.1201  0.7643  0.3282
 1371TIP3    H225529   5.378   1.004   4.679  0.4338 -0.8913  0.2114
 1372TIP3   OH225530   4.336   3.203  11.624 -0.4344  0.4045  0.2519
 1372TIP3    H125531   4.422   3.225  11.661 -0.0594  1.2262 -1.0980
 1372TIP3    H225532   4.346   3.217  11.530 -2.4524  1.8095  0.2296
 1373TIP3   OH225533   1.315   1.702   2.371 -0.1581 -0.5928 -0.7163
 1373TIP3    H125534   1.359   1.770   2.320 -0.1573 -0.1005 -0.0568
 1373TIP3    H225535   1.383   1.637   2.388  0.3412  0.2212  0.3980
 1374TIP3   OH225536   4.750   2.303   3.454 -0.5398  0.6527 -0.0852
 1374TIP3    H125537   4.825   2.346   3.496 -0.8562  0.2349  0.9226
 1374TIP3    H225538   4.689   2.285   3.526  0.4260 -3.2651 -0.1549
 1375TIP3   OH225539   1.713   6.427  12.635  0.1673  0.3585  0.0128
 1375TIP3    H125540   1.716   6.423  12.730 -1.3164 -2.5098 -0.0113
 1375TIP3    H225541   1.659   6.504  12.616  1.9102  1.9915  1.3910
 1376TIP3   OH225542   2.547   5.631  14.537 -0.1045  0.6735  0.6550
 1376TIP3    H125543   2.637   5.660  14.554 -0.3058  0.8610  1.4360
 1376TIP3    H225544   2.534   5.557  14.596  1.3957 -3.0396 -3.4016
 1377TIP3   OH225545   4.264   5.533   4.425 -0.4922 -0.0310 -0.4464
 1377TIP3    H125546   4.297   5.445   4.443 -1.6029 -0.9742 -2.7670
 1377TIP3    H225547   4.343   5.586   4.413  0.1875 -1.0621 -0.5941
 1378TIP3   OH225548   4.986   5.868  14.039  0.0394 -0.1282 -0.4236
 1378TIP3    H125549   4.892   5.875  14.018 -0.3815 -1.5398  0.8926
 1378TIP3    H225550   5.026   5.940  13.991 -1.6996  0.4030 -1.1464
 1379TIP3   OH225551   3.505   0.424  11.710 -0.1620 -0.3229  0.3909
 1379TIP3    H125552   3.520   0.408  11.803 -0.1591  0.7255  0.5837
 1379TIP3    H225553   3.478   0.340  11.674  2.0841 -1.2604  0.8767
 1380TIP3   OH225554   5.230   4.935  11.841  0.6014 -0.6624  0.2099
 1380TIP3    H125555   5.282   4.860  11.811  1.0516 -0.2109 -0.1487
 1380TIP3    H225556   5.241   5.000  11.772  0.5440 -0.1100  0.7276
 1381TIP3   OH225557   0.921   1.200   2.244  0.2454 -0.5039 -0.7423
 1381TIP3    H125558   0.939   1.293   2.239  0.2515 -0.4171  0.7300
 1381TIP3    H225559   0.977   1.161   2.176  1.4768  0.3810 -0.2507
 1382TIP3   OH225560   0.134   4.829  11.653  0.4464 -0.2941 -0.0343
 1382TIP3    H125561   0.069   4.882  11.700 -0.2567  0.6547 -2.0212
 1382TIP3    H225562   0.216   4.877  11.664  0.3512 -0.2455  0.4805
 1383TIP3   OH225563   1.444   3.395  11.527  0.1296 -0.7095  0.0618
 1383TIP3    H125564   1.412   3.317  11.572 -1.1143 -0.5862 -0.6062
 1383TIP3    H225565   1.429   3.378  11.434 -1.6193  0.9497  0.0025
 1384TIP3   OH225566   3.478   0.099  15.167  0.2397 -0.1370  0.1866
 1384TIP3    H125567   3.493   0.191  15.191  2.8825 -0.6999  0.8623
 1384TIP3    H225568   3.425   0.064  15.239  0.3783  0.5120  0.6149
 1385TIP3   OH225569   1.699   4.230  13.799 -0.3078  0.0337 -0.5014
 1385TIP3    H125570   1.762   4.289  13.757 -1.1565  2.4001  1.3967
 1385TIP3    H225571   1.615   4.254  13.759 -0.6111 -0.0856  0.0577
 1386TIP3   OH225572   5.456   5.360   3.678 -0.3029  0.1644 -0.4725
 1386TIP3    H125573   5.368   5.332   3.705 -0.2581 -1.8247 -2.2216
 1386TIP3    H225574   5.480   5.298   3.609  1.7307  1.8222 -1.2939
 1387TIP3   OH225575   6.538   3.658  14.776  0.0865 -0.5222 -0.2518
 1387TIP3    H125576   6.560   3.620  14.691  1.4632 -1.1945  0.3798
 1387TIP3    H225577   6.623   3.677  14.816 -0.5687  1.4106  0.2633
 1388TIP3   OH225578   0.475   1.676   4.619  0.9436  0.3103  0.1879
 1388TIP3    H125579   0.455   1.699   4.528  0.4934 -0.2813  0.1303
 1388TIP3    H225580   0.432   1.745   4.671  1.9171  1.1226 -0.0697
 1389TIP3   OH225581   6.692   5.529   3.333  0.1039 -0.0442  0.1688
 1389TIP3    H125582   6.715   5.609   3.284  1.3692  1.2198  2.7201
 1389TIP3    H225583   6.770   5.475   3.329  1.0554  1.0693  2.6623
 1390TIP3   OH225584   5.989   1.696   0.033 -0.2295 -0.6735 -0.2477
 1390TIP3    H125585   6.057   1.698  -0.034 -0.2148 -0.6081 -0.2333
 1390TIP3    H225586   5.926   1.762   0.006 -1.1429 -1.9089 -1.1748
 1391TIP3   OH225587   0.510   4.480  15.228  0.3170  0.4512 -0.3974
 1391TIP3    H125588   0.600   4.459  15.254  0.1553 -0.9861 -0.9591
 1391TIP3    H225589   0.497   4.570  15.258  1.3313  0.0556  1.2978
 1392TIP3   OH225590   3.140   3.311   6.392 -0.0939  0.2842 -0.2800
 1392TIP3    H125591   3.158   3.223   6.426  0.1642  0.2467 -0.5103
 1392TIP3    H225592   3.057   3.303   6.347 -0.0127  0.1286 -0.4026
 1393TIP3   OH225593   1.021   1.297   2.941  0.2841 -0.0234  0.1088
 1393TIP3    H125594   0.951   1.280   3.004  1.0227  0.4056  1.0581
 1393TIP3    H225595   1.002   1.238   2.868 -1.6580  0.8718 -0.1164
 1394TIP3   OH225596   0.646   2.470  13.768  0.3448  0.5926  0.4518
 1394TIP3    H125597   0.622   2.420  13.690  1.8852 -0.3077  0.5422
 1394TIP3    H225598   0.711   2.415  13.813 -0.2431  1.2679  2.1765
 1395TIP3   OH225599   0.304   2.871  16.588  0.5590 -0.1643 -0.0029
 1395TIP3    H125600   0.385   2.836  16.625 -0.4504 -3.6604 -0.9328
 1395TIP3    H225601   0.239   2.803  16.603 -1.1008  0.5306 -3.4974
 1396TIP3   OH225602   0.297   6.264   2.320 -0.6929  0.0374  0.6890
 1396TIP3    H125603   0.280   6.174   2.349 -1.0573  0.1451  0.8131
 1396TIP3    H225604   0.343   6.305   2.393 -0.4023 -0.0877  0.5779
 1397TIP3   OH225605   6.627   5.900  15.861 -0.1290 -0.0815  0.1547
 1397TIP3    H125606   6.719   5.913  15.841  0.0014 -0.2461  0.6466
 1397TIP3    H225607   6.583   5.902  15.775  0.6616 -2.6706 -0.3510
 1398TIP3   OH225608   0.861   2.400   2.545 -0.0624  0.8706  0.1317
 1398TIP3    H125609   0.774   2.387   2.581 -0.4971 -0.4311 -1.3039
 1398TIP3    H225610   0.920   2.369   2.613 -0.8721 -1.6882 -0.2773
 1399TIP3   OH225611   1.591   3.021   0.067 -0.4745 -0.1480 -0.0835
 1399TIP3    H125612   1.659   3.084   0.041  1.2049 -2.1647 -0.6903
 1399TIP3    H225613   1.508   3.067   0.050  0.7108  2.7985  1.7600
 1400TIP3   OH225614   4.277   0.385  16.392  0.2989 -0.9196  0.1436
 1400TIP3    H125615   4.336   0.456  16.416 -1.4135  1.0337 -1.2188
 1400TIP3    H225616   4.334   0.308  16.385  2.0354  0.0935  2.5518
 1401TIP3   OH225617   3.524   0.528  14.304  0.5148 -0.1641  0.0645
 1401TIP3    H125618   3.587   0.519  14.375  0.0181  1.0885  0.6678
 1401TIP3    H225619   3.439   0.516  14.346  0.2998 -1.1690 -0.6276
 1402TIP3   OH225620   1.965   1.897   4.899 -0.1348  0.2613  0.9564
 1402TIP3    H125621   1.963   1.913   4.994  0.0434  1.5422  0.7642
 1402TIP3    H225622   1.975   1.985   4.861 -0.5508 -0.2124 -0.2595
 1403TIP3   OH225623   4.843   5.300  12.182 -0.5189  0.7394 -0.0321
 1403TIP3    H125624   4.771   5.342  12.229 -0.0168 -0.6825  2.0568
 1403TIP3    H225625   4.919   5.356  12.200  0.3009 -1.3144  3.3213
 1404TIP3   OH225626   6.334   3.799   2.973  1.0362 -0.1371  0.0363
 1404TIP3    H125627   6.280   3.750   3.035 -0.1442  2.4676  1.1665
 1404TIP3    H225628   6.362   3.734   2.909 -2.3708 -1.8582  0.1583
 1405TIP3   OH225629   4.185   2.979   0.637  0.0135 -0.1786  0.0007
 1405TIP3    H125630   4.127   3.023   0.575  2.2161  0.2108 -1.8509
 1405TIP3    H225631   4.273   3.008   0.612  0.9790 -0.2396  3.1540
 1406TIP3   OH225632   5.868   2.753  11.715 -0.0942 -0.1154  0.0587
 1406TIP3    H125633   5.862   2.701  11.636  0.9938 -2.0013  1.1782
 1406TIP3    H225634   5.818   2.704  11.780  2.3475 -0.6987  1.5774
 1407TIP3   OH225635   2.386   0.479  16.808  0.0101 -0.0961 -0.1354
 1407TIP3    H125636   2.332   0.545  16.763  0.8594  1.2789  0.8450
 1407TIP3    H225637   2.476   0.503  16.786  0.3487 -0.5079  0.8047
 1408TIP3   OH225638   0.486   5.268   3.301  0.5714 -0.7429 -0.6826
 1408TIP3    H125639   0.475   5.210   3.226 -0.5629 -0.1990 -0.9426
 1408TIP3    H225640   0.464   5.215   3.377  1.2939 -1.1679 -0.7673
 1409TIP3   OH225641   2.718   2.812   4.079 -0.6437  0.1950 -0.4663
 1409TIP3    H125642   2.716   2.757   4.001 -0.2233  0.2857 -0.5466
 1409TIP3    H225643   2.704   2.752   4.151  0.3717 -0.1162 -0.5118
 1410TIP3   OH225644   3.875   2.488  11.632  0.1917 -0.0418  0.6013
 1410TIP3    H125645   3.950   2.432  11.651 -0.8704 -0.7946  2.6962
 1410TIP3    H225646   3.838   2.453  11.551  0.7007 -1.1496  0.8409
 1411TIP3   OH225647   1.656   5.724   2.129  0.1494 -0.3758 -0.0600
 1411TIP3    H125648   1.683   5.810   2.094  0.5822 -1.2573 -1.9852
 1411TIP3    H225649   1.736   5.672   2.127 -0.9531 -2.0430 -2.7568
 1412TIP3   OH225650   6.262   5.564   0.837  0.8927  0.2121 -0.6075
 1412TIP3    H125651   6.267   5.500   0.766  5.5992 -0.3705  0.0459
 1412TIP3    H225652   6.290   5.516   0.915 -1.5748  1.5417  1.1719
 1413TIP3   OH225653   2.761   4.258   2.734 -0.1912  0.5090  0.1011
 1413TIP3    H125654   2.709   4.325   2.779 -1.8245 -0.4713 -0.2517
 1413TIP3    H225655   2.758   4.182   2.793 -0.2503  0.0362 -0.5014
 1414TIP3   OH225656   0.593   1.284  12.920 -0.2774 -0.1158  0.7275
 1414TIP3    H125657   0.680   1.301  12.883 -0.8827  0.1174 -0.5893
 1414TIP3    H225658   0.593   1.332  13.003  1.6785 -1.9649  1.8459
 1415TIP3   OH225659   1.643   2.849  11.705  0.0883 -0.9394 -0.8635
 1415TIP3    H125660   1.566   2.793  11.708 -0.6393  0.1045  0.2035
 1415TIP3    H225661   1.622   2.923  11.762  1.4430 -0.0922 -1.4261
 1416TIP3   OH225662   6.269   6.546   3.488  0.6465  0.4598  0.3043
 1416TIP3    H125663   6.334   6.480   3.461  0.6247  0.8663 -0.7831
 1416TIP3    H225664   6.243   6.588   3.406  0.8979  2.0554  1.0280
 1417TIP3   OH225665   5.362   0.991  12.143  0.9994 -0.0792  0.7235
 1417TIP3    H125666   5.387   0.961  12.231  1.2310 -1.2827  0.2455
 1417TIP3    H225667   5.372   0.915  12.087  2.4855  1.0975 -0.6769
 1418TIP3   OH225668   6.731   0.488  17.132  0.2664 -0.0243  0.6320
 1418TIP3    H125669   6.668   0.482  17.203  1.2810 -0.1496  1.5387
 1418TIP3    H225670   6.757   0.581  17.130 -0.9992  0.3203 -0.6838
 1419TIP3   OH225671   2.211   6.127   1.376  0.0038 -0.2456  0.0303
 1419TIP3    H125672   2.265   6.201   1.349 -1.6358  0.7849 -0.4661
 1419TIP3    H225673   2.169   6.156   1.457 -0.3175 -0.7998  0.0649
 1420TIP3   OH225674   4.515   3.639   0.585 -0.8812 -0.2453  0.2773
 1420TIP3    H125675   4.582   3.699   0.617 -1.2854  0.0224  0.6338
 1420TIP3    H225676   4.524   3.640   0.490 -1.2567  0.7993  0.2524
 1421TIP3   OH225677   2.713   1.513  12.932 -0.6502 -1.3666 -0.4307
 1421TIP3    H125678   2.790   1.496  12.878 -1.0865 -2.4618 -0.7130
 1421TIP3    H225679   2.642   1.464  12.890 -1.0510 -2.0143  0.9670
 1422TIP3   OH225680   5.876   5.565  14.318  0.7296  0.9855 -0.5529
 1422TIP3    H125681   5.937   5.603  14.381  0.7640  0.1474 -0.0751
 1422TIP3    H225682   5.832   5.495  14.366 -0.0362  1.0659 -1.1329
 1423TIP3   OH225683   0.599   2.927  16.357 -0.0378 -0.5812  0.5671
 1423TIP3    H125684   0.638   2.854  16.405  2.8375 -0.5555 -1.5495
 1423TIP3    H225685   0.615   3.004  16.411  0.5941 -0.9605  0.9276
 1424TIP3   OH225686   5.551   2.574  12.715 -0.2456 -0.0389 -0.1859
 1424TIP3    H125687   5.600   2.506  12.762  0.1906  1.4252  1.5268
 1424TIP3    H225688   5.475   2.528  12.679 -1.2206 -0.9914  2.9553
 1425TIP3   OH225689   0.340   6.212   3.446 -0.2854  0.7358  0.3598
 1425TIP3    H125690   0.337   6.239   3.538  1.0745 -0.5601  0.8155
 1425TIP3    H225691   0.249   6.207   3.419 -0.7929 -0.7530  2.2290
 1426TIP3   OH225692   4.644   3.858   4.736  0.7250 -0.1120 -0.3940
 1426TIP3    H125693   4.722   3.815   4.699  0.8746 -0.4820  0.3420
 1426TIP3    H225694   4.679   3.931   4.786  0.6942 -1.0497  1.0080
 1427TIP3   OH225695   6.495   0.333   5.064 -0.1758  0.1048 -0.1439
 1427TIP3    H125696   6.566   0.390   5.033 -0.4795  0.8741  0.5787
 1427TIP3    H225697   6.538   0.249   5.080  0.1623 -0.0734 -1.8030
 1428TIP3   OH225698   2.178   1.633  15.841 -0.2095  0.2812 -0.1679
 1428TIP3    H125699   2.270   1.610  15.827 -0.5317 -0.4942 -1.1019
 1428TIP3    H225700   2.180   1.703  15.906  1.0043 -0.1585  0.2819
 1429TIP3   OH225701   2.813   1.503   6.386  0.5269  0.2161  0.0736
 1429TIP3    H125702   2.901   1.532   6.361  0.9095  0.1314  1.2582
 1429TIP3    H225703   2.812   1.511   6.482 -0.8787  0.5521  0.0384
 1430TIP3   OH225704   4.178   2.711   1.018  0.3508 -0.0605 -0.3148
 1430TIP3    H125705   4.110   2.753   1.071 -0.8890 -1.0303 -1.1134
 1430TIP3    H225706   4.261   2.744   1.055 -0.5323  0.9389  0.8231
 1431TIP3   OH225707   3.777   2.250  13.100 -0.2605  0.6243 -0.1510
 1431TIP3    H125708   3.682   2.235  13.100 -0.3714  1.3150 -0.0831
 1431TIP3    H225709   3.801   2.252  13.193 -0.0107 -0.5885 -0.1855
 1432TIP3   OH225710   3.626   3.187   1.628  0.4938  0.2832  0.1469
 1432TIP3    H125711   3.601   3.109   1.678 -0.4771  0.6528  0.2523
 1432TIP3    H225712   3.710   3.213   1.665  2.0595 -2.1486 -1.5584
 1433TIP3   OH225713   1.426   4.004  16.641 -0.4738 -0.0667  0.9684
 1433TIP3    H125714   1.447   3.918  16.676  0.3320  0.3729  1.5931
 1433TIP3    H225715   1.431   4.062  16.717  0.5498  0.7874  0.2526
 1434TIP3   OH225716   5.915   0.894   4.142 -0.3460 -0.0454 -0.1644
 1434TIP3    H125717   5.865   0.846   4.077 -1.5435  0.6001  0.2671
 1434TIP3    H225718   5.904   0.986   4.119 -0.5144  0.1746  0.7582
 1435TIP3   OH225719   4.834   0.759  10.383 -0.0857 -0.0779 -0.5691
 1435TIP3    H125720   4.796   0.834  10.336 -1.1121  0.1710  0.6343
 1435TIP3    H225721   4.758   0.714  10.420  0.8261  0.8517  2.5267
 1436TIP3   OH225722   1.753   0.917   0.201 -0.0085  0.2403 -0.2678
 1436TIP3    H125723   1.753   0.883   0.291 -1.0891 -2.8674 -1.3591
 1436TIP3    H225724   1.840   0.895   0.167 -0.3305 -0.5094 -0.6269
 1437TIP3   OH225725   0.534   0.642  15.050 -0.1414 -0.1764  0.2212
 1437TIP3    H125726   0.512   0.698  15.125  2.9919  0.5123  0.6971
 1437TIP3    H225727   0.565   0.704  14.983 -0.3570 -1.0295 -0.6733
 1438TIP3   OH225728   1.711   2.506   3.902  0.6757 -0.2317 -0.0008
 1438TIP3    H125729   1.650   2.432   3.905  0.0313  0.3174  0.2964
 1438TIP3    H225730   1.764   2.495   3.981  0.5272 -0.3230  0.0862
 1439TIP3   OH225731   5.894   0.819   6.381 -0.1893  0.3566 -1.0599
 1439TIP3    H125732   5.979   0.784   6.356 -0.2409  0.1310 -0.9143
 1439TIP3    H225733   5.840   0.742   6.397 -0.1315  0.5061 -0.1427
 1440TIP3   OH225734   1.498   1.158  13.015  0.1317 -0.5578 -0.3189
 1440TIP3    H125735   1.471   1.078  12.970 -0.9502  0.4446 -1.4769
 1440TIP3    H225736   1.416   1.203  13.036  0.7394  0.3644  0.1121
 1441TIP3   OH225737   0.285   6.484  15.989  0.4058  0.2754 -0.4948
 1441TIP3    H125738   0.235   6.554  16.031  1.0830  0.8288 -0.5934
 1441TIP3    H225739   0.371   6.488  16.031  0.5109 -0.3675 -0.6480
 1442TIP3   OH225740   6.677   4.266   6.038  0.1216 -0.4017 -0.2634
 1442TIP3    H125741   6.724   4.308   5.966  1.5116  0.1313  0.9437
 1442TIP3    H225742   6.728   4.187   6.057 -0.6685 -0.9417 -0.3643
 1443TIP3   OH225743   3.729   4.640  14.063 -0.1254  0.1215 -0.1531
 1443TIP3    H125744   3.744   4.545  14.069  1.1088  0.2589 -0.9025
 1443TIP3    H225745   3.804   4.678  14.108 -1.4553  0.7292  1.6104
 1444TIP3   OH225746   5.118   5.762  12.376  0.1489  0.3057  0.4961
 1444TIP3    H125747   5.180   5.829  12.405  0.1109 -0.1080  1.5381
 1444TIP3    H225748   5.053   5.758  12.446  1.0113 -1.9360  1.2039
 1445TIP3   OH225749   4.002   1.442   0.825  0.1747  0.3074  0.5170
 1445TIP3    H125750   4.046   1.367   0.786  1.1436  0.9067  0.4335
 1445TIP3    H225751   3.919   1.448   0.779  0.9492  0.5096 -0.8779
 1446TIP3   OH225752   3.405   2.523  17.199  0.0804  0.0830  0.5261
 1446TIP3    H125753   3.402   2.533  17.104 -2.4542  2.5867  0.7939
 1446TIP3    H225754   3.485   2.569  17.225  1.5697 -1.8767 -0.4871
 1447TIP3   OH225755   1.269   0.838  14.751 -0.6344 -1.1896 -0.3338
 1447TIP3    H125756   1.266   0.750  14.714 -0.5629 -2.1171  1.7700
 1447TIP3    H225757   1.272   0.824  14.846  0.2702  1.0574  0.0113
 1448TIP3   OH225758   3.180   6.353  16.204  0.9509  0.0932 -0.1552
 1448TIP3    H125759   3.172   6.272  16.153  1.3653 -0.2929  0.3927
 1448TIP3    H225760   3.089   6.381  16.218  0.8512  0.4319 -1.4667
 1449TIP3   OH225761   4.152   5.871   4.966 -0.4965  0.1065  0.0606
 1449TIP3    H125762   4.085   5.924   4.923  0.6664  0.3602 -1.4842
 1449TIP3    H225763   4.214   5.935   5.001  0.1476 -0.1903 -0.5342
 1450TIP3   OH225764   0.210   3.393   0.256 -0.3008 -0.2327  0.0345
 1450TIP3    H125765   0.287   3.336   0.259 -0.3527 -0.2221  1.6850
 1450TIP3    H225766   0.139   3.340   0.292 -0.5352  0.5721  0.7806
 1451TIP3   OH225767   5.666   6.656   4.066  0.1249  0.2451  0.0711
 1451TIP3    H125768   5.597   6.719   4.087 -0.6073 -0.4189 -0.3088
 1451TIP3    H225769   5.633   6.572   4.099  1.9207  0.3610  2.3082
 1452TIP3   OH225770   6.124   3.560   2.035 -0.0550 -0.1630 -0.0844
 1452TIP3    H125771   6.148   3.493   2.098 -1.3299 -1.7605 -1.2558
 1452TIP3    H225772   6.032   3.580   2.055 -0.5906 -0.9643 -1.6537
 1453TIP3   OH225773   0.660   0.460  12.143 -0.0797  0.2942 -0.5526
 1453TIP3    H125774   0.602   0.395  12.104 -1.0375  1.3561 -0.9277
 1453TIP3    H225775   0.651   0.447  12.237 -0.4976  0.0940 -0.6211
 1454TIP3   OH225776   6.411   5.487   2.539 -0.2906 -0.0288  0.1586
 1454TIP3    H125777   6.427   5.397   2.566  0.2366 -0.6038 -1.9980
 1454TIP3    H225778   6.317   5.492   2.524 -0.0706 -0.6968 -1.4162
 1455TIP3   OH225779   0.953   1.288   1.684 -1.3446  0.0998 -0.2267
 1455TIP3    H125780   0.983   1.250   1.767  0.0477  1.1548 -0.2289
 1455TIP3    H225781   0.996   1.236   1.616  0.1133  1.2715 -0.2341
 1456TIP3   OH225782   0.138   3.692   1.895  0.1840 -0.1255 -0.5900
 1456TIP3    H125783   0.116   3.696   1.988 -2.0215  1.4115 -1.1367
 1456TIP3    H225784   0.066   3.641   1.856  1.4923 -1.4214 -1.3622
 1457TIP3   OH225785   0.307   2.338   6.175 -0.3006 -0.4899  0.0442
 1457TIP3    H125786   0.248   2.287   6.230 -2.7416  0.2502 -1.7650
 1457TIP3    H225787   0.279   2.429   6.188  0.3647 -0.1325 -0.9321
 1458TIP3   OH225788   1.135   4.010   3.576  0.0553 -0.2503 -0.4242
 1458TIP3    H125789   1.113   4.071   3.646  0.0338 -1.1464  0.3719
 1458TIP3    H225790   1.079   3.934   3.593  0.7952 -0.8817 -0.8085
 1459TIP3   OH225791   6.135   0.985   5.887  0.0507 -0.8679 -0.4638
 1459TIP3    H125792   6.201   0.998   5.956  0.6686 -1.9774 -0.8368
 1459TIP3    H225793   6.058   0.954   5.933  0.0387 -0.3417 -0.1216
 1460TIP3   OH225794   3.617   5.312   2.027  0.0795 -0.0687  0.1948
 1460TIP3    H125795   3.622   5.321   2.122 -0.3611 -1.8906  0.4124
 1460TIP3    H225796   3.530   5.276   2.011  0.2866 -0.1081 -0.8727
 1461TIP3   OH225797   3.360   0.377  13.269  0.1668  0.6966  0.4897
 1461TIP3    H125798   3.409   0.304  13.306  1.7073  0.5014 -1.8364
 1461TIP3    H225799   3.283   0.384  13.325  0.5718 -1.9314  1.4752
 1462TIP3   OH225800   3.757   6.433   2.827  0.1727 -0.2083  0.9255
 1462TIP3    H125801   3.815   6.473   2.891 -0.2779 -0.4057  1.4682
 1462TIP3    H225802   3.813   6.370   2.780  0.5593  0.1037  0.9683
 1463TIP3   OH225803   4.502   3.475  12.481  0.3484  0.2688  0.0939
 1463TIP3    H125804   4.428   3.420  12.505  0.9837 -1.0119 -0.8518
 1463TIP3    H225805   4.506   3.541  12.551 -0.7641 -0.5283  0.9311
 1464TIP3   OH225806   1.974   3.513   6.507 -0.4267  0.2015 -0.2725
 1464TIP3    H125807   2.050   3.515   6.449 -0.6003 -0.9142 -0.5465
 1464TIP3    H225808   1.972   3.424   6.542 -2.2812 -0.1300 -1.1636
 1465TIP3   OH225809   1.619   3.918   2.879  0.0941  0.1919  0.3180
 1465TIP3    H125810   1.656   3.905   2.967  0.3489  0.6049  0.2713
 1465TIP3    H225811   1.526   3.932   2.894 -0.2154 -1.7476  0.3724
 1466TIP3   OH225812   5.676   0.562  13.843  0.5377  0.2394 -0.1283
 1466TIP3    H125813   5.612   0.594  13.780  0.0754 -0.3247  0.0536
 1466TIP3    H225814   5.626   0.542  13.922  0.8052 -0.9798 -0.2552
 1467TIP3   OH225815   0.141   6.336  11.256  0.0935 -0.1601  0.8736
 1467TIP3    H125816   0.106   6.369  11.172 -0.7883  1.0234  1.6902
 1467TIP3    H225817   0.136   6.240  11.247 -1.1037 -0.0436  0.0197
 1468TIP3   OH225818   3.949   2.983   5.926 -0.3851  0.3027  0.1562
 1468TIP3    H125819   3.869   2.984   5.874 -0.7815 -0.4613  0.7431
 1468TIP3    H225820   3.919   2.975   6.016  0.2630  2.3158  0.5824
 1469TIP3   OH225821   5.260   3.223  16.238 -0.1237  0.2954 -0.3147
 1469TIP3    H125822   5.192   3.270  16.286  0.8267 -1.0238  2.4390
 1469TIP3    H225823   5.213   3.162  16.182 -1.2662  1.0392 -0.1736
 1470TIP3   OH225824   5.655   6.616  10.807 -0.0138 -0.1022 -0.2290
 1470TIP3    H125825   5.637   6.529  10.771  0.8055 -0.3722  0.0017
 1470TIP3    H225826   5.572   6.644  10.845 -0.7718  0.0156 -1.9592
 1471TIP3   OH225827   2.977   6.649  11.556  0.5630 -0.3915  0.0152
 1471TIP3    H125828   3.045   6.704  11.595  1.3476 -0.1145 -1.6807
 1471TIP3    H225829   2.896   6.678  11.598  1.1708  0.9815  0.2927
 1472TIP3   OH225830   3.417   1.106  16.769  0.5768  0.4517 -0.6157
 1472TIP3    H125831   3.336   1.126  16.815  0.1181 -0.7251 -0.8910
 1472TIP3    H225832   3.414   1.160  16.690 -0.0341  0.2595 -0.7238
 1473TIP3   OH225833   6.229   0.469  15.715 -0.3620 -0.3387 -0.6016
 1473TIP3    H125834   6.276   0.389  15.736 -0.1282  0.1636  0.8226
 1473TIP3    H225835   6.166   0.480  15.787 -0.9941  0.2787 -1.2384
 1474TIP3   OH225836   3.147   2.918  16.132  0.3023 -0.1637 -0.4708
 1474TIP3    H125837   3.175   3.005  16.160  1.5821  0.8289 -4.5012
 1474TIP3    H225838   3.199   2.858  16.185  2.2749  1.5849 -0.3736
 1475TIP3   OH225839   4.339   5.023  13.566 -0.2597 -0.0503  0.0216
 1475TIP3    H125840   4.390   5.064  13.635  1.0503  0.5138 -1.2679
 1475TIP3    H225841   4.274   4.969  13.612  0.9424 -0.0995  1.6614
 1476TIP3   OH225842   0.121   0.010   2.639  0.0800  0.5270 -0.0326
 1476TIP3    H125843   0.048   0.034   2.582 -0.1159  1.0147  0.4163
 1476TIP3    H225844   0.157  -0.070   2.600 -0.8391  0.1461 -0.1277
 1477TIP3   OH225845   4.868   5.302   5.452 -0.2059  0.3241 -0.1856
 1477TIP3    H125846   4.951   5.345   5.431 -0.4606  0.1475 -1.5779
 1477TIP3    H225847   4.886   5.254   5.532  1.2780 -0.3910 -0.9309
 1478TIP3   OH225848   3.162   0.960   3.869  0.1720  0.1906  0.5983
 1478TIP3    H125849   3.076   0.919   3.876  0.7000 -0.7904  1.6075
 1478TIP3    H225850   3.224   0.889   3.887  1.0793  1.5608  3.1949
 1479TIP3   OH225851   3.400   4.860  15.306 -0.2465  0.3914 -0.4136
 1479TIP3    H125852   3.398   4.932  15.242  0.1687 -1.7840 -2.9374
 1479TIP3    H225853   3.492   4.852  15.329 -0.2157  0.2541 -0.5880
 1480TIP3   OH225854   3.071   0.134   1.193 -0.0600 -0.1223  0.0206
 1480TIP3    H125855   3.092   0.090   1.111  1.1601  0.7904 -0.1745
 1480TIP3    H225856   3.036   0.065   1.250 -0.0635 -0.9268 -0.9541
 1481TIP3   OH225857   2.585   3.495  12.622 -0.1954 -0.1753  0.0409
 1481TIP3    H125858   2.550   3.584  12.623 -0.4228 -0.2696  1.3082
 1481TIP3    H225859   2.621   3.484  12.534 -1.6390  0.5939 -0.6560
 1482TIP3   OH225860   4.450   6.287  15.019 -0.3275  0.5760 -0.0925
 1482TIP3    H125861   4.432   6.378  14.994  1.7906  1.3599  1.0761
 1482TIP3    H225862   4.532   6.266  14.974 -0.8925 -0.8303 -0.4822
 1483TIP3   OH225863   4.539   6.092  13.931 -0.2627 -0.3156 -0.1709
 1483TIP3    H125864   4.498   6.045  14.004 -0.4932 -0.3513 -0.3221
 1483TIP3    H225865   4.491   6.063  13.854 -0.5890  0.3743 -0.2324
 1484TIP3   OH225866   6.719   3.693   5.448  0.6035 -0.6635  0.2380
 1484TIP3    H125867   6.711   3.632   5.522  1.0303 -1.8388 -0.6720
 1484TIP3    H225868   6.805   3.675   5.411 -0.4772 -1.6337 -1.8858
 1485TIP3   OH225869   4.250   6.265   0.232  0.0521 -0.0439 -0.5844
 1485TIP3    H125870   4.292   6.271   0.146 -0.2699 -2.9966 -1.0066
 1485TIP3    H225871   4.222   6.174   0.238 -1.4343  0.5427  1.9703
 1486TIP3   OH225872   6.353   3.316   3.435  0.2572 -0.0029 -0.1463
 1486TIP3    H125873   6.418   3.371   3.479  1.4558 -0.4622 -1.3113
 1486TIP3    H225874   6.282   3.308   3.499  0.7985  1.5075  0.6825
 1487TIP3   OH225875   6.450   1.853  17.223  0.2659  0.1408  0.0758
 1487TIP3    H125876   6.373   1.870  17.277 -0.8030  0.9755 -1.6687
 1487TIP3    H225877   6.487   1.940  17.206  2.8980 -0.3891  2.7194
 1488TIP3   OH225878   6.220   3.066  15.130  0.4309 -0.1865  0.2753
 1488TIP3    H125879   6.190   2.984  15.090 -0.3974  1.0608 -1.7453
 1488TIP3    H225880   6.263   3.112  15.058  0.2406  1.4735  1.2217
 1489TIP3   OH225881   0.054   4.853   1.508  0.0287  0.1729  0.2592
 1489TIP3    H125882   0.116   4.926   1.508 -1.1011  1.1797 -1.3902
 1489TIP3    H225883   0.002   4.867   1.429 -2.5155 -0.4479  1.7764
 1490TIP3   OH225884   1.386   1.405   4.204 -0.1989  0.3476 -0.4303
 1490TIP3    H125885   1.294   1.402   4.231 -0.4860 -0.8261 -1.4856
 1490TIP3    H225886   1.383   1.400   4.108  1.0165 -1.1787 -0.4068
 1491TIP3   OH225887   3.323   3.695   4.656 -0.1360 -0.3355 -0.5420
 1491TIP3    H125888   3.281   3.611   4.673  0.8185 -0.3510  1.8450
 1491TIP3    H225889   3.410   3.672   4.622  0.1273 -0.3138  0.1167
 1492TIP3   OH225890   5.055   4.780  14.103 -0.4619  0.1423  0.4013
 1492TIP3    H125891   5.136   4.739  14.134 -0.6926  0.0891  0.9485
 1492TIP3    H225892   4.991   4.762  14.172 -1.6292 -2.0339 -1.1383
 1493TIP3   OH225893   5.343   1.471   5.460 -0.0547 -0.2336 -0.2503
 1493TIP3    H125894   5.378   1.509   5.541  1.9744 -0.4958 -0.9702
 1493TIP3    H225895   5.259   1.515   5.447  0.0087  0.4507  1.5229
 1494TIP3   OH225896   2.091   0.262   6.651 -0.1742  0.3307 -0.0465
 1494TIP3    H125897   2.183   0.241   6.668 -0.3924  0.2532  1.0528
 1494TIP3    H225898   2.064   0.315   6.726 -0.9777  0.4991 -0.4489
 1495TIP3   OH225899   3.567   2.853   3.109 -0.3732 -0.1408  0.4833
 1495TIP3    H125900   3.474   2.852   3.089  0.2398  2.6746 -2.8679
 1495TIP3    H225901   3.602   2.775   3.066 -0.6031  0.8311 -1.5028
 1496TIP3   OH225902   3.894   0.296   6.321  0.1127 -0.0458 -0.3173
 1496TIP3    H125903   3.954   0.222   6.332 -2.2488 -1.7698  1.4554
 1496TIP3    H225904   3.935   0.367   6.370  0.8551 -1.1098  0.6441
 1497TIP3   OH225905   4.571   4.063  16.705 -0.9557 -0.4829  0.2277
 1497TIP3    H125906   4.626   4.117  16.762 -0.6516 -1.0702  0.4857
 1497TIP3    H225907   4.591   3.973  16.730 -0.0066 -0.7940 -1.5649
 1498TIP3   OH225908   3.985   2.990  14.861  0.4763 -0.0243 -0.2532
 1498TIP3    H125909   3.956   3.051  14.794  0.3332 -1.9628 -2.0160
 1498TIP3    H225910   3.921   3.000  14.932  0.2765  1.6061 -0.6419
 1499TIP3   OH225911   2.258   2.525   6.231  0.2770  0.0227  0.1991
 1499TIP3    H125912   2.192   2.510   6.298  0.6149 -1.0398  0.3109
 1499TIP3    H225913   2.284   2.616   6.242 -0.7885  0.2978  0.4969
 1500TIP3   OH225914   2.550   0.855  16.926  0.1917  0.0353  0.4611
 1500TIP3    H125915   2.489   0.824  16.858 -0.4422  0.4319  0.8398
 1500TIP3    H225916   2.599   0.925  16.884 -0.0974  0.1792  0.3617
 1501TIP3   OH225917   2.638   6.765   1.275 -0.6173 -0.4332  0.6617
 1501TIP3    H125918   2.654   6.828   1.204 -0.4452 -0.8638  0.3109
 1501TIP3    H225919   2.565   6.712   1.243 -0.5913 -0.5784  0.8441
 1502TIP3   OH225920   3.373   0.893  14.580 -0.3854  0.2531 -1.3620
 1502TIP3    H125921   3.291   0.858  14.546 -1.2807  1.2790 -0.2872
 1502TIP3    H225922   3.386   0.850  14.664  0.6556 -0.5854 -1.9389
 1503TIP3   OH225923   0.845   6.674  10.553 -0.4806  0.1215 -0.1072
 1503TIP3    H125924   0.777   6.730  10.591 -0.6788 -0.7539  0.8442
 1503TIP3    H225925   0.819   6.665  10.461 -1.5743 -0.0823  0.2108
 1504TIP3   OH225926   6.130   0.688  10.708 -0.1847 -0.0247  0.3584
 1504TIP3    H125927   6.046   0.729  10.684  1.1633  3.8876  1.8978
 1504TIP3    H225928   6.164   0.654  10.625 -1.9021  1.0158 -0.8232
 1505TIP3   OH225929   2.180   5.341   4.704  0.2371 -0.2369  0.1904
 1505TIP3    H125930   2.169   5.247   4.689 -1.4236  0.1809 -1.4481
 1505TIP3    H225931   2.231   5.347   4.785  1.2433 -2.5462 -0.2433
 1506TIP3   OH225932   0.190   0.060   2.265  0.5157  0.0638 -0.1168
 1506TIP3    H125933   0.242   0.140   2.264  0.8739 -0.1645 -1.8295
 1506TIP3    H225934   0.235   0.003   2.327  0.7509  0.8587  0.4524
 1507TIP3   OH225935   5.122   0.977  13.954 -0.1559 -0.6179 -0.0668
 1507TIP3    H125936   5.079   0.986  13.869  1.3633 -0.9760 -0.8936
 1507TIP3    H225937   5.138   0.883  13.963 -1.5842 -0.7480  1.2761
 1508TIP3   OH225938   5.637   4.986  15.371 -0.3151  0.8695  0.1675
 1508TIP3    H125939   5.613   5.062  15.424 -0.2592 -1.2274  3.3554
 1508TIP3    H225940   5.554   4.952  15.338 -0.5307  1.0256  0.5514
 1509TIP3   OH225941   1.249   1.993   1.537  0.1991  0.0822 -0.0507
 1509TIP3    H125942   1.265   1.916   1.483 -0.3710 -0.4394  0.5064
 1509TIP3    H225943   1.169   2.032   1.501  0.7326  0.6634 -0.6074
 1510TIP3   OH225944   5.424   5.551   6.416  0.1114  0.2863 -0.5110
 1510TIP3    H125945   5.347   5.544   6.472  1.5405 -0.4021  1.3764
 1510TIP3    H225946   5.461   5.637   6.436 -0.6761  1.0414 -2.1368
 1511TIP3   OH225947   1.808   3.019   1.483 -0.4512  0.2657 -0.5786
 1511TIP3    H125948   1.769   3.041   1.567 -0.3923  0.8546 -0.7013
 1511TIP3    H225949   1.866   2.945   1.501 -2.2823 -1.1774 -0.5586
 1512TIP3   OH225950   6.776   5.885   1.209  0.0244  0.3699  0.2447
 1512TIP3    H125951   6.692   5.902   1.167  0.7289  0.6510 -1.1201
 1512TIP3    H225952   6.773   5.934   1.291 -1.1311  0.3830  0.2026
 1513TIP3   OH225953   1.525   1.022   1.448 -0.5557 -0.1388  0.3927
 1513TIP3    H125954   1.473   0.993   1.373 -0.4744 -1.8562  0.9886
 1513TIP3    H225955   1.615   0.998   1.427 -0.0570  2.2415 -0.3406
 1514TIP3   OH225956   1.308   0.135  15.871  0.2902 -0.1318 -0.0061
 1514TIP3    H125957   1.247   0.155  15.801 -0.7728  0.8435  1.1903
 1514TIP3    H225958   1.374   0.204  15.866  1.6390 -1.4850 -1.6408
 1515TIP3   OH225959   3.551   0.902   4.255 -0.1426  0.0074 -0.0304
 1515TIP3    H125960   3.552   0.852   4.336 -0.9830 -0.9157 -0.5810
 1515TIP3    H225961   3.461   0.933   4.246  0.1448  0.8198 -0.1799
 1516TIP3   OH225962   6.638   2.246  15.308 -0.1521 -0.2900  0.0573
 1516TIP3    H125963   6.671   2.259  15.397 -1.2083 -1.2440  0.6059
 1516TIP3    H225964   6.716   2.243  15.254  0.5991 -1.3449  1.1728
 1517TIP3   OH225965   1.153   2.148  12.064  0.0318  0.0397  0.3267
 1517TIP3    H125966   1.189   2.200  12.135  1.6734 -0.7766  0.1107
 1517TIP3    H225967   1.216   2.077  12.052 -0.9101 -0.5800 -1.0456
 1518TIP3   OH225968   1.984   6.766   4.745  0.3177 -0.2105  0.1414
 1518TIP3    H125969   1.908   6.769   4.805 -0.0687  1.4550 -0.3945
 1518TIP3    H225970   1.954   6.714   4.671 -0.1034 -0.0609  0.2036
 1519TIP3   OH225971   2.629   1.553   4.172  0.3055 -0.1946 -0.7414
 1519TIP3    H125972   2.556   1.607   4.204  0.6219  0.4998 -1.1907
 1519TIP3    H225973   2.691   1.550   4.245  0.4517  0.3409 -0.8489
 1520TIP3   OH225974   1.022   3.295   6.013 -0.1572  0.1027  0.1023
 1520TIP3    H125975   0.940   3.345   6.013  0.5146  1.2476 -0.6796
 1520TIP3    H225976   1.063   3.317   5.929  2.0271  1.3694  1.4605
 1521TIP3   OH225977   0.377   2.577   4.686  0.1127 -0.2631  0.2097
 1521TIP3    H125978   0.397   2.662   4.648  0.1343 -0.2745  0.1949
 1521TIP3    H225979   0.329   2.531   4.618  0.6292 -0.4847 -0.0089
 1522TIP3   OH225980   5.329   0.889  15.068  0.0971  0.3889 -0.2810
 1522TIP3    H125981   5.330   0.967  15.123 -0.1512  0.5563 -0.5171
 1522TIP3    H225982   5.407   0.840  15.095 -0.2126  0.2999  0.4569
 1523TIP3   OH225983   6.400   1.815   5.663 -0.2569  0.2290  0.1577
 1523TIP3    H125984   6.473   1.801   5.602 -1.1250  0.4641 -0.9482
 1523TIP3    H225985   6.413   1.905   5.694  0.0584  0.1891  0.1488
 1524TIP3   OH225986   2.802   0.699  11.207 -0.1618  0.5957 -0.5291
 1524TIP3    H125987   2.773   0.661  11.124  1.1463  0.9051 -1.1467
 1524TIP3    H225988   2.732   0.679  11.269 -0.4749 -0.9186 -1.3589
 1525TIP3   OH225989   6.055   4.152   4.885  0.4357  0.1793  0.1898
 1525TIP3    H125990   5.973   4.103   4.888 -0.0082  1.0231  2.8816
 1525TIP3    H225991   6.122   4.087   4.863 -0.3054 -1.4523  2.5883
 1526TIP3   OH225992   3.102   1.758   4.721  0.8098 -0.3984  0.2937
 1526TIP3    H125993   3.067   1.679   4.681  1.3922 -1.1334  1.2295
 1526TIP3    H225994   3.112   1.820   4.648  2.0041 -1.7605 -0.7191
 1527TIP3   OH225995   0.895   4.082   5.587 -0.0973 -0.4289 -0.5509
 1527TIP3    H125996   0.835   4.046   5.653  0.8910  1.1313  1.2371
 1527TIP3    H225997   0.855   4.165   5.561  1.9493  1.3318  1.7238
 1528TIP3   OH225998   2.932   4.640  14.929  0.0959  0.1690 -0.0101
 1528TIP3    H125999   2.844   4.658  14.964 -0.6473 -1.7287 -0.8453
 1528TIP3    H226000   2.971   4.581  14.993  0.2803 -0.0268 -0.3043
 1529TIP3   OH226001   3.128   6.134  11.945 -0.3928  0.0263  0.2506
 1529TIP3    H126002   3.211   6.098  11.913  0.4831  1.0238  1.3797
 1529TIP3    H226003   3.113   6.089  12.028 -0.2128  0.9276  0.7785
 1530TIP3   OH226004   4.927   5.438  17.127 -0.0902  0.0918 -0.5141
 1530TIP3    H126005   4.841   5.407  17.155 -0.6489  3.0657  1.3007
 1530TIP3    H226006   4.982   5.426  17.205  1.3976 -2.5209 -1.9039
 1531TIP3   OH226007   4.954   0.831   1.312 -0.2104  0.6985  0.4502
 1531TIP3    H126008   4.947   0.881   1.231 -1.4923  0.5467  0.4669
 1531TIP3    H226009   4.893   0.874   1.372  1.5113  1.4857  1.7038
 1532TIP3   OH226010   3.769   0.958  13.767  0.4383 -0.1645 -0.2965
 1532TIP3    H126011   3.762   0.888  13.831 -0.5516 -1.1004 -1.3989
 1532TIP3    H226012   3.859   0.952  13.735  0.1506 -1.4186 -0.9066
 1533TIP3   OH226013   1.861   4.960  12.414 -0.3521  0.4899 -0.4116
 1533TIP3    H126014   1.803   4.953  12.489  0.3617 -0.9449  0.0313
 1533TIP3    H226015   1.820   4.906  12.346 -0.0114  0.2172 -0.4030
 1534TIP3   OH226016   3.577   3.433   2.297  0.3841 -0.0920  0.0219
 1534TIP3    H126017   3.559   3.358   2.241  2.0764 -0.5016  0.0051
 1534TIP3    H226018   3.638   3.487   2.247 -0.2945  0.9666  0.3122
 1535TIP3   OH226019   5.594   1.407  13.076 -0.2508  0.4517 -0.1255
 1535TIP3    H126020   5.531   1.430  13.144 -1.2579  0.2071 -0.9500
 1535TIP3    H226021   5.669   1.373  13.123 -0.1547  2.0763  0.9555
 1536TIP3   OH226022   0.035   0.747   0.077  0.9404 -0.0186  0.2064
 1536TIP3    H126023  -0.055   0.765   0.051  0.2834  0.9758  2.9162
 1536TIP3    H226024   0.072   0.834   0.095  2.4772 -0.4116 -0.9523
 1537TIP3   OH226025   5.414   5.084   4.518  0.5435 -0.5020  0.1349
 1537TIP3    H126026   5.336   5.030   4.506 -0.4376  0.6036  1.3514
 1537TIP3    H226027   5.381   5.174   4.520  1.6989 -0.0813  1.7191
 1538TIP3   OH226028   3.254   0.650   3.364 -0.6244 -0.2391 -0.1013
 1538TIP3    H126029   3.268   0.558   3.344 -2.1924  0.0911 -2.8440
 1538TIP3    H226030   3.248   0.694   3.279  0.2671  2.4343  1.1426
 1539TIP3   OH226031   1.456   5.487   2.249 -0.0105  0.0065  0.4216
 1539TIP3    H126032   1.503   5.446   2.176  1.1238  1.4241  0.3516
 1539TIP3    H226033   1.363   5.474   2.228  0.3097  0.2912 -1.2038
 1540TIP3   OH226034   1.790   1.334   2.118  0.1852  0.4177 -0.0235
 1540TIP3    H126035   1.726   1.377   2.062  1.0261  1.0457 -0.5217
 1540TIP3    H226036   1.810   1.252   2.073 -0.5757  0.0249  0.3475
 1541TIP3   OH226037   3.882   2.757  11.259 -0.1781 -0.1628 -0.5539
 1541TIP3    H126038   3.805   2.730  11.310  0.2688 -0.8358 -0.2291
 1541TIP3    H226039   3.846   2.796  11.180 -0.8467 -1.6375 -0.9900
 1542TIP3   OH226040   6.257   5.621   5.633  0.1565  0.8392  0.4431
 1542TIP3    H126041   6.239   5.602   5.541  2.7384 -0.1846  0.1148
 1542TIP3    H226042   6.336   5.674   5.631  0.1496  0.9233  2.0717
 1543TIP3   OH226043   3.044   2.606  15.953  0.1928  0.5877  0.0261
 1543TIP3    H126044   3.108   2.632  16.019  0.0289  1.7281 -0.2476
 1543TIP3    H226045   2.961   2.601  16.000  0.6159 -1.7296  0.5600
 1544TIP3   OH226046   4.505   1.402   0.527  0.8480  0.6312  0.4681
 1544TIP3    H126047   4.552   1.446   0.597  1.0975  1.6051 -0.2994
 1544TIP3    H226048   4.522   1.309   0.542  0.9472  0.8298  1.6496
 1545TIP3   OH226049   3.542   0.281   1.973  0.1056 -0.6318  0.2477
 1545TIP3    H126050   3.637   0.282   1.966  0.2605  0.3506  2.1908
 1545TIP3    H226051   3.523   0.204   2.027 -0.2173 -1.0019 -0.3952
 1546TIP3   OH226052   6.248   1.166  12.166 -0.2244 -0.4590 -0.2904
 1546TIP3    H126053   6.243   1.071  12.157 -0.9829 -0.2577 -2.0766
 1546TIP3    H226054   6.300   1.180  12.246  0.2103 -2.3556 -0.2333
 1547TIP3   OH226055   2.827   2.271   6.153 -0.2850 -0.1469 -0.1098
 1547TIP3    H126056   2.732   2.272   6.169 -0.0870 -2.0819  1.3408
 1547TIP3    H226057   2.837   2.314   6.068 -2.5732 -0.9391 -0.8191
 1548TIP3   OH226058   4.522   3.734  12.579 -0.4186 -0.6709  0.5182
 1548TIP3    H126059   4.494   3.750  12.669  1.3895  1.0134  0.8001
 1548TIP3    H226060   4.466   3.791  12.526 -1.9800 -2.1859  0.4495
 1549TIP3   OH226061   3.676   6.625  12.815 -0.6515 -0.1099  0.7531
 1549TIP3    H126062   3.665   6.530  12.821 -0.7057 -0.1094  0.6658
 1549TIP3    H226063   3.589   6.660  12.836 -0.9931 -0.1258 -0.5814
 1550TIP3   OH226064   0.237   3.849  14.255  0.1940 -0.1168 -0.3311
 1550TIP3    H126065   0.307   3.899  14.297  0.3067 -0.5236 -0.0301
 1550TIP3    H226066   0.176   3.915  14.223  0.0277  0.2012  0.6158
 1551TIP3   OH226067   2.318   6.164  16.049 -0.6681  0.4128 -0.3620
 1551TIP3    H126068   2.284   6.238  16.099 -0.8874  0.4586 -0.5699
 1551TIP3    H226069   2.278   6.087  16.089  0.4350  0.3109  0.5615
 1552TIP3   OH226070   2.601   4.484   3.771  0.2478  0.7083 -0.2728
 1552TIP3    H126071   2.649   4.402   3.767  0.4160  0.7975 -0.1148
 1552TIP3    H226072   2.634   4.535   3.697 -0.6792  0.1907 -1.0515
 1553TIP3   OH226073   0.339   4.017  13.654 -0.6193 -0.4648  0.3220
 1553TIP3    H126074   0.419   3.966  13.663 -1.0996 -1.0935  1.1359
 1553TIP3    H226075   0.322   4.019  13.560 -0.7334 -2.0363  0.2965
 1554TIP3   OH226076   1.129   5.958   1.539 -0.1263 -0.3660  0.6114
 1554TIP3    H126077   1.200   6.023   1.544  0.5139 -1.0977  1.2724
 1554TIP3    H226078   1.170   5.882   1.499 -0.6533 -0.6534  0.6170
 1555TIP3   OH226079   1.729   2.302   0.996 -0.3637 -0.1739  0.4660
 1555TIP3    H126080   1.776   2.246   0.934 -2.3764 -0.4359 -0.8496
 1555TIP3    H226081   1.781   2.383   0.997  0.6029 -0.7577 -0.3076
 1556TIP3   OH226082   3.107   4.942  15.442 -0.3808 -0.1838 -0.2199
 1556TIP3    H126083   3.022   4.899  15.432 -0.3089 -0.7089  1.4124
 1556TIP3    H226084   3.155   4.917  15.363 -1.3815 -0.7043 -0.6772
 1557TIP3   OH226085   0.988   6.197   1.885  1.1645  0.0335  0.7457
 1557TIP3    H126086   1.061   6.201   1.825 -0.1167 -2.9187 -1.1018
 1557TIP3    H226087   1.000   6.116   1.934  0.5125  0.8341  2.3169
 1558TIP3   OH226088   5.576   5.587  11.403  0.1959  0.1747  0.5694
 1558TIP3    H126089   5.520   5.518  11.366  0.4909 -0.1738  0.7651
 1558TIP3    H226090   5.646   5.598  11.339  0.3549  0.0223  0.7122
 1559TIP3   OH226091   5.034   6.653   6.024  0.0925 -0.1733 -0.5522
 1559TIP3    H126092   5.089   6.686   6.095  2.5365  1.5369 -3.1829
 1559TIP3    H226093   4.967   6.600   6.069  2.8546 -0.9593  2.8372
 1560TIP3   OH226094   0.873   4.743  11.075  0.0370  0.6370  0.1377
 1560TIP3    H126095   0.872   4.820  11.132  0.3991  0.8985 -0.2154
 1560TIP3    H226096   0.940   4.686  11.113 -1.2883 -0.2016  1.3160
 1561TIP3   OH226097   6.003   2.914   1.140  0.1205 -0.6892  0.9106
 1561TIP3    H126098   5.998   2.910   1.044  0.6647 -1.3757  0.9028
 1561TIP3    H226099   6.088   2.953   1.158 -0.1913 -0.1061  1.1096
 1562TIP3   OH226100   5.605   5.117  16.120  0.6606 -0.1299 -0.5367
 1562TIP3    H126101   5.627   5.197  16.072  0.4729  1.1061  1.4008
 1562TIP3    H226102   5.611   5.141  16.212  0.3622 -2.2902  0.0909
 1563TIP3   OH226103   3.700   5.814  10.611  0.2024 -0.2077  0.0449
 1563TIP3    H126104   3.775   5.872  10.621  0.5168 -0.5069 -0.5458
 1563TIP3    H226105   3.629   5.871  10.579 -0.3509  0.4334  2.2924
 1564TIP3   OH226106   0.482   4.145   3.456 -0.2044  0.3063 -0.1258
 1564TIP3    H126107   0.536   4.206   3.406 -0.0469  0.0467 -0.2756
 1564TIP3    H226108   0.497   4.169   3.548  1.2253 -0.6393 -0.0920
 1565TIP3   OH226109   5.038   6.265   1.859 -0.0301 -0.5000  0.3611
 1565TIP3    H126110   5.087   6.301   1.933  0.8829 -0.6122 -0.1879
 1565TIP3    H226111   4.971   6.330   1.840 -0.0036 -0.2811  1.0224
 1566TIP3   OH226112   0.296   3.656  13.422  0.3760  0.1023 -0.2850
 1566TIP3    H126113   0.311   3.607  13.341  1.0119 -0.2671  0.0456
 1566TIP3    H226114   0.367   3.720  13.425  1.1603 -0.7865  0.6485
 1567TIP3   OH226115   0.359   4.713   1.031  0.2086  0.8033 -0.1803
 1567TIP3    H126116   0.314   4.771   0.969 -2.1039  0.2193  0.9214
 1567TIP3    H226117   0.391   4.641   0.977 -2.8374 -0.3235 -0.6018
 1568TIP3   OH226118   1.306   0.688  16.827 -0.1558 -0.7626 -0.1552
 1568TIP3    H126119   1.394   0.688  16.863 -0.2267  1.9244  0.1273
 1568TIP3    H226120   1.318   0.711  16.734 -0.4846 -1.2185 -0.3117
 1569TIP3   OH226121   1.204   1.795   1.250 -0.2382  0.1379  0.4024
 1569TIP3    H126122   1.251   1.848   1.186  2.5598 -1.3828  1.1569
 1569TIP3    H226123   1.147   1.739   1.196  1.4894 -0.5652 -0.7176
 1570TIP3   OH226124   3.319   4.004  13.960  0.1498  0.4470  0.5892
 1570TIP3    H126125   3.310   3.915  13.926  1.1968  0.4831  0.2012
 1570TIP3    H226126   3.241   4.017  14.014 -1.8714  0.5841 -2.2461
 1571TIP3   OH226127   2.436   5.869  10.684  0.4306  0.1435  0.2382
 1571TIP3    H126128   2.532   5.859  10.682  0.2335 -1.7825  0.0874
 1571TIP3    H226129   2.422   5.945  10.740  2.0741  0.7909 -0.1778
 1572TIP3   OH226130   0.683   2.046   3.148 -0.0967  0.2275 -0.5421
 1572TIP3    H126131   0.658   2.137   3.164  0.0377  0.7718 -3.3102
 1572TIP3    H226132   0.778   2.049   3.138  0.1492 -0.5446  1.3302
 1573TIP3   OH226133   3.506   1.290  14.708 -0.4635 -0.6816 -0.1544
 1573TIP3    H126134   3.482   1.260  14.796  0.0711  0.4174  0.3866
 1573TIP3    H226135   3.555   1.371  14.724 -1.7306  0.3862 -1.5488
 1574TIP3   OH226136   4.036   4.963   2.829 -0.1349  0.8859 -0.6988
 1574TIP3    H126137   3.989   4.879   2.829  1.2671  0.0698 -0.1621
 1574TIP3    H226138   3.968   5.029   2.837 -1.3312 -0.1713 -1.9853
 1575TIP3   OH226139   1.347   5.133  14.074 -0.0688 -0.1146 -0.0969
 1575TIP3    H126140   1.261   5.116  14.036 -1.2968  0.5778  2.2265
 1575TIP3    H226141   1.327   5.173  14.159  2.5042 -1.9397  1.4294
 1576TIP3   OH226142   6.652   0.847  16.591 -0.6957  0.0122  0.4165
 1576TIP3    H126143   6.558   0.868  16.589 -0.5285  0.6886 -0.9042
 1576TIP3    H226144   6.677   0.840  16.499  0.6153  0.0752  0.7617
 1577TIP3   OH226145   4.900   5.924  13.247  0.8797  0.1298  0.3887
 1577TIP3    H126146   4.927   5.832  13.240 -0.5344 -0.2053 -0.7644
 1577TIP3    H226147   4.857   5.943  13.164 -0.2844  1.3603  1.2578
 1578TIP3   OH226148   0.857   1.309  12.772  0.1584 -0.4168 -0.3504
 1578TIP3    H126149   0.915   1.240  12.739  0.1231 -0.7798  0.3296
 1578TIP3    H226150   0.841   1.365  12.697  0.9321 -0.6396 -0.6907
 1579TIP3   OH226151   5.650   5.089  12.545 -0.5953 -0.3199 -0.2481
 1579TIP3    H126152   5.595   5.097  12.466 -0.6200  0.3869 -0.1664
 1579TIP3    H226153   5.591   5.113  12.617  0.5355  3.2324 -0.4140
 1580TIP3   OH226154   5.926   2.328  12.951  0.2302  0.3182 -0.6388
 1580TIP3    H126155   5.949   2.262  13.016 -1.9182 -0.4881 -0.6520
 1580TIP3    H226156   5.998   2.391  12.954  1.1352 -0.7613  1.0787
 1581TIP3   OH226157   3.122   4.924   2.775  0.7790  0.5614 -0.4440
 1581TIP3    H126158   3.167   5.008   2.788  1.2688  0.3726 -0.9332
 1581TIP3    H226159   3.184   4.859   2.808  0.3172  0.4020  0.1210
 1582TIP3   OH226160   5.688   5.054  15.068  0.2527  0.8830 -0.3494
 1582TIP3    H126161   5.617   5.008  15.022  1.1497 -0.1263 -0.7597
 1582TIP3    H226162   5.701   5.003  15.148  0.2946  1.2603 -0.1140
 1583TIP3   OH226163   1.406   4.077  11.184  0.0345 -0.1598 -0.6391
 1583TIP3    H126164   1.461   4.107  11.113  0.1093  1.6797  0.1734
 1583TIP3    H226165   1.433   3.987  11.200  0.8390 -0.1804 -2.1214
 1584TIP3   OH226166   3.814   3.913   1.928 -0.0468  0.1903 -0.0304
 1584TIP3    H126167   3.783   3.826   1.902  1.3964 -0.5196  0.5642
 1584TIP3    H226168   3.897   3.924   1.883  0.2368  0.8552  0.6383
 1585TIP3   OH226169   3.684   3.496   2.767 -0.2193  0.1492  0.0149
 1585TIP3    H126170   3.599   3.495   2.811 -0.3721  0.3505 -0.2738
 1585TIP3    H226171   3.747   3.476   2.836 -0.2239  2.7229  0.8084
 1586TIP3   OH226172   6.356   2.854   1.489 -0.0610 -0.2624  0.8705
 1586TIP3    H126173   6.361   2.941   1.450  1.0893 -1.7914 -2.5091
 1586TIP3    H226174   6.273   2.818   1.458 -0.5706 -0.3984  2.3252
 1587TIP3   OH226175   5.032   2.224  14.767  0.1495  0.1322  0.7863
 1587TIP3    H126176   5.110   2.172  14.747  0.4824  1.1755 -0.6851
 1587TIP3    H226177   5.038   2.300  14.709 -2.3943 -0.2046  0.0149
 1588TIP3   OH226178   1.330   4.401   1.066 -0.6292  0.3628 -0.3884
 1588TIP3    H126179   1.371   4.361   1.142  2.0716  1.4276 -1.2297
 1588TIP3    H226180   1.281   4.475   1.102 -1.9958 -0.9977  0.6370
 1589TIP3   OH226181   1.470   6.420  13.584 -0.5584 -0.4562 -0.5184
 1589TIP3    H126182   1.509   6.479  13.520 -1.1661  1.5950  0.9415
 1589TIP3    H226183   1.489   6.332  13.551 -0.7365  0.5549 -3.4034
 1590TIP3   OH226184   5.991   0.989   2.444  0.2799 -0.5809 -0.7165
 1590TIP3    H126185   5.960   0.910   2.401 -0.1372  0.6798 -2.8082
 1590TIP3    H226186   5.926   1.056   2.421  1.2357  0.6402  0.0543
 1591TIP3   OH226187   4.575   3.908   4.406  0.8693 -0.1105 -0.1018
 1591TIP3    H126188   4.496   3.907   4.351  0.6432  0.7630  0.1885
 1591TIP3    H226189   4.613   3.821   4.396  0.2855 -0.2824 -0.8564
 1592TIP3   OH226190   2.653   2.492  10.736  0.0436 -0.0687 -0.4132
 1592TIP3    H126191   2.657   2.578  10.777  0.2600  0.1646 -0.9206
 1592TIP3    H226192   2.589   2.443  10.788  0.5734  0.1120  0.4196
 1593TIP3   OH226193   2.683   4.215   2.183  0.0375 -0.0419  0.2995
 1593TIP3    H126194   2.651   4.127   2.164 -1.2074  0.4707 -0.0331
 1593TIP3    H226195   2.608   4.260   2.221  0.0986  1.4284 -1.2351
 1594TIP3   OH226196   2.363   3.882   1.131 -0.2416  0.0155  0.1284
 1594TIP3    H126197   2.329   3.893   1.043 -1.5390 -0.2519  0.5841
 1594TIP3    H226198   2.373   3.971   1.164 -3.3644  0.0899  1.0433
 1595TIP3   OH226199   4.560   1.021  17.202 -0.0871  0.0652  0.6174
 1595TIP3    H126200   4.617   1.057  17.269 -0.8583 -0.8386  1.7811
 1595TIP3    H226201   4.598   0.935  17.182 -0.8562 -0.4091  1.1733
 1596TIP3   OH226202   0.240   5.487   4.439  0.0743  0.1619  0.3353
 1596TIP3    H126203   0.263   5.403   4.479  0.9493 -1.5796 -3.6402
 1596TIP3    H226204   0.160   5.470   4.390 -0.1726  1.8731  0.0975
 1597TIP3   OH226205   3.144   0.421   1.798 -0.0452  0.9059 -0.6449
 1597TIP3    H126206   3.192   0.460   1.725  2.1997 -0.2058  0.1803
 1597TIP3    H226207   3.185   0.335   1.810 -0.8814  0.7566  1.4230
 1598TIP3   OH226208   5.018   5.269  14.817 -0.1271  0.0220  0.6655
 1598TIP3    H126209   4.969   5.310  14.889  0.3919  1.1219  0.4043
 1598TIP3    H226210   4.951   5.246  14.753 -0.3219  1.5580  0.2945
 1599TIP3   OH226211   4.424   5.831   0.095 -0.2783 -0.3498 -0.2335
 1599TIP3    H126212   4.517   5.812   0.105 -0.1949 -0.5346 -1.2591
 1599TIP3    H226213   4.387   5.819   0.182  0.7163  0.0554  0.2520
 1600TIP3   OH226214   1.761   2.931   1.760  0.1337 -0.5176 -0.2780
 1600TIP3    H126215   1.684   2.877   1.741  0.0260 -0.7544  0.7668
 1600TIP3    H226216   1.833   2.868   1.766  0.1696 -0.4479  0.0513
 1601TIP3   OH226217   6.181   0.417   2.422  0.5885  0.0572 -0.2159
 1601TIP3    H126218   6.187   0.487   2.358 -1.3646  0.0727 -0.4248
 1601TIP3    H226219   6.242   0.350   2.390  1.7419  1.2403 -0.5284
 1602TIP3   OH226220   1.355   2.465  12.598  0.0766  0.3978 -0.1483
 1602TIP3    H126221   1.384   2.553  12.623  0.2787  0.1883  0.3669
 1602TIP3    H226222   1.424   2.407  12.630 -0.3859 -0.0085  0.1172
 1603TIP3   OH226223   3.654   2.870  16.074  0.1677  0.9770  0.2587
 1603TIP3    H126224   3.741   2.887  16.110 -0.0721  2.1733  0.2946
 1603TIP3    H226225   3.594   2.890  16.146 -0.1278 -0.5065  0.4615
 1604TIP3   OH226226   3.932   3.095   5.454 -0.3758  0.1408 -0.2562
 1604TIP3    H126227   3.910   3.188   5.467  0.1977  0.2473 -0.0443
 1604TIP3    H226228   4.026   3.090   5.470 -0.3850 -0.4606 -0.3828
 1605TIP3   OH226229   1.035   3.376   4.879  0.1188  0.4134  0.3171
 1605TIP3    H126230   1.018   3.337   4.794  1.7082  1.8623 -0.6864
 1605TIP3    H226231   1.075   3.305   4.930  0.5638 -0.0310 -0.6355
 1606TIP3   OH226232   2.397   6.014  17.076  0.5253 -0.3450 -0.2435
 1606TIP3    H126233   2.480   6.060  17.083  0.3590 -0.0478 -0.2406
 1606TIP3    H226234   2.404   5.943  17.141  0.3674  0.3126  0.4924
 1607TIP3   OH226235   3.856   5.133   3.195  0.8298  0.0858  0.2381
 1607TIP3    H126236   3.828   5.171   3.111  0.6519  1.3515  0.8605
 1607TIP3    H226237   3.851   5.038   3.181  0.3132  0.2889 -1.0226
 1608TIP3   OH226238   3.304   1.178   4.160 -0.3402  0.2260 -0.0012
 1608TIP3    H126239   3.281   1.088   4.183 -0.9920  0.1478 -0.9708
 1608TIP3    H226240   3.390   1.191   4.202  0.1187 -1.0955 -0.4988
 1609TIP3   OH226241   5.577   4.806   2.629  0.0870  0.4013 -0.2369
 1609TIP3    H126242   5.536   4.870   2.571  0.5937  0.3936 -0.6024
 1609TIP3    H226243   5.512   4.791   2.698  0.1399  1.6078  0.0731
 1610TIP3   OH226244   5.304   2.754  14.890 -0.7289  0.4100 -0.2116
 1610TIP3    H126245   5.396   2.725  14.891 -1.0137 -0.5894 -1.5145
 1610TIP3    H226246   5.296   2.809  14.968  0.8459  0.0923  0.2067
 1611TIP3   OH226247   4.371   2.777   4.714 -0.1841  0.2239 -0.0667
 1611TIP3    H126248   4.395   2.773   4.807 -0.5008 -0.8004 -0.0241
 1611TIP3    H226249   4.400   2.693   4.678 -0.2327  0.5434 -0.8508
 1612TIP3   OH226250   5.954   3.518  14.440  0.0311  0.1598  0.5986
 1612TIP3    H126251   5.895   3.511  14.515  2.6687  1.2123  2.8528
 1612TIP3    H226252   5.940   3.608  14.408  0.0289  0.2331  0.8016
 1613TIP3   OH226253   2.561   4.096   4.859 -0.5414 -0.6734 -0.3362
 1613TIP3    H126254   2.629   4.139   4.911 -1.7336  0.4029  0.3801
 1613TIP3    H226255   2.563   4.140   4.774 -0.3310 -0.6631 -0.3250
 1614TIP3   OH226256   2.097   3.635  11.701 -0.1785  0.2727  0.1123
 1614TIP3    H126257   2.188   3.656  11.680  0.3688 -1.7476  0.3320
 1614TIP3    H226258   2.047   3.710  11.668  1.6291  1.7884  0.7181
 1615TIP3   OH226259   4.616   0.674   1.462  0.2115 -0.1122 -0.0721
 1615TIP3    H126260   4.664   0.753   1.484 -0.9318  0.5664  0.0604
 1615TIP3    H226261   4.604   0.679   1.367  1.4675 -0.9054 -0.2807
 1616TIP3   OH226262   5.683   3.493  10.414  0.1814  0.5090 -0.5107
 1616TIP3    H126263   5.749   3.449  10.467  0.8333  1.3185 -0.6324
 1616TIP3    H226264   5.715   3.583  10.407 -0.7281  0.8043 -0.9157
 1617TIP3   OH226265   0.740   1.404  16.505  0.4827 -0.0651  0.0295
 1617TIP3    H126266   0.755   1.463  16.579  2.3386 -0.5054  0.0495
 1617TIP3    H226267   0.773   1.319  16.536  1.8823 -0.1070 -1.4986
 1618TIP3   OH226268   0.788   3.538   2.965  0.2013 -0.0280  0.2045
 1618TIP3    H126269   0.860   3.599   2.979 -0.3021  0.3643  1.0909
 1618TIP3    H226270   0.713   3.577   3.012 -1.0981  0.5163 -2.2068
 1619TIP3   OH226271   2.839   4.926   3.172 -0.5227 -0.2090 -0.0644
 1619TIP3    H126272   2.800   5.014   3.172 -0.0619  0.0137  1.3197
 1619TIP3    H226273   2.765   4.868   3.156 -1.1290  0.3392  0.6691
 1620TIP3   OH226274   5.247   2.177  10.984 -0.0846 -0.0386  0.1606
 1620TIP3    H126275   5.206   2.142  11.063  1.1555 -0.3135  0.6923
 1620TIP3    H226276   5.178   2.227  10.941 -0.6015  0.5906  1.7100
 1621TIP3   OH226277   3.566   2.573  13.099  0.2282  0.2514  1.1836
 1621TIP3    H126278   3.634   2.640  13.096  0.4505  0.0150  0.9533
 1621TIP3    H226279   3.497   2.607  13.043  0.8445 -0.2651  0.1022
 1622TIP3   OH226280   1.124   4.620  15.110  0.5522  0.3358 -0.2763
 1622TIP3    H126281   1.122   4.715  15.100 -1.9274  0.3859  0.4749
 1622TIP3    H226282   1.181   4.605  15.185  0.2062  1.2821  0.1747
 1623TIP3   OH226283   2.182   4.412   2.197  0.0850  0.0787  0.1818
 1623TIP3    H126284   2.242   4.485   2.209  1.1527 -0.5721 -0.9679
 1623TIP3    H226285   2.115   4.445   2.137 -0.0565  0.4525  0.5471
 1624TIP3   OH226286   4.483   2.382  13.883  0.0315 -0.1632 -0.0159
 1624TIP3    H126287   4.567   2.426  13.877 -0.0932 -0.1300 -2.1341
 1624TIP3    H226288   4.501   2.292  13.857 -0.5675 -0.1552 -0.4834
 1625TIP3   OH226289   4.932   2.775   3.773  0.8558  0.0340 -0.4024
 1625TIP3    H126290   4.850   2.798   3.815  0.7203  1.0192 -1.1705
 1625TIP3    H226291   4.993   2.761   3.845  1.1524  3.6301  0.1730
 1626TIP3   OH226292   0.604   5.937   4.269 -0.1762 -0.3495 -0.4942
 1626TIP3    H126293   0.516   5.947   4.305 -0.5277 -0.4363 -1.3026
 1626TIP3    H226294   0.595   5.868   4.202  0.9220 -1.7341  0.7571
 1627TIP3   OH226295   4.810   6.556  14.291  0.1208  0.5003 -0.2199
 1627TIP3    H126296   4.802   6.640  14.338 -0.6806  0.7624 -0.8086
 1627TIP3    H226297   4.774   6.574  14.204 -0.7442 -0.6591 -0.1054
 1628TIP3   OH226298   5.901   5.488   0.882  0.0463  0.2490  0.2401
 1628TIP3    H126299   5.906   5.425   0.954 -2.0607  0.6093  0.7289
 1628TIP3    H226300   5.919   5.436   0.804 -0.7621 -0.7917  0.7289
 1629TIP3   OH226301   0.713   4.643  11.336 -0.4790 -0.6104  0.0952
 1629TIP3    H126302   0.677   4.603  11.257 -0.1880 -0.8972  0.1096
 1629TIP3    H226303   0.640   4.642  11.399 -0.4146 -1.2988  0.1625
 1630TIP3   OH226304   2.462   1.018   0.743  0.1344 -0.5591 -0.2454
 1630TIP3    H126305   2.458   1.047   0.834  0.0973 -0.8791 -0.1449
 1630TIP3    H226306   2.545   0.971   0.737 -0.5721 -1.8568  0.0132
 1631TIP3   OH226307   0.979   0.182   0.979  0.2654  0.3425 -0.2948
 1631TIP3    H126308   1.052   0.124   0.956 -0.3489 -0.2870 -0.6676
 1631TIP3    H226309   0.922   0.128   1.033  1.1259  1.4691  1.7945
 1632TIP3   OH226310   3.456   5.578   2.149 -0.6056 -0.3485  0.2347
 1632TIP3    H126311   3.477   5.508   2.210  1.2953 -0.6816 -0.7675
 1632TIP3    H226312   3.461   5.658   2.201  1.9739 -0.5367  0.3491
 1633TIP3   OH226313   0.047   1.557   2.461 -0.1622  0.1412 -0.0863
 1633TIP3    H126314   0.089   1.477   2.428  0.8322 -0.1605  1.8248
 1633TIP3    H226315   0.089   1.573   2.546 -2.4256  1.0345  0.9157
 1634TIP3   OH226316   3.536   2.316   4.637 -0.3736 -0.8295  0.1253
 1634TIP3    H126317   3.522   2.292   4.729 -0.5354 -0.6695  0.1424
 1634TIP3    H226318   3.520   2.410   4.634 -0.7688 -0.9025 -0.1425
 1635TIP3   OH226319   0.881   4.994   5.235  0.0227 -0.2087 -0.5364
 1635TIP3    H126320   0.858   4.967   5.323 -2.5178 -0.9945 -1.4044
 1635TIP3    H226321   0.976   4.981   5.230  0.0578 -0.9878  1.7798
 1636TIP3   OH226322   2.550   3.354  12.273  0.6530 -0.3990 -0.0957
 1636TIP3    H126323   2.518   3.295  12.204  0.0844 -0.1198 -0.0713
 1636TIP3    H226324   2.503   3.436  12.257  0.2361 -0.4529  0.8611
 1637TIP3   OH226325   5.703   6.664  12.802 -0.2489 -0.3034 -0.2920
 1637TIP3    H126326   5.679   6.755  12.788 -2.1693 -0.0990  3.5933
 1637TIP3    H226327   5.799   6.664  12.800 -0.2353  1.7211 -0.8188
 1638TIP3   OH226328   5.159   0.532  15.284 -0.0757 -0.4427  0.4134
 1638TIP3    H126329   5.129   0.487  15.205  3.0128 -0.1744 -0.9585
 1638TIP3    H226330   5.134   0.624  15.270  0.7613 -0.3406 -0.3841
 1639TIP3   OH226331   3.953   6.534   2.423  0.1846  0.4396  0.2136
 1639TIP3    H126332   3.985   6.599   2.486  0.4018 -0.7881  1.4022
 1639TIP3    H226333   4.015   6.540   2.349  0.8301  0.8420  0.7788
 1640TIP3   OH226334   5.696   1.208  14.889  0.3570 -0.7056 -0.1553
 1640TIP3    H126335   5.786   1.242  14.892  0.1000 -0.0404  0.3381
 1640TIP3    H226336   5.684   1.178  14.800  0.3879  1.1100 -0.7977
 1641TIP3   OH226337   1.618   5.211  12.305  0.2506  0.2482 -0.4424
 1641TIP3    H126338   1.710   5.192  12.287  0.6714  0.7059  1.0834
 1641TIP3    H226339   1.591   5.143  12.367  0.0874  1.1230  0.4753
 1642TIP3   OH226340   6.487   3.641  11.586 -0.7322  0.5810  0.0508
 1642TIP3    H126341   6.439   3.620  11.506 -1.1697  2.0957 -0.0881
 1642TIP3    H226342   6.554   3.572  11.592 -1.0806  0.1099 -1.2846
 1643TIP3   OH226343   1.822   0.402  11.507 -0.4291  0.1960 -0.1070
 1643TIP3    H126344   1.874   0.323  11.500 -1.9922 -0.9678  1.2067
 1643TIP3    H226345   1.737   0.373  11.538 -0.9019  2.4384  0.8228
 1644TIP3   OH226346   3.243   0.203   6.356 -0.3961 -0.5283 -0.5911
 1644TIP3    H126347   3.268   0.157   6.436  1.0528  0.5774 -0.4001
 1644TIP3    H226348   3.299   0.281   6.354 -2.8289  1.2641 -0.8849
 1645TIP3   OH226349   6.594   2.752  13.083  0.3530 -0.6742  0.4338
 1645TIP3    H126350   6.683   2.755  13.049  0.1823 -0.9183 -0.0431
 1645TIP3    H226351   6.575   2.658  13.094 -0.9406 -0.8077 -2.4114
 1646TIP3   OH226352   2.875   5.076  11.462 -0.1059 -0.5642  0.4090
 1646TIP3    H126353   2.901   5.055  11.552  0.7407 -0.8228  0.1044
 1646TIP3    H226354   2.953   5.114  11.423 -0.8011  0.5643  0.1064
 1647TIP3   OH226355   3.956   4.292  10.915  0.0948 -0.4992 -0.0548
 1647TIP3    H126356   3.908   4.373  10.934 -0.7693 -1.1142  0.4267
 1647TIP3    H226357   4.033   4.321  10.866  0.5176  0.7519  1.3213
 1648TIP3   OH226358   1.064   2.990  12.880 -0.4497 -0.4990 -0.3657
 1648TIP3    H126359   1.029   3.030  12.959 -0.6017  1.7950 -1.5530
 1648TIP3    H226360   1.032   2.900  12.882 -0.7529 -0.3610  1.9729
 1649TIP3   OH226361   2.450   3.601  15.076 -0.7894  0.5504  0.3908
 1649TIP3    H126362   2.538   3.607  15.115  0.0964  2.5707 -1.7982
 1649TIP3    H226363   2.414   3.689  15.084 -2.7128 -0.3177  1.4216
 1650TIP3   OH226364   0.741   1.765   2.287 -0.3073  0.0620  0.6186
 1650TIP3    H126365   0.825   1.730   2.317 -1.0472 -1.4892  0.9606
 1650TIP3    H226366   0.716   1.829   2.354  0.0968 -0.2630  1.0824
 1651TIP3   OH226367   6.326   6.292   4.367 -0.0454  0.0949  0.0100
 1651TIP3    H126368   6.257   6.263   4.306  1.2620 -2.0308 -0.4826
 1651TIP3    H226369   6.385   6.343   4.312 -0.4799  0.7496  0.1456
 1652TIP3   OH226370   4.147   6.026  12.680  0.5639  0.0963 -0.6864
 1652TIP3    H126371   4.059   5.992  12.662  0.1577  0.1862  1.0624
 1652TIP3    H226372   4.149   6.110  12.634  0.1739 -0.4582 -1.7390
 1653TIP3   OH226373   1.308   2.396  13.836 -0.2641 -0.0283 -0.4247
 1653TIP3    H126374   1.341   2.342  13.764  1.6829 -0.1207  0.5181
 1653TIP3    H226375   1.343   2.483  13.820  0.3620 -0.1007  0.5340
 1654TIP3   OH226376   0.259   4.750  12.611 -0.3517  0.0342  1.0316
 1654TIP3    H126377   0.252   4.728  12.704  0.0075  0.7810  1.2391
 1654TIP3    H226378   0.235   4.843  12.606  0.2552  0.1623  0.4648
 1655TIP3   OH226379   2.433   5.787  16.178 -0.8277  0.0181 -0.5252
 1655TIP3    H126380   2.474   5.822  16.098  1.5603  1.9256  1.4637
 1655TIP3    H226381   2.491   5.716  16.205 -1.6132 -0.6024 -0.4612
 1656TIP3   OH226382   5.892   2.694   5.487  0.1868  0.4478 -0.6255
 1656TIP3    H126383   5.907   2.621   5.426  0.6438 -0.4062  0.4883
 1656TIP3    H226384   5.824   2.663   5.547 -0.7397  1.5353 -1.0927
 1657TIP3   OH226385   4.762   6.105  13.395  0.4352  0.1773  0.4258
 1657TIP3    H126386   4.706   6.140  13.326  0.9124  1.7761  0.8457
 1657TIP3    H226387   4.819   6.043  13.351 -0.8478 -0.5803 -0.2083
 1658TIP3   OH226388   5.303   5.374  12.664  0.2940 -0.1343  0.2184
 1658TIP3    H126389   5.338   5.301  12.612  0.9849 -0.2002  0.7700
 1658TIP3    H226390   5.216   5.390  12.627  0.1226 -1.2629  0.1139
 1659TIP3   OH226391   4.835   4.034  13.399 -0.2601  0.1798 -0.5661
 1659TIP3    H126392   4.777   3.971  13.442 -1.8297  2.9531  1.5743
 1659TIP3    H226393   4.782   4.114  13.393  2.3874  1.9307 -1.2702
 1660TIP3   OH226394   6.374   3.020  16.645  0.6570  0.0903 -0.0683
 1660TIP3    H126395   6.446   2.989  16.700 -0.0498  0.3046  0.9819
 1660TIP3    H226396   6.326   2.941  16.622  0.0584  0.1635  0.9036
 1661TIP3   OH226397   0.533   2.050  17.166 -0.0897 -0.1434 -0.4055
 1661TIP3    H126398   0.498   1.978  17.113 -0.5729 -0.3436  0.1701
 1661TIP3    H226399   0.584   2.007  17.234  0.1541  0.0879 -0.4426
 1662TIP3   OH226400   2.452   2.470  16.103 -0.2075 -0.2497 -0.2772
 1662TIP3    H126401   2.514   2.404  16.134 -1.2064 -0.6530  0.9027
 1662TIP3    H226402   2.389   2.479  16.174 -0.7187  1.1686 -0.8926
 1663TIP3   OH226403   4.306   1.622   1.931  0.0630  0.1974  0.0838
 1663TIP3    H126404   4.242   1.558   1.963 -0.1667  0.6216  0.4879
 1663TIP3    H226405   4.295   1.697   1.989  0.8438  0.3234  0.0684
 1664TIP3   OH226406   3.842   2.791  12.060 -0.4328  0.0685  0.0708
 1664TIP3    H126407   3.795   2.845  12.123 -0.5286 -0.2184  0.2460
 1664TIP3    H226408   3.913   2.847  12.028 -1.4225  0.8173 -0.8650
 1665TIP3   OH226409   0.062   6.453   2.353  0.3909  0.0460  0.0892
 1665TIP3    H126410   0.100   6.365   2.354  1.6243  0.5059 -2.4767
 1665TIP3    H226411  -0.029   6.439   2.326 -0.1034 -0.6318  1.9980
 1666TIP3   OH226412   2.029   3.523   4.786  0.5313 -0.4430 -0.4508
 1666TIP3    H126413   2.082   3.522   4.866  0.3491  1.1307 -0.3002
 1666TIP3    H226414   2.080   3.574   4.724 -0.1212 -0.1949 -0.7841
 1667TIP3   OH226415   4.101   6.307  16.804  0.1867  0.2333  0.2345
 1667TIP3    H126416   4.050   6.342  16.878  0.8316  2.6579 -0.4088
 1667TIP3    H226417   4.078   6.364  16.730 -1.0526 -2.6398 -1.6763
 1668TIP3   OH226418   1.811   0.995   6.397 -0.4018  0.2267 -0.2431
 1668TIP3    H126419   1.803   1.026   6.488  2.0860 -0.3824  0.2052
 1668TIP3    H226420   1.777   0.906   6.400 -1.2952  0.5576 -0.1518
 1669TIP3   OH226421   2.067   2.697  13.441  0.4264  0.1647 -0.2174
 1669TIP3    H126422   2.093   2.617  13.488 -0.0477 -0.5713 -1.1779
 1669TIP3    H226423   2.050   2.761  13.510  1.3348 -0.4004  0.5519
 1670TIP3   OH226424   2.060   6.053   2.328 -0.2433 -0.2652 -0.5710
 1670TIP3    H126425   2.126   6.110   2.368 -0.0336 -2.4257  2.3344
 1670TIP3    H226426   2.099   6.026   2.245  1.8986 -0.3752  0.4501
 1671TIP3   OH226427   4.982   2.405   3.565  0.5582  0.2028 -0.6867
 1671TIP3    H126428   5.056   2.454   3.528  1.3798 -0.8276 -0.4494
 1671TIP3    H226429   5.018   2.364   3.644 -0.6439  0.7716  0.1777
 1672TIP3   OH226430   0.073   1.770  14.856  0.1161 -0.3160  0.5176
 1672TIP3    H126431  -0.021   1.786  14.863 -0.2668 -2.0417 -0.3216
 1672TIP3    H226432   0.082   1.715  14.778  1.7897 -0.4787  0.8031
 1673TIP3   OH226433   1.013   1.685  12.372 -0.3386  0.0155  0.1648
 1673TIP3    H126434   0.933   1.674  12.321 -1.9482  0.8809  2.4544
 1673TIP3    H226435   1.022   1.604  12.422  1.3213 -0.8958 -1.5557
 1674TIP3   OH226436   2.161   6.218  16.690  0.0392  0.1474  0.4031
 1674TIP3    H126437   2.243   6.222  16.641 -0.5106  1.1228 -0.4797
 1674TIP3    H226438   2.186   6.190  16.778  1.4110  1.1722  0.3586
 1675TIP3   OH226439   1.404   2.404  11.755 -0.0285  0.2951  0.0144
 1675TIP3    H126440   1.393   2.390  11.661  0.0903  1.6483 -0.2117
 1675TIP3    H226441   1.461   2.332  11.784  0.5465  0.3071 -1.0863
 1676TIP3   OH226442   2.529   6.555  14.395 -0.4761 -0.1025 -0.0783
 1676TIP3    H126443   2.448   6.524  14.435  0.3913  0.4039  2.1296
 1676TIP3    H226444   2.566   6.616  14.459  1.5831 -0.2212 -1.1136
 1677TIP3   OH226445   3.549   4.399  11.383  0.3711  0.2571 -0.1551
 1677TIP3    H126446   3.491   4.326  11.362  0.0732 -0.0345  1.6537
 1677TIP3    H226447   3.516   4.472  11.331 -0.2363 -0.4938 -0.8356
 1678TIP3   OH226448   0.639   1.692  14.808 -0.2461 -0.1844 -0.5323
 1678TIP3    H126449   0.642   1.596  14.808 -0.3416 -0.2064  1.0411
 1678TIP3    H226450   0.730   1.719  14.822 -0.3963 -0.0735  0.2595
 1679TIP3   OH226451   2.404   0.045   5.940 -0.2459  0.3330  0.6862
 1679TIP3    H126452   2.469   0.105   5.904 -0.5887  0.8589  0.9364
 1679TIP3    H226453   2.442  -0.042   5.926  0.0713  0.5834 -0.0347
 1680TIP3   OH226454   0.800   6.067  11.421  0.1747  0.2292  0.7263
 1680TIP3    H126455   0.873   6.047  11.362 -2.1065 -2.3789 -1.3541
 1680TIP3    H226456   0.748   6.131  11.373  0.4579  1.1826  1.6869
 1681TIP3   OH226457   3.645   6.501   3.966  0.2901  0.5743  0.3471
 1681TIP3    H126458   3.729   6.540   3.988 -0.0845  0.6533  1.7475
 1681TIP3    H226459   3.608   6.476   4.051 -1.9828  2.3529 -0.0622
 1682TIP3   OH226460   0.903   1.909  16.072 -0.1675 -0.2523  0.2219
 1682TIP3    H126461   0.933   1.898  16.162 -0.2230 -0.3053  0.2331
 1682TIP3    H226462   0.951   1.986  16.040 -2.1432  1.4130  1.1716
 1683TIP3   OH226463   2.061   4.773   4.048 -0.3221 -0.3285  0.1247
 1683TIP3    H126464   1.974   4.734   4.054  0.4601 -2.2921 -1.1248
 1683TIP3    H226465   2.081   4.775   3.955  1.2630 -0.5503  0.4428
 1684TIP3   OH226466   5.857   1.279  17.238  0.0017  0.1986  0.6625
 1684TIP3    H126467   5.874   1.255  17.329  0.4290  1.8756  1.0476
 1684TIP3    H226468   5.776   1.329  17.241 -0.5437 -0.6418 -0.0297
 1685TIP3   OH226469   1.063   3.224   1.848 -0.0583  0.3779 -0.4803
 1685TIP3    H126470   1.153   3.191   1.854 -0.1315  0.2775  0.0765
 1685TIP3    H226471   1.071   3.318   1.858 -0.3547  0.0811  3.2624
 1686TIP3   OH226472   2.454   0.461   3.940 -0.5143 -0.4655  0.1253
 1686TIP3    H126473   2.547   0.463   3.962 -0.8260 -1.0523  1.5918
 1686TIP3    H226474   2.447   0.400   3.867  0.0502 -1.7760  1.1489
 1687TIP3   OH226475   0.413   1.471   5.967 -0.0982 -0.5870 -0.8797
 1687TIP3    H126476   0.398   1.562   5.940  0.6813 -0.1720  0.0829
 1687TIP3    H226477   0.325   1.438   5.985 -0.3913 -0.0414 -1.2732
 1688TIP3   OH226478   6.479   1.055   4.952  0.1384  0.0509  0.1535
 1688TIP3    H126479   6.535   0.983   4.922  1.0712 -0.1341  2.2658
 1688TIP3    H226480   6.486   1.052   5.048 -0.9756  2.0367  0.3101
 1689TIP3   OH226481   6.503   5.868  10.996 -0.0153  0.3187 -0.2403
 1689TIP3    H126482   6.532   5.913  11.076  0.9896 -1.5836  0.5029
 1689TIP3    H226483   6.461   5.788  11.027 -0.9326  0.2729 -1.5716
 1690TIP3   OH226484   3.561   3.796   2.904  0.2725 -0.1967  0.1306
 1690TIP3    H126485   3.557   3.704   2.929  0.1303 -0.1489  0.2857
 1690TIP3    H226486   3.618   3.836   2.969 -0.8253  0.1039  0.9246
 1691TIP3   OH226487   5.700   5.975  14.340  0.4306 -0.0993 -0.1046
 1691TIP3    H126488   5.730   5.901  14.288 -1.1902  0.7205 -2.2772
 1691TIP3    H226489   5.604   5.973  14.333  0.3223  1.7495  0.4301
 1692TIP3   OH226490   6.106   3.387  14.719  0.4181  0.3145  0.2119
 1692TIP3    H126491   6.047   3.423  14.652 -2.6712 -0.6061  2.3659
 1692TIP3    H226492   6.146   3.464  14.759 -2.3646  1.2328  1.3865
 1693TIP3   OH226493   6.242   5.470   4.261 -0.1065  1.0042 -0.3937
 1693TIP3    H126494   6.147   5.477   4.260 -0.3006 -1.0642  0.2155
 1693TIP3    H226495   6.262   5.404   4.195  0.7855  0.3810  0.4732
 1694TIP3   OH226496   1.880   5.771  11.680  0.4043 -0.3757 -0.0072
 1694TIP3    H126497   1.917   5.730  11.602 -1.3927  0.1499 -1.1701
 1694TIP3    H226498   1.865   5.698  11.740  2.8652 -0.6443  0.3238
 1695TIP3   OH226499   4.092   0.026   4.291  0.1489 -0.3862 -0.5405
 1695TIP3    H126500   4.153   0.069   4.351  0.5617 -0.7983 -0.6556
 1695TIP3    H226501   4.112   0.064   4.205 -0.0927 -0.1645 -0.4970
 1696TIP3   OH226502   6.004   2.394   6.389 -0.2400  0.4709  0.4672
 1696TIP3    H126503   5.994   2.489   6.394  0.4338  0.5273  0.8220
 1696TIP3    H226504   6.062   2.372   6.462  1.1500  0.0233 -0.7592
 1697TIP3   OH226505   5.567   6.455  13.896 -0.5207 -0.5678 -0.2658
 1697TIP3    H126506   5.511   6.394  13.848  0.0883 -1.8352  0.5893
 1697TIP3    H226507   5.532   6.455  13.985 -1.4866  1.5737 -0.6290
 1698TIP3   OH226508   6.367   6.730   6.348 -0.1726 -0.8492 -0.0164
 1698TIP3    H126509   6.395   6.737   6.439  1.2425  0.3424 -0.5085
 1698TIP3    H226510   6.379   6.638   6.326  0.6905 -0.9011  0.6457
 1699TIP3   OH226511   1.831   3.756   6.540 -0.1361  0.4367 -0.0808
 1699TIP3    H126512   1.739   3.742   6.564 -0.2229 -1.3950 -1.4551
 1699TIP3    H226513   1.874   3.673   6.558  1.4974  1.5883  1.5221
 1700TIP3   OH226514   5.501   3.361  15.197  0.0887  0.2896  0.4326
 1700TIP3    H126515   5.520   3.276  15.157 -0.2921  0.5121 -0.2287
 1700TIP3    H226516   5.583   3.387  15.238  0.8321  0.5955 -1.2019
 1701TIP3   OH226517   4.818   5.816  11.633 -0.1806  0.4185 -0.1858
 1701TIP3    H126518   4.756   5.824  11.706  0.4222  1.7842  0.1912
 1701TIP3    H226519   4.859   5.731  11.646 -1.0391  0.0684  0.3101
 1702TIP3   OH226520   2.031   4.015   4.065 -0.0621 -0.2234 -0.0115
 1702TIP3    H126521   2.042   4.107   4.090 -0.9146  0.3872 -1.7761
 1702TIP3    H226522   2.081   3.966   4.130 -1.8280  1.3053  2.5796
 1703TIP3   OH226523   5.347   5.342  10.678  0.0170  0.6498  0.2451
 1703TIP3    H126524   5.269   5.302  10.717  0.3435 -0.0286  0.2121
 1703TIP3    H226525   5.348   5.309  10.588  0.4542  0.5050  0.3055
 1704TIP3   OH226526   6.697   5.548  14.869 -1.3918  0.3055 -0.2531
 1704TIP3    H126527   6.677   5.464  14.910  0.6880 -0.8404 -1.5134
 1704TIP3    H226528   6.682   5.534  14.775 -0.8381  1.2940 -0.5001
 1705TIP3   OH226529   3.653   3.275  12.064 -0.5852  0.0234 -0.0521
 1705TIP3    H126530   3.695   3.348  12.109  0.8240 -2.5457  3.0199
 1705TIP3    H226531   3.625   3.311  11.980  0.6806  3.8717  1.0733
 1706TIP3   OH226532   2.037   4.452  13.319 -0.0243 -0.4169  0.0038
 1706TIP3    H126533   2.062   4.544  13.332 -0.6311 -0.2449 -0.0375
 1706TIP3    H226534   2.007   4.448  13.229 -1.1889 -0.3830  0.3827
 1707TIP3   OH226535   4.850   5.112  12.924  0.4609  0.0614  0.1217
 1707TIP3    H126536   4.786   5.109  12.852  0.9966  0.5582 -0.3893
 1707TIP3    H226537   4.933   5.085  12.884  1.1328  2.0054  0.1154
 1708TIP3   OH226538   3.569   1.700  15.033  0.1659 -0.8373  0.5811
 1708TIP3    H126539   3.477   1.679  15.051 -0.3029  0.6374 -0.0258
 1708TIP3    H226540   3.610   1.703  15.119 -0.5367 -0.6723  0.9116
 1709TIP3   OH226541   4.897   6.512   1.656  0.6640  0.0261  0.2279
 1709TIP3    H126542   4.973   6.480   1.608  2.2026  2.3930  1.0227
 1709TIP3    H226543   4.826   6.512   1.592  0.6229 -4.6612  0.1395
 1710TIP3   OH226544   2.279   0.096   0.844  0.0466  0.3503  0.2298
 1710TIP3    H126545   2.239   0.010   0.857  1.2215 -0.2267  0.1388
 1710TIP3    H226546   2.208   0.158   0.857 -0.5396 -0.5837  1.5522
 1711TIP3   OH226547   2.788   1.434   2.822 -0.1983 -0.1998  0.4398
 1711TIP3    H126548   2.825   1.346   2.823 -0.2993 -0.2668 -0.5523
 1711TIP3    H226549   2.695   1.421   2.840 -0.2924 -0.3498 -0.1227
 1712TIP3   OH226550   6.432   5.559  16.156 -0.1582 -0.4796  0.7187
 1712TIP3    H126551   6.408   5.493  16.222  0.5970 -0.1378  1.3473
 1712TIP3    H226552   6.479   5.626  16.206 -1.5103  0.8774  0.2118
 1713TIP3   OH226553   0.158   2.012   5.437 -0.5277 -0.2166 -0.0058
 1713TIP3    H126554   0.200   1.965   5.509  1.0012 -0.4787 -1.0299
 1713TIP3    H226555   0.219   2.001   5.363 -2.6818 -1.0854 -1.6998
 1714TIP3   OH226556   5.267   2.733   5.221  0.4467 -0.3984 -0.3149
 1714TIP3    H126557   5.331   2.688   5.277  0.4858 -0.9261 -0.7847
 1714TIP3    H226558   5.187   2.734   5.273  0.7273 -0.1016  0.1107
 1715TIP3   OH226559   4.308   6.003   3.109  0.4348  0.0136  0.3131
 1715TIP3    H126560   4.295   5.958   3.025  0.7696  0.8606 -0.1963
 1715TIP3    H226561   4.280   5.939   3.175  1.7265 -1.2690 -0.3511
 1716TIP3   OH226562   2.222   5.314   2.052 -0.5624 -0.1212 -0.1852
 1716TIP3    H126563   2.197   5.405   2.038 -0.5536 -0.1479 -0.3697
 1716TIP3    H226564   2.177   5.289   2.133 -0.3733  0.1190 -0.0065
 1717TIP3   OH226565   0.286   1.880  12.011 -0.4395  0.1824  0.9001
 1717TIP3    H126566   0.233   1.959  12.000  0.7217  0.5211 -2.8513
 1717TIP3    H226567   0.373   1.913  12.034  0.2415  0.0817 -1.4376
 1718TIP3   OH226568   2.769   0.435   4.047 -0.7521 -0.5713  0.0223
 1718TIP3    H126569   2.815   0.520   4.051 -0.3989 -0.7588 -0.0163
 1718TIP3    H226570   2.794   0.400   3.961 -0.1632 -1.1273  0.4167
 1719TIP3   OH226571   1.269   3.108  14.227  0.0014  0.3726 -0.0670
 1719TIP3    H126572   1.300   3.141  14.311 -1.4773  0.0506  0.6117
 1719TIP3    H226573   1.277   3.013  14.233 -0.2108  0.3415 -0.2547
 1720TIP3   OH226574   2.241   5.811  12.244 -0.1112  0.7891 -0.1732
 1720TIP3    H126575   2.284   5.782  12.324 -1.1157 -0.1195  0.0403
 1720TIP3    H226576   2.299   5.879  12.209  1.8051 -0.8209 -0.2180
 1721TIP3   OH226577   4.952   2.518   4.821 -0.1649  0.0060 -0.2812
 1721TIP3    H126578   4.945   2.425   4.841  2.5276 -0.4309 -1.2758
 1721TIP3    H226579   4.985   2.557   4.902  0.1095 -0.1257 -0.3278
 1722TIP3   OH226580   0.033   1.841  14.091 -0.0717 -0.6009 -0.6302
 1722TIP3    H126581   0.112   1.896  14.093 -0.8129  0.4569 -0.0860
 1722TIP3    H226582   0.026   1.806  14.180 -0.5097 -0.2769 -0.5380
 1723TIP3   OH226583   4.098   0.887  16.861 -0.2294  0.3871  0.4465
 1723TIP3    H126584   4.075   0.816  16.921 -0.0098  0.6457  0.8448
 1723TIP3    H226585   4.037   0.957  16.884  0.3031  0.7305  0.8443
 1724TIP3   OH226586   5.829   0.431  13.671 -0.1346  0.2685  0.2222
 1724TIP3    H126587   5.791   0.483  13.741 -1.3868 -0.4739  0.1082
 1724TIP3    H226588   5.832   0.342  13.705  2.2887  0.4393  0.5302
 1725TIP3   OH226589   2.025   2.249  16.999 -0.2396 -0.4261 -0.3662
 1725TIP3    H126590   1.982   2.315  16.943  0.3356 -1.0126 -1.5102
 1725TIP3    H226591   1.955   2.188  17.022 -0.3299 -0.5899 -1.0591
 1726TIP3   OH226592   4.204   3.701  16.202  0.2219  0.1587  0.1067
 1726TIP3    H126593   4.177   3.793  16.202 -3.2911 -0.7990  0.3031
 1726TIP3    H226594   4.299   3.704  16.203  0.1999  3.8067 -1.0922
 1727TIP3   OH226595   6.727   1.863   3.465  0.4442  0.3588  0.0219
 1727TIP3    H126596   6.658   1.928   3.454 -1.6786 -1.6789  0.9298
 1727TIP3    H226597   6.727   1.814   3.383 -0.0855 -0.4745  0.5141
 1728TIP3   OH226598   5.430   2.262  11.784  0.1190  0.0515 -0.1903
 1728TIP3    H126599   5.377   2.308  11.719  0.4581 -0.8373 -1.1134
 1728TIP3    H226600   5.520   2.290  11.767  0.0777  0.7238  0.6698
 1729TIP3   OH226601   4.761   2.587  11.836  0.1054 -0.8359  0.5634
 1729TIP3    H126602   4.710   2.529  11.892 -0.5295  1.0791  2.0301
 1729TIP3    H226603   4.696   2.648  11.800  1.2839  1.4577  2.2403
 1730TIP3   OH226604   3.896   3.628  12.075 -0.0690  0.2707  0.0733
 1730TIP3    H126605   3.877   3.695  12.010  1.2426 -0.2895 -0.9008
 1730TIP3    H226606   3.992   3.623  12.077 -0.1662 -1.7195  0.0020
 1731TIP3   OH226607   4.163   1.273   3.316 -0.5085  0.2948 -0.3915
 1731TIP3    H126608   4.143   1.366   3.327 -0.4985  0.2970 -0.3925
 1731TIP3    H226609   4.079   1.229   3.325 -0.7887  0.4582 -2.1224
 1732TIP3   OH226610   2.744   5.361   4.498  0.4268 -0.7409  0.0749
 1732TIP3    H126611   2.785   5.275   4.494  0.0403 -0.8782 -1.3159
 1732TIP3    H226612   2.678   5.352   4.567 -0.1577 -1.8242 -0.5907
 1733TIP3   OH226613   0.940   0.766   3.786 -0.3408 -0.7471  0.5339
 1733TIP3    H126614   0.918   0.682   3.826  2.3030 -1.8567 -0.2453
 1733TIP3    H226615   0.970   0.820   3.859 -0.0899 -1.1718  0.7467
 1734TIP3   OH226616   5.105   6.149  14.454  0.1048 -0.0405  0.3870
 1734TIP3    H126617   5.049   6.163  14.377  0.7381  0.5015  0.0223
 1734TIP3    H226618   5.057   6.085  14.507  0.1828 -1.2502 -0.9904
 1735TIP3   OH226619   4.593   5.289   1.602 -0.0784  0.2466 -0.3356
 1735TIP3    H126620   4.600   5.195   1.587  2.1213  0.3843 -0.3017
 1735TIP3    H226621   4.677   5.314   1.640 -1.0673  2.0313  0.7596
 1736TIP3   OH226622   5.519   5.884  14.617  0.1381 -0.7507  0.2262
 1736TIP3    H126623   5.482   5.929  14.541  0.3126 -2.7097 -1.0443
 1736TIP3    H226624   5.450   5.888  14.683  1.2581  4.1086  1.2935
 1737TIP3   OH226625   6.780   6.357  17.100 -0.0738  0.0629 -0.4079
 1737TIP3    H126626   6.781   6.448  17.130  2.0103  0.4666 -1.6393
 1737TIP3    H226627   6.768   6.306  17.179 -0.4368  1.3606  0.3963
 1738TIP3   OH226628   3.872   1.030  16.871  0.6797 -0.6692 -0.2252
 1738TIP3    H126629   3.894   1.084  16.946  1.7209  1.3748 -1.9500
 1738TIP3    H226630   3.783   0.998  16.889  0.8191 -0.0082  1.7190
 1739TIP3   OH226631   0.787   5.870  12.270 -0.1751 -0.5597 -0.0804
 1739TIP3    H126632   0.699   5.889  12.239  0.0021  0.6923  0.1444
 1739TIP3    H226633   0.840   5.867  12.191 -0.1842  0.0364 -0.1096
 1740TIP3   OH226634   4.894   3.515   0.315 -0.0448 -0.0565  0.3733
 1740TIP3    H126635   4.824   3.563   0.271 -1.4633 -0.9078  1.6644
 1740TIP3    H226636   4.954   3.583   0.346 -0.2709  0.6776 -0.7549
 1741TIP3   OH226637   1.401   1.449  13.710  0.0010 -0.4770 -0.7485
 1741TIP3    H126638   1.385   1.504  13.633  1.1741 -0.6428 -1.1170
 1741TIP3    H226639   1.494   1.461  13.729  0.2938 -2.4284 -0.8897
 1742TIP3   OH226640   0.621   3.755  14.394 -0.1005 -0.3621  0.1880
 1742TIP3    H126641   0.528   3.744  14.412 -0.2995 -1.2958 -1.3030
 1742TIP3    H226642   0.651   3.819  14.459 -2.2303  1.6123 -0.6981
 1743TIP3   OH226643   0.208   4.064  16.351 -0.4208  0.3415  0.8396
 1743TIP3    H126644   0.273   3.993  16.351 -0.2391  0.5001 -0.4112
 1743TIP3    H226645   0.137   4.031  16.407  0.8213  0.2572  2.4104
 1744TIP3   OH226646   1.150   2.526  11.580  0.7887  0.4098  0.7848
 1744TIP3    H126647   1.156   2.574  11.663  0.0124  0.4104  0.8470
 1744TIP3    H226648   1.233   2.480  11.573  1.4717  1.6122  0.8165
 1745TIP3   OH226649   1.657   0.572  16.076 -0.6467  0.6263 -0.3700
 1745TIP3    H126650   1.738   0.565  16.126 -0.5929 -1.9167 -0.7769
 1745TIP3    H226651   1.664   0.656  16.031  1.3220  0.8636  0.3526
 1746TIP3   OH226652   3.526   5.598   1.853 -0.0874 -0.3196 -0.1241
 1746TIP3    H126653   3.595   5.663   1.836 -0.2263 -0.6534 -2.0964
 1746TIP3    H226654   3.532   5.581   1.947  1.9678  0.2914 -0.1099
 1747TIP3   OH226655   2.456   0.820   3.854  0.6408  0.6385 -0.1010
 1747TIP3    H126656   2.394   0.845   3.922 -0.2182 -0.2272 -0.5561
 1747TIP3    H226657   2.506   0.748   3.891  1.5640  1.5189  0.3673
 1748TIP3   OH226658   1.891   1.931  12.053  0.0415  0.2676 -0.1752
 1748TIP3    H126659   1.899   1.994  12.125  1.2298 -0.7722  0.5988
 1748TIP3    H226660   1.822   1.968  11.998 -1.8507  0.3803  2.1962
 1749TIP3   OH226661   4.569   6.207  13.171  0.2767 -0.7582 -0.1712
 1749TIP3    H126662   4.473   6.207  13.167  0.2915 -1.0699 -0.5318
 1749TIP3    H226663   4.597   6.207  13.080  0.6375  1.1811 -0.0720
 1750TIP3   OH226664   0.083   6.108  14.100 -0.2470 -0.3040  0.3756
 1750TIP3    H126665   0.105   6.045  14.032 -1.7227 -1.2110  0.7063
 1750TIP3    H226666   0.022   6.169  14.057  0.3279  0.2545  0.3535
 1751TIP3   OH226667   0.201   4.677  11.924  0.0249  0.8789  0.5766
 1751TIP3    H126668   0.251   4.722  11.992 -0.8035  1.8989  0.5222
 1751TIP3    H226669   0.206   4.735  11.848 -1.7039  1.2544  0.7424
 1752TIP3   OH226670   3.128   6.729   3.812  0.0978 -0.1784 -0.1761
 1752TIP3    H126671   3.148   6.821   3.795  0.6271 -0.3944 -0.7499
 1752TIP3    H226672   3.075   6.703   3.737 -0.5521 -0.1859  0.2807
 1753TIP3   OH226673   2.401   1.353  12.337 -0.6065 -0.2527 -0.4635
 1753TIP3    H126674   2.435   1.430  12.383  1.0193 -1.2953  0.1188
 1753TIP3    H226675   2.332   1.319  12.394 -0.1507 -0.2118  0.1135
 1754TIP3   OH226676   0.025   5.774   4.335  0.7889  0.9405  0.1717
 1754TIP3    H126677  -0.067   5.795   4.347  0.5911 -0.1024  0.4923
 1754TIP3    H226678   0.058   5.844   4.277 -0.6397  0.2748 -1.5044
 1755TIP3   OH226679   3.844   1.535   3.767  0.1845 -0.4027  0.6874
 1755TIP3    H126680   3.883   1.612   3.726 -0.2391 -0.6881 -0.2549
 1755TIP3    H226681   3.919   1.480   3.791  0.3987 -0.5841 -0.3968
 1756TIP3   OH226682   0.031   6.569   1.713  0.3209  0.6391  0.3670
 1756TIP3    H126683   0.032   6.644   1.655 -0.1375 -0.3851 -0.9872
 1756TIP3    H226684   0.061   6.496   1.659 -1.8260 -0.6876  0.8950
 1757TIP3   OH226685   5.729   1.584  14.102 -0.1363 -0.0611  0.3435
 1757TIP3    H126686   5.677   1.505  14.086 -1.5597  0.6829  1.2293
 1757TIP3    H226687   5.684   1.628  14.174  1.0711  1.1861  0.3498
 1758TIP3   OH226688   1.923   6.590  13.177  0.2111 -0.2459  0.0502
 1758TIP3    H126689   1.833   6.605  13.206  0.3066  0.4955 -0.0218
 1758TIP3    H226690   1.915   6.530  13.102 -0.1879 -0.5207  0.3146
 1759TIP3   OH226691   4.548   1.774   1.887 -0.0985  0.3959  0.5047
 1759TIP3    H126692   4.628   1.806   1.928  0.3142 -0.6719  0.5612
 1759TIP3    H226693   4.578   1.725   1.811 -0.6232 -0.9115  1.1205
 1760TIP3   OH226694   6.714   0.544   5.612  0.2335 -0.1309  0.4598
 1760TIP3    H126695   6.783   0.608   5.592 -0.8548  0.7009 -0.6863
 1760TIP3    H226696   6.646   0.594   5.656 -0.4554 -0.5818 -0.0907
 1761TIP3   OH226697   5.517   4.117   3.953  0.2277  0.4388 -0.1690
 1761TIP3    H126698   5.447   4.172   3.918  0.5651  0.5981 -0.6039
 1761TIP3    H226699   5.579   4.107   3.880  1.8536  2.2759  0.9069
 1762TIP3   OH226700   5.907   2.944   2.519 -0.1833  0.1875 -0.3031
 1762TIP3    H126701   5.947   3.014   2.467 -0.9600  1.1614  0.3728
 1762TIP3    H226702   5.931   2.863   2.474  1.2621  0.8536 -0.7428
 1763TIP3   OH226703   4.145   0.448  12.566 -0.1886  0.4913  0.0562
 1763TIP3    H126704   4.049   0.450  12.570 -0.2528 -1.4151 -0.1779
 1763TIP3    H226705   4.166   0.360  12.534  1.6829  0.5113  1.1700
 1764TIP3   OH226706   1.312   4.532  11.488 -0.8943  0.3724  0.3302
 1764TIP3    H126707   1.385   4.593  11.484 -2.1012  1.7786 -0.9072
 1764TIP3    H226708   1.352   4.447  11.505  0.8264  1.4614  1.9199
 1765TIP3   OH226709   0.539   5.119   5.689  0.4693 -0.5147  0.0582
 1765TIP3    H126710   0.485   5.053   5.645  1.1130 -1.8203  1.1756
 1765TIP3    H226711   0.611   5.069   5.727  1.5032  0.9779  0.0909
 1766TIP3   OH226712   4.812   4.311   2.980  0.1033 -0.2009 -0.1256
 1766TIP3    H126713   4.742   4.277   3.036  1.4062  1.2321  2.4441
 1766TIP3    H226714   4.794   4.405   2.975 -0.3523 -0.3983 -2.6776
 1767TIP3   OH226715   2.042   6.000  13.111  0.2005 -0.8342 -0.1408
 1767TIP3    H126716   2.059   6.063  13.181  1.2021 -0.3209 -0.8190
 1767TIP3    H226717   2.084   6.039  13.034 -0.8483 -1.4106 -1.0138
 1768TIP3   OH226718   4.753   0.918  10.972  0.5367 -0.5640  0.7748
 1768TIP3    H126719   4.829   0.963  11.008  0.8358 -0.4476 -0.0081
 1768TIP3    H226720   4.685   0.986  10.968  1.0000 -0.1717 -0.4440
 1769TIP3   OH226721   6.252   3.256   5.415 -0.6635  0.0762 -0.0485
 1769TIP3    H126722   6.164   3.237   5.384 -2.0200  0.6080  3.2051
 1769TIP3    H226723   6.266   3.348   5.392 -0.1454 -0.5484 -2.3141
 1770TIP3   OH226724   3.598   3.322  16.199 -0.6576  0.0584 -0.0285
 1770TIP3    H126725   3.620   3.414  16.214 -0.6329  0.3387 -1.7655
 1770TIP3    H226726   3.667   3.290  16.141 -0.0873 -1.3565  1.3649
 1771TIP3   OH226727   0.493   4.766   5.276  0.2744 -0.1418  0.4341
 1771TIP3    H126728   0.538   4.834   5.325  0.1349 -0.6002  1.2131
 1771TIP3    H226729   0.428   4.732   5.338  0.1724 -0.8005 -0.0368
 1772TIP3   OH226730   6.757   0.907  17.019  0.0963 -0.4570  0.1049
 1772TIP3    H126731   6.845   0.873  17.002 -0.1599 -0.3175 -1.5804
 1772TIP3    H226732   6.739   0.964  16.944 -1.3067 -0.2326  0.6043
 1773TIP3   OH226733   0.853   3.371  10.618  0.6153 -0.1264  0.3423
 1773TIP3    H126734   0.757   3.378  10.620  0.4369 -2.4156  1.0233
 1773TIP3    H226735   0.884   3.446  10.668 -0.8849 -0.2893  1.5529
 1774TIP3   OH226736   2.359   3.060   0.984  0.0499 -0.4792 -0.3248
 1774TIP3    H126737   2.426   3.111   1.031 -1.9720  2.7575 -0.8070
 1774TIP3    H226738   2.289   3.049   1.049 -1.1732  0.7788 -1.4136
 1775TIP3   OH226739   3.284   5.268  16.701  0.1958  0.1516 -0.2951
 1775TIP3    H126740   3.342   5.193  16.688  1.5446  1.2186 -0.4283
 1775TIP3    H226741   3.255   5.260  16.792 -0.1113 -0.8283 -0.4673
 1776TIP3   OH226742   2.644   4.146  15.220 -0.1748  0.5817 -0.2338
 1776TIP3    H126743   2.708   4.101  15.275 -0.7313  0.1388  0.0584
 1776TIP3    H226744   2.637   4.233  15.260  0.3608  0.6860 -0.3627
 1777TIP3   OH226745   2.328   5.322   0.772 -0.6272 -0.2197 -0.5226
 1777TIP3    H126746   2.243   5.281   0.754 -0.7000  0.2816 -1.3818
 1777TIP3    H226747   2.382   5.296   0.697  0.2427 -1.2487  0.4515
 1778TIP3   OH226748   5.900   4.567   5.397  0.1769  0.3348  0.2833
 1778TIP3    H126749   5.832   4.627   5.368 -0.0834 -0.4317 -0.6933
 1778TIP3    H226750   5.978   4.623   5.407 -0.3368  1.0307  0.4504
 1779TIP3   OH226751   0.618   2.920   0.637  0.7398 -0.4176 -0.0553
 1779TIP3    H126752   0.599   2.854   0.571 -0.9951  0.6692 -0.6856
 1779TIP3    H226753   0.584   2.882   0.719  1.4879 -1.1089 -0.0623
 1780TIP3   OH226754   5.249   2.356   6.277 -0.1161  0.1242 -0.2242
 1780TIP3    H126755   5.291   2.270   6.279 -0.7216 -0.1843 -0.7322
 1780TIP3    H226756   5.314   2.414   6.238  1.5459  0.5881  3.0171
 1781TIP3   OH226757   0.619   2.002   4.357 -0.0100 -0.0534 -0.2849
 1781TIP3    H126758   0.621   1.906   4.351 -1.5532 -0.1529  0.5544
 1781TIP3    H226759   0.644   2.021   4.447 -1.3600  0.2285  0.0530
 1782TIP3   OH226760   1.673   1.512  13.715  0.2639  0.4844  0.0552
 1782TIP3    H126761   1.739   1.443  13.722 -0.4524 -0.1299  0.9713
 1782TIP3    H226762   1.674   1.554  13.801 -2.0100 -0.9273  0.8297
 1783TIP3   OH226763   2.499   2.831   0.856  0.2064  0.4420 -0.7464
 1783TIP3    H126764   2.421   2.886   0.866  0.2599  0.0967  1.7081
 1783TIP3    H226765   2.533   2.820   0.945 -0.2242 -4.1754 -1.0333
 1784TIP3   OH226766   5.219   1.916   0.087 -0.1812 -0.4023  0.1125
 1784TIP3    H126767   5.214   1.989   0.025  0.7429  2.0126  2.7160
 1784TIP3    H226768   5.226   1.838   0.033 -1.7883  1.3990 -2.8008
 1785TIP3   OH226769   4.255   2.741   2.986 -0.0644 -0.7587 -0.2676
 1785TIP3    H126770   4.195   2.815   2.997 -1.1453 -1.2592 -2.5023
 1785TIP3    H226771   4.207   2.665   3.020 -0.2050 -0.9428 -0.8664
 1786TIP3   OH226772   5.454   4.773   4.734  0.0680  0.2572 -0.5675
 1786TIP3    H126773   5.504   4.807   4.660  0.0763 -0.3389 -0.8403
 1786TIP3    H226774   5.363   4.771   4.702  0.3309 -1.9262 -1.2964
 1787TIP3   OH226775   0.884   5.434   2.486 -0.2965  0.1405 -0.2056
 1787TIP3    H126776   0.865   5.380   2.563 -0.8326 -0.1435 -0.5346
 1787TIP3    H226777   0.944   5.501   2.518 -1.5706  0.8478  0.7910
 1788TIP3   OH226778   6.620   6.395   4.896 -0.1537 -0.4125  0.4187
 1788TIP3    H126779   6.630   6.490   4.884  0.9850 -0.4361  1.1103
 1788TIP3    H226780   6.647   6.358   4.812 -3.2704 -0.0096 -0.8285
 1789TIP3   OH226781   2.686   4.148  14.822  0.0102 -0.1061 -0.2227
 1789TIP3    H126782   2.633   4.103  14.757 -0.3118  0.4657 -0.3630
 1789TIP3    H226783   2.776   4.142  14.789 -0.1423  0.1110 -0.6761
 1790TIP3   OH226784   0.092   5.796  16.353  0.2162 -0.4238  0.2819
 1790TIP3    H126785   0.110   5.886  16.381  0.1624 -0.3137 -0.0406
 1790TIP3    H226786   0.178   5.755  16.351  0.4066  0.0270 -1.0020
 1791TIP3   OH226787   1.610   5.557  15.702 -0.1959 -0.6100 -0.3726
 1791TIP3    H126788   1.701   5.533  15.685 -0.3876 -1.6151 -0.0009
 1791TIP3    H226789   1.615   5.624  15.770  0.4479  1.8483 -2.7507
 1792TIP3   OH226790   2.521   0.899  11.302  0.1793 -0.0243  0.6777
 1792TIP3    H126791   2.579   0.881  11.376 -1.3672 -1.4248  1.5974
 1792TIP3    H226792   2.468   0.819  11.294  0.7562 -0.1524 -2.3702
 1793TIP3   OH226793   2.976   4.240  15.918  0.5817 -0.4263  0.1219
 1793TIP3    H126794   3.035   4.245  15.993  0.9660  0.2515 -0.2273
 1793TIP3    H226795   2.990   4.321  15.870  0.5125 -0.9705 -0.8235
 1794TIP3   OH226796   3.492   0.182   3.014  1.1110 -0.0458 -0.0209
 1794TIP3    H126797   3.506   0.200   3.107  0.9716 -1.1223  0.2213
 1794TIP3    H226798   3.477   0.087   3.011 -1.2220  0.3257 -0.8628
 1795TIP3   OH226799   2.222   0.378  17.057 -0.7165  0.2561  0.0584
 1795TIP3    H126800   2.223   0.472  17.075  0.2570  0.3324 -0.3626
 1795TIP3    H226801   2.282   0.367  16.984 -0.0110 -0.8290  0.7781
 1796TIP3   OH226802   1.655   0.055  12.806  0.3297  0.1292  0.1592
 1796TIP3    H126803   1.633   0.135  12.758  1.1063 -0.0544 -0.5157
 1796TIP3    H226804   1.730   0.080  12.861  0.8244 -0.2277 -0.3437
 1797TIP3   OH226805   2.459   5.178  12.192 -0.4605 -0.4250  0.0824
 1797TIP3    H126806   2.395   5.125  12.145 -2.3281  0.6025  1.3988
 1797TIP3    H226807   2.410   5.256  12.219  2.1828  1.9740 -1.7872
 1798TIP3   OH226808   5.091   5.860   5.695 -0.3430  0.3763 -0.0542
 1798TIP3    H126809   5.117   5.916   5.622  0.7152  0.7500  0.6065
 1798TIP3    H226810   5.163   5.866   5.757 -0.9637 -0.4261  0.7558
 1799TIP3   OH226811   5.066   2.583   6.081  0.4548 -0.4306  0.0904
 1799TIP3    H126812   5.116   2.510   6.045  0.3305 -0.3130 -0.3263
 1799TIP3    H226813   5.062   2.566   6.175  0.3416 -1.0094 -0.0202
 1800TIP3   OH226814   3.050   5.337  15.371  0.2757  0.1332 -0.2535
 1800TIP3    H126815   3.093   5.288  15.442 -0.0669  0.5339  0.2318
 1800TIP3    H226816   3.007   5.269  15.319  1.4939 -0.2735 -0.7419
 1801TIP3   OH226817   1.746   2.373  10.451  0.0951 -0.5825 -0.5335
 1801TIP3    H126818   1.836   2.357  10.479  0.4576 -0.0135 -1.3451
 1801TIP3    H226819   1.712   2.437  10.512  0.5146 -0.1786 -0.7232
 1802TIP3   OH226820   5.847   6.329   4.082  0.2386 -0.1795 -0.2807
 1802TIP3    H126821   5.763   6.358   4.117  0.0381 -1.8399  0.7064
 1802TIP3    H226822   5.865   6.247   4.129  2.6736  0.4410 -0.0643
 1803TIP3   OH226823   5.579   0.054  13.019 -0.0445  0.6995 -0.3019
 1803TIP3    H126824   5.531   0.132  13.047  0.3721  0.4967  1.0528
 1803TIP3    H226825   5.657   0.053  13.075  0.4001 -0.2023 -0.9210
 1804TIP3   OH226826   1.995   0.903  15.924 -0.3559 -0.2497  0.2402
 1804TIP3    H126827   1.962   0.821  15.961 -0.8788  0.5596  1.5894
 1804TIP3    H226828   2.025   0.954  16.000 -0.6805  1.0933 -0.5121
 1805TIP3   OH226829   2.070   1.467   0.144  0.1283  0.2178  0.9218
 1805TIP3    H126830   2.036   1.487   0.231 -2.5502  0.0361 -0.0443
 1805TIP3    H226831   2.003   1.412   0.103  2.3717 -1.5918 -0.4548
 1806TIP3   OH226832   3.224   1.773  17.156 -0.3351 -0.2023  0.6457
 1806TIP3    H126833   3.258   1.775  17.067  1.3988 -1.5687  1.2240
 1806TIP3    H226834   3.133   1.745  17.148 -0.5577  0.9041 -0.7713
 1807TIP3   OH226835   1.196   2.963  13.662 -0.5131 -0.1200  0.4098
 1807TIP3    H126836   1.183   3.043  13.713 -1.7095 -0.1104  0.1124
 1807TIP3    H226837   1.110   2.944  13.626  0.1725 -0.5033 -1.0562
 1808TIP3   OH226838   2.544   4.297   3.144 -0.3309 -0.6054 -0.0558
 1808TIP3    H126839   2.618   4.357   3.157 -3.0519  2.6347  1.2000
 1808TIP3    H226840   2.548   4.239   3.220  1.8555 -1.5130 -0.8387
 1809TIP3   OH226841   4.734   2.847   1.940  0.1198 -0.0107 -0.0280
 1809TIP3    H126842   4.792   2.772   1.954 -0.2535 -0.1066  1.0675
 1809TIP3    H226843   4.738   2.896   2.022 -0.3489  0.6713 -0.4098
 1810TIP3   OH226844   3.678   0.678   0.495  0.1677  0.5910  0.1236
 1810TIP3    H126845   3.733   0.618   0.445 -0.3406  0.4088 -0.2256
 1810TIP3    H226846   3.692   0.654   0.586 -0.0524 -0.0779 -0.0146
 1811TIP3   OH226847   3.592   1.789   4.282  0.2394  0.0364 -0.2071
 1811TIP3    H126848   3.636   1.727   4.341  0.0285 -0.1544 -0.2505
 1811TIP3    H226849   3.654   1.861   4.274  0.1149  0.2325  0.5403
 1812TIP3   OH226850   6.023   0.310   2.004 -0.2832 -0.3786 -0.4345
 1812TIP3    H126851   5.984   0.385   2.048  1.5980 -0.6731  1.8457
 1812TIP3    H226852   6.113   0.307   2.036  1.1301 -0.7638 -4.1829
 1813TIP3   OH226853   1.544   1.364   4.499  0.1748 -0.0669 -0.1515
 1813TIP3    H126854   1.499   1.398   4.422 -1.3392 -0.4479  0.5460
 1813TIP3    H226855   1.514   1.420   4.571 -0.1407 -1.0928  0.5268
 1814TIP3   OH226856   1.868   3.440  15.884  0.4649 -0.6320  0.0473
 1814TIP3    H126857   1.946   3.425  15.831  0.6031  1.0524 -0.2461
 1814TIP3    H226858   1.797   3.451  15.820 -0.1739 -2.7906  0.3186
 1815TIP3   OH226859   3.958   6.016  14.718  0.1807 -0.0745  0.0574
 1815TIP3    H126860   4.048   5.992  14.696  0.5769  0.4183  1.1057
 1815TIP3    H226861   3.964   6.107  14.746 -0.5767 -0.1874  0.5921
 1816TIP3   OH226862   3.412   5.124  12.458  0.5780  0.5523 -0.2890
 1816TIP3    H126863   3.319   5.137  12.476  0.2554 -1.3902 -0.4565
 1816TIP3    H226864   3.417   5.112  12.364  0.6037 -2.2455  0.0357
 1817TIP3   OH226865   1.859   6.657  11.532  0.3340 -0.3918 -0.1137
 1817TIP3    H126866   1.779   6.664  11.481 -0.1157  0.7258  0.7301
 1817TIP3    H226867   1.889   6.567  11.517 -0.1388 -0.2865 -1.8082
 1818TIP3   OH226868   3.446   5.965   3.041  0.1684 -0.2903 -0.3798
 1818TIP3    H126869   3.470   6.054   3.065 -1.1590  0.1993 -0.7874
 1818TIP3    H226870   3.496   5.909   3.101 -0.8096  0.8016  1.4978
 1819TIP3   OH226871   2.078   0.064   3.304  0.2482 -0.6371  0.4112
 1819TIP3    H126872   2.105   0.043   3.394 -2.1566 -0.0276  1.3183
 1819TIP3    H226873   2.018  -0.006   3.280 -0.0660 -0.1512 -0.2488
 1820TIP3   OH226874   4.478   1.725  11.611 -0.5819  0.2684  0.2467
 1820TIP3    H126875   4.522   1.810  11.612  0.8075 -0.4477  1.1670
 1820TIP3    H226876   4.548   1.661  11.626 -1.5273 -1.0840 -0.9789
 1821TIP3   OH226877   5.509   4.640  15.350 -0.1874 -0.8365  0.2129
 1821TIP3    H126878   5.602   4.617  15.351  0.1235  0.4008  1.0404
 1821TIP3    H226879   5.468   4.578  15.410 -0.0920 -2.1082 -1.0124
 1822TIP3   OH226880   0.764   3.661  16.201  0.4419  0.3129  0.5319
 1822TIP3    H126881   0.717   3.612  16.134  0.6773 -0.6659  1.0655
 1822TIP3    H226882   0.705   3.733  16.224  0.5920  0.9597 -1.0817
 1823TIP3   OH226883   1.119   5.016  14.620  0.1720 -0.8070 -0.2754
 1823TIP3    H126884   1.101   4.926  14.645 -3.2157 -0.0087  0.4155
 1823TIP3    H226885   1.129   5.063  14.703 -1.5941  0.0868 -0.5482
 1824TIP3   OH226886   2.453   5.812  17.229 -0.1386  0.0382  0.0108
 1824TIP3    H126887   2.388   5.752  17.265 -1.4987  1.6787  0.3624
 1824TIP3    H226888   2.526   5.809  17.291 -1.1619  0.4699  1.2600
 1825TIP3   OH226889   6.191   1.623  16.611 -0.1870  0.4481  0.1789
 1825TIP3    H126890   6.209   1.565  16.685 -0.2036 -0.9845 -0.9228
 1825TIP3    H226891   6.097   1.637  16.612  0.0487  2.2193  1.7085
 1826TIP3   OH226892   0.929   2.298   6.249  0.6647 -0.2486  0.0432
 1826TIP3    H126893   0.939   2.326   6.158 -0.0932 -1.2780 -0.3633
 1826TIP3    H226894   0.903   2.206   6.243 -0.2047 -0.0940  1.2768
 1827TIP3   OH226895   5.116   6.616  15.002  0.4412  0.1491  0.3181
 1827TIP3    H126896   5.140   6.659  15.084  0.0435  0.7224  0.1430
 1827TIP3    H226897   5.046   6.671  14.966  1.3981  0.5550 -0.9653
 1828TIP3   OH226898   2.285   5.242   3.413  0.3646 -0.2836  0.1597
 1828TIP3    H126899   2.332   5.309   3.463  1.7761 -2.0682  1.2826
 1828TIP3    H226900   2.352   5.199   3.361 -0.6832 -0.2334 -1.2587
 1829TIP3   OH226901   2.728   6.525  14.592  0.4249  0.1433 -0.4594
 1829TIP3    H126902   2.638   6.495  14.579  0.8079 -2.1989  1.9549
 1829TIP3    H226903   2.774   6.449  14.627  2.7038  2.0843  0.8897
 1830TIP3   OH226904   6.610   3.870  16.783 -0.2888 -0.7242  0.0076
 1830TIP3    H126905   6.594   3.811  16.709  0.6302  0.2028 -0.9341
 1830TIP3    H226906   6.669   3.821  16.840 -0.8220 -1.3514  0.0383
 1831TIP3   OH226907   1.189   6.754   0.946  0.0379  0.7813 -0.0217
 1831TIP3    H126908   1.129   6.679   0.949  0.9996 -0.0851 -2.0699
 1831TIP3    H226909   1.238   6.748   1.028 -1.9196  0.8776  1.1780
 1832TIP3   OH226910   4.910   4.698   3.919 -0.0620  0.3509  0.1850
 1832TIP3    H126911   4.947   4.611   3.902  0.2554  0.1900  1.5772
 1832TIP3    H226912   4.836   4.681   3.978  0.0035  1.0322  0.4660
 1833TIP3   OH226913   5.998   6.360  12.913  0.1092  0.5011 -0.0199
 1833TIP3    H126914   6.010   6.451  12.939 -1.3275  0.7921 -0.3186
 1833TIP3    H226915   5.932   6.326  12.974 -0.1767 -0.0107 -0.6064
 1834TIP3   OH226916   0.658   4.696  15.518  0.1034  0.5512  0.0453
 1834TIP3    H126917   0.676   4.726  15.607  1.4932 -2.0385  0.6740
 1834TIP3    H226918   0.650   4.601  15.525 -2.5703  0.5337 -2.1585
 1835TIP3   OH226919   6.120   5.574   1.526  0.6431 -0.5154  0.8641
 1835TIP3    H126920   6.114   5.665   1.496  2.0220 -0.8222 -0.4071
 1835TIP3    H226921   6.034   5.555   1.563 -1.0661  0.0152 -2.6303
 1836TIP3   OH226922   3.745   6.627   5.859  0.1456  0.2141 -0.7671
 1836TIP3    H126923   3.734   6.659   5.948  1.1453  1.2832 -1.0210
 1836TIP3    H226924   3.684   6.678   5.807 -0.8110 -0.7706 -0.6186
 1837TIP3   OH226925   2.686   1.693   5.416  0.2120 -0.1192  0.0224
 1837TIP3    H126926   2.774   1.675   5.449  0.1582 -0.3972  0.0158
 1837TIP3    H226927   2.695   1.776   5.370  0.6519 -0.5515 -0.6740
 1838TIP3   OH226928   4.696   5.268  14.720  0.2795 -0.5190 -0.2756
 1838TIP3    H126929   4.687   5.362  14.738  1.6727 -0.5177  0.4793
 1838TIP3    H226930   4.702   5.263  14.625 -1.6457 -0.0261 -0.4536
 1839TIP3   OH226931   0.641   6.012  16.228 -0.2831  0.2398 -0.1454
 1839TIP3    H126932   0.726   6.056  16.222 -0.3612  0.4208  0.0803
 1839TIP3    H226933   0.636   5.960  16.147  0.1136  0.0937 -0.0772
 1840TIP3   OH226934   6.020   5.120  11.287 -0.4981 -0.2031  0.3202
 1840TIP3    H126935   6.077   5.089  11.217  0.2989  0.2849  0.7473
 1840TIP3    H226936   5.938   5.071  11.275 -1.1017  1.3553 -2.1522
 1841TIP3   OH226937   1.041   3.616  14.567 -0.3447 -0.3998  0.5659
 1841TIP3    H126938   1.109   3.631  14.632  0.3887 -0.2566 -0.2229
 1841TIP3    H226939   1.088   3.583  14.490 -1.2736 -1.2149  0.3373
 1842TIP3   OH226940   4.910   5.023  16.914  0.2694 -0.0980 -0.3722
 1842TIP3    H126941   4.832   4.973  16.894 -0.1380  0.6384 -0.6527
 1842TIP3    H226942   4.937   5.060  16.830  1.8453 -1.6486 -0.5737
 1843TIP3   OH226943   3.435   1.171   5.352 -0.5847  0.6530 -0.0748
 1843TIP3    H126944   3.448   1.077   5.341 -1.1177  0.4780  0.6564
 1843TIP3    H226945   3.370   1.178   5.423 -2.7438  1.4872 -2.0441
 1844TIP3   OH226946   6.733   1.297   0.530 -0.1775  0.8049 -0.1260
 1844TIP3    H126947   6.675   1.372   0.541 -4.0554 -2.0964  0.1260
 1844TIP3    H226948   6.734   1.282   0.435 -1.7346 -0.5609  0.0684
 1845TIP3   OH226949   3.540   3.807  11.916  0.0894 -0.4408  0.5483
 1845TIP3    H126950   3.615   3.805  11.857 -0.8488  0.4687 -0.7236
 1845TIP3    H226951   3.477   3.865  11.872 -0.2699  1.0067  2.8980
 1846TIP3   OH226952   2.913   6.687  15.068  0.0725 -0.1773  0.6665
 1846TIP3    H126953   2.840   6.656  15.122  0.6859 -0.0363  1.5938
 1846TIP3    H226954   2.976   6.615  15.069  0.3001  0.0195  0.5425
 1847TIP3   OH226955   1.785   6.094  16.432 -0.4439 -0.4643  0.1095
 1847TIP3    H126956   1.696   6.070  16.457 -0.0248 -1.1207  0.9988
 1847TIP3    H226957   1.808   6.165  16.492 -0.2500 -0.5228  0.1050
 1848TIP3   OH226958   0.076   4.646   4.785  0.1526  0.1941 -0.2960
 1848TIP3    H126959   0.084   4.710   4.715 -0.4353  0.3928 -0.1768
 1848TIP3    H226960   0.056   4.564   4.740  0.9728  0.0737 -0.4544
 1849TIP3   OH226961   5.547   0.355   1.688  0.2889  0.4757  0.2584
 1849TIP3    H126962   5.630   0.368   1.734  0.6258  1.1919 -0.5230
 1849TIP3    H226963   5.560   0.274   1.639 -0.7447 -1.2916  2.8504
 1850TIP3   OH226964   5.406   2.771  12.889  0.2791  0.4101 -0.2205
 1850TIP3    H126965   5.441   2.715  12.820 -1.1827  0.1602 -0.7770
 1850TIP3    H226966   5.483   2.810  12.931  1.1998 -0.1582 -1.3848
 1851TIP3   OH226967   3.195   6.781  11.662 -0.1983  0.0978  0.1572
 1851TIP3    H126968   3.155   6.859  11.699 -1.0661 -0.3185  0.0969
 1851TIP3    H226969   3.286   6.807  11.644 -0.4168  1.0136  0.3612
 1852TIP3   OH226970   2.275   6.011  12.522 -0.3558  0.8414  0.5174
 1852TIP3    H126971   2.323   5.933  12.551 -1.0382  0.9353  1.9845
 1852TIP3    H226972   2.192   5.976  12.488  0.0017  0.8130 -0.3313
 1853TIP3   OH226973   4.475   1.115  13.595  0.1133 -0.1199 -0.2283
 1853TIP3    H126974   4.562   1.112  13.556  0.2751  0.5674  0.0843
 1853TIP3    H226975   4.463   1.206  13.621 -1.0869 -0.0027 -1.1563
 1854TIP3   OH226976   5.861   0.574   4.143  0.0235 -0.2375  0.6665
 1854TIP3    H126977   5.947   0.557   4.105 -0.5993 -1.4354 -0.2133
 1854TIP3    H226978   5.809   0.609   4.071 -0.2284  0.5370  1.2112
 1855TIP3   OH226979   2.946   5.014   5.523  0.0594 -0.3270 -0.1445
 1855TIP3    H126980   2.903   5.091   5.485 -0.6435 -0.4633  0.3709
 1855TIP3    H226981   2.945   4.949   5.453  1.3894  0.3978 -0.8575
 1856TIP3   OH226982   3.243   6.395  15.868 -0.1790  0.2330 -0.2787
 1856TIP3    H126983   3.178   6.340  15.824 -1.0902  0.8957  0.2252
 1856TIP3    H226984   3.324   6.346  15.860 -0.5668 -0.2111 -1.6542
 1857TIP3   OH226985   3.433   6.748  14.910  0.3719  0.1946 -0.1075
 1857TIP3    H126986   3.360   6.716  14.855  0.7403  0.9343 -1.0367
 1857TIP3    H226987   3.397   6.747  14.999 -0.1355 -1.3184 -0.2988
 1858TIP3   OH226988   3.312   1.716  15.799  0.5700 -0.3550  0.3585
 1858TIP3    H126989   3.385   1.655  15.788  1.7482  1.0713  0.0671
 1858TIP3    H226990   3.354   1.800  15.822 -1.1287 -0.1815  3.0589
 1859TIP3   OH226991   5.200   0.705   1.387  0.2464  0.5259  0.1972
 1859TIP3    H126992   5.188   0.673   1.476  0.3994  1.6104  0.6112
 1859TIP3    H226993   5.111   0.726   1.357  0.1457 -0.2693 -0.0762
 1860TIP3   OH226994   6.343   5.351   4.808  0.1726  0.3346 -0.0562
 1860TIP3    H126995   6.280   5.302   4.860  2.5164 -3.0351 -0.2371
 1860TIP3    H226996   6.290   5.403   4.748 -2.4427  0.1529  2.0280
 1861TIP3   OH226997   3.102   2.520  14.400 -0.2352 -0.2176  0.2441
 1861TIP3    H126998   3.192   2.550  14.392 -0.2986  0.1489  0.8995
 1861TIP3    H226999   3.053   2.571  14.336 -0.2038  0.5125  0.7980
 1862TIP3   OH227000   3.994   5.656  14.772  0.1023  0.2034  0.2536
 1862TIP3    H127001   3.977   5.699  14.688  0.4506  1.0327  0.6064
 1862TIP3    H227002   3.909   5.620  14.798  0.5637 -2.6236 -1.8656
 1863TIP3   OH227003   5.684   3.193   3.333  0.6087  0.1928 -0.1227
 1863TIP3    H127004   5.766   3.183   3.285  0.9189 -2.0028  0.8314
 1863TIP3    H227005   5.620   3.141   3.284  0.3659 -0.0848  0.4779
 1864TIP3   OH227006   2.519   0.684   5.403 -0.2288 -0.4340 -0.4558
 1864TIP3    H127007   2.491   0.629   5.330 -2.6425 -0.7944  0.6590
 1864TIP3    H227008   2.545   0.622   5.471  0.2361 -0.1425 -0.3695
 1865TIP3   OH227009   6.127   1.497  12.599 -0.3522 -0.0917  0.0311
 1865TIP3    H127010   6.193   1.551  12.556 -0.3142 -1.9410 -2.2787
 1865TIP3    H227011   6.173   1.416  12.622 -1.5524 -0.9984 -0.7107
 1866TIP3   OH227012   5.839   0.277  14.558 -0.1979 -0.1541  0.8141
 1866TIP3    H127013   5.914   0.290  14.616 -0.7184  0.6747  1.3149
 1866TIP3    H227014   5.776   0.228  14.611 -0.7677  0.8067  1.0372
 1867TIP3   OH227015   6.103   4.704   0.181  0.6501  0.0798 -0.4397
 1867TIP3    H127016   6.169   4.671   0.120  0.1602 -0.7117 -0.5512
 1867TIP3    H227017   6.090   4.795   0.155  0.1623 -0.3573 -1.7839
 1868TIP3   OH227018   5.969   4.777   3.225 -0.3145  0.1350  0.3680
 1868TIP3    H127019   5.952   4.783   3.319 -2.0154 -1.5774  0.2026
 1868TIP3    H227020   5.990   4.867   3.199 -1.0007  0.8474  2.1779
 1869TIP3   OH227021   6.330   3.551   0.801 -0.0229 -0.4886  0.3670
 1869TIP3    H127022   6.363   3.613   0.736  1.1628 -1.8979 -0.4045
 1869TIP3    H227023   6.332   3.599   0.883 -0.6094  1.0058 -0.4678
 1870TIP3   OH227024   4.771   4.080  15.250  0.1001 -0.2971 -0.1820
 1870TIP3    H127025   4.844   4.139  15.270 -0.4945  0.9782 -1.6873
 1870TIP3    H227026   4.805   4.021  15.183 -1.0319  2.0186 -2.8647
 1871TIP3   OH227027   0.299   6.141  13.312 -0.2070  0.0659  0.2413
 1871TIP3    H127028   0.275   6.189  13.391  0.7915 -1.4848  1.5333
 1871TIP3    H227029   0.219   6.095  13.286 -0.5457  0.6027  0.3232
 1872TIP3   OH227030   6.461   4.474   0.189 -0.2645  0.3234 -0.1686
 1872TIP3    H127031   6.440   4.534   0.116  1.3269  1.0810 -0.0240
 1872TIP3    H227032   6.537   4.425   0.158  1.0167  1.3263  1.3574
 1873TIP3   OH227033   2.675   4.959  15.094 -0.0753  0.3738 -0.2476
 1873TIP3    H127034   2.684   5.049  15.063  1.8450  0.2874  0.0029
 1873TIP3    H227035   2.685   4.905  15.016 -2.1153  0.3853 -0.5436
 1874TIP3   OH227036   5.787   5.158  11.977  0.1625 -0.1696 -0.3252
 1874TIP3    H127037   5.718   5.147  11.912  1.1363 -1.3817 -1.1813
 1874TIP3    H227038   5.743   5.149  12.061 -0.8182 -0.3128 -0.8532
 1875TIP3   OH227039   1.006   2.263   2.740 -0.1423  0.0911 -0.7997
 1875TIP3    H127040   1.089   2.296   2.775  0.7429  0.0436 -2.7769
 1875TIP3    H227041   0.993   2.180   2.785  0.6624  0.3007 -0.1574
 1876TIP3   OH227042   6.065   5.198   5.727  0.1326  0.2253  0.6750
 1876TIP3    H127043   6.104   5.218   5.812  0.6021  0.4356  0.4090
 1876TIP3    H227044   6.126   5.136   5.686 -0.5747 -0.6211  0.8868
 1877TIP3   OH227045   6.474   6.437   5.652 -0.1089  0.8679 -0.0480
 1877TIP3    H127046   6.405   6.374   5.631  0.2686  0.2761  0.4750
 1877TIP3    H227047   6.517   6.400   5.729  0.8637  1.1777 -0.4377
 1878TIP3   OH227048   1.550   3.248  16.281 -0.1385  0.3163 -0.6027
 1878TIP3    H127049   1.644   3.256  16.267  0.0652  0.7514  0.9893
 1878TIP3    H227050   1.531   3.156  16.262  0.7839 -0.0225  0.0740
 1879TIP3   OH227051   2.795   3.473   0.117  0.1643  0.0652 -0.1771
 1879TIP3    H127052   2.853   3.419   0.172  0.0484 -1.0618 -1.1351
 1879TIP3    H227053   2.709   3.432   0.126 -0.4797  1.6369  1.1114
 1880TIP3   OH227054   6.109   3.358   4.969  0.0663 -0.3085  0.2627
 1880TIP3    H127055   6.107   3.452   4.983  0.9260 -0.0350 -1.2663
 1880TIP3    H227056   6.043   3.323   5.029 -1.2265  1.3882 -0.1275
 1881TIP3   OH227057   6.621   2.967   5.398 -0.3581 -0.7287  0.2082
 1881TIP3    H127058   6.618   3.015   5.480 -1.3655  1.9624 -1.3512
 1881TIP3    H227059   6.705   2.920   5.401  0.6505  1.0989  1.7971
 1882TIP3   OH227060   4.947   5.581  11.644 -0.3094  0.0869 -0.3128
 1882TIP3    H127061   4.973   5.570  11.735 -1.4106 -0.6240 -0.0813
 1882TIP3    H227062   4.904   5.499  11.621  2.6358 -0.9751 -2.3979
 1883TIP3   OH227063   2.375   0.009   4.532 -0.6229  0.0827  0.1977
 1883TIP3    H127064   2.347   0.006   4.623 -1.5598 -0.0005 -0.0949
 1883TIP3    H227065   2.323  -0.057   4.488 -0.8996  0.8277 -0.5990
 1884TIP3   OH227066   5.032   3.034  11.551  0.4062  0.4920  0.0873
 1884TIP3    H127067   5.089   3.076  11.486 -1.3960  0.5124 -1.5504
 1884TIP3    H227068   5.075   3.049  11.635  3.2511 -0.2467 -1.1794
 1885TIP3   OH227069   0.581   1.301  12.563 -0.1375 -0.3292 -0.2561
 1885TIP3    H127070   0.534   1.343  12.491  0.6671  2.2851  0.6504
 1885TIP3    H227071   0.566   1.359  12.638  2.1584 -0.9417  0.7398
 1886TIP3   OH227072   3.515   5.171   2.653  0.5599  0.1330  0.0347
 1886TIP3    H127073   3.604   5.155   2.684  0.9803  1.3826 -0.4568
 1886TIP3    H227074   3.512   5.131   2.566  1.2200  1.5932 -0.6864
 1887TIP3   OH227075   5.132   4.763  14.734 -0.3276  0.1109  0.2364
 1887TIP3    H127076   5.116   4.755  14.640 -0.3103 -2.1475  0.4021
 1887TIP3    H227077   5.224   4.738  14.745  0.0669  1.7015  0.7057
 1888TIP3   OH227078   3.445   2.915  16.688  0.4530 -0.5726 -0.4864
 1888TIP3    H127079   3.454   2.857  16.612 -2.2102  0.4022 -1.6062
 1888TIP3    H227080   3.351   2.912  16.709  0.5143  2.2124  0.3119
 1889TIP3   OH227081   2.388   4.190   0.202 -0.3623 -0.0813  0.8684
 1889TIP3    H127082   2.474   4.159   0.174  0.0124  1.9325 -0.2975
 1889TIP3    H227083   2.352   4.118   0.254  1.3888 -1.5528  0.0930
 1890TIP3   OH227084   2.376   5.987  13.167  0.3569 -0.5721  0.3255
 1890TIP3    H127085   2.420   6.039  13.234  0.3472  1.7110 -1.3657
 1890TIP3    H227086   2.445   5.963  13.106  0.0626 -1.0123  0.1631
 1891TIP3   OH227087   6.362   2.159  12.109 -0.2276  0.8144 -0.3128
 1891TIP3    H127088   6.370   2.109  12.028 -0.2663  0.1161  0.1113
 1891TIP3    H227089   6.268   2.157  12.129  0.0276 -0.7640  0.8358
 1892TIP3   OH227090   3.010   1.904  10.499  0.0176 -0.4768 -0.0556
 1892TIP3    H127091   3.028   1.811  10.486  1.8993  0.1251 -1.9724
 1892TIP3    H227092   3.043   1.947  10.420 -1.9125  1.7137  0.2467
 1893TIP3   OH227093   5.237   4.275  12.550 -0.2027  0.3214  0.3545
 1893TIP3    H127094   5.278   4.334  12.612  1.3962  2.2933 -2.4820
 1893TIP3    H227095   5.259   4.187  12.582  1.0211  1.2847  2.2484
 1894TIP3   OH227096   0.775   3.978   2.973 -0.1495  0.2207  0.6059
 1894TIP3    H127097   0.769   4.003   3.065 -0.5957  0.6664  0.4565
 1894TIP3    H227098   0.847   4.031   2.939  1.5574 -1.6329  1.2465
 1895TIP3   OH227099   5.507   3.015  12.418  0.5633  0.1209  0.6837
 1895TIP3    H127100   5.588   2.992  12.373 -1.0677 -3.8794 -0.4232
 1895TIP3    H227101   5.455   3.061  12.352  0.7439  0.0184  0.4698
 1896TIP3   OH227102   5.840   5.771  12.001 -0.0183 -0.0688 -0.3167
 1896TIP3    H127103   5.778   5.838  11.972  0.1629  0.4868  0.5671
 1896TIP3    H227104   5.925   5.800  11.967  0.4852  1.4521  2.0602
 1897TIP3   OH227105   6.266   1.258  14.818  0.4367 -0.0616 -0.5291
 1897TIP3    H127106   6.275   1.339  14.766  1.6491 -0.1249 -0.4267
 1897TIP3    H227107   6.179   1.225  14.795  0.1120  1.0292 -0.9266
 1898TIP3   OH227108   1.188   2.664  16.690 -0.5112 -0.0102  0.1042
 1898TIP3    H127109   1.229   2.707  16.614 -0.1477 -0.5036  0.0182
 1898TIP3    H227110   1.144   2.735  16.737  3.7523  1.2878  2.4109
 1899TIP3   OH227111   3.262   5.197   4.680 -0.4615  0.6700 -0.5321
 1899TIP3    H127112   3.331   5.258   4.705 -0.9829  1.2445 -0.4764
 1899TIP3    H227113   3.220   5.237   4.604 -0.4312  0.0933 -0.8567
 1900TIP3   OH227114   5.804   6.252   5.866 -0.2305 -0.5872 -0.1229
 1900TIP3    H127115   5.804   6.331   5.811  1.9957  0.5510  1.4377
 1900TIP3    H227116   5.838   6.183   5.810  1.4061  0.4187 -0.4074
 1901TIP3   OH227117   6.264   1.847   4.618  0.4621 -0.5287  0.3404
 1901TIP3    H127118   6.349   1.823   4.580 -0.0504 -0.6057 -0.7952
 1901TIP3    H227119   6.211   1.767   4.610 -0.3135  0.0738 -0.7360
 1902TIP3   OH227120   6.431   5.169   1.189  0.1757  0.4299 -0.1189
 1902TIP3    H127121   6.397   5.088   1.151  1.4648  0.5930 -1.6820
 1902TIP3    H227122   6.509   5.189   1.137  1.2433  1.3781  1.8031
 1903TIP3   OH227123   4.629   3.977   5.645  0.2770 -0.2456 -0.7602
 1903TIP3    H127124   4.565   4.040   5.611 -0.9777 -1.3122 -0.4068
 1903TIP3    H227125   4.688   3.961   5.572 -1.4932 -1.3537 -1.9838
 1904TIP3   OH227126   4.232   5.705  12.246 -0.2604  0.1721 -0.0380
 1904TIP3    H127127   4.257   5.613  12.252  0.1652  0.3808  1.3747
 1904TIP3    H227128   4.238   5.725  12.152 -0.2812 -1.2070 -0.3466
 1905TIP3   OH227129   4.474   0.531   5.647  0.1394  0.3905  0.6800
 1905TIP3    H127130   4.558   0.568   5.673  0.4078  0.6053 -0.4439
 1905TIP3    H227131   4.414   0.606   5.649  0.2863  0.5246  0.1329
 1906TIP3   OH227132   1.474   4.096   4.140 -0.3769  0.3257  0.0585
 1906TIP3    H127133   1.406   4.163   4.139  0.8053  1.5676  0.5715
 1906TIP3    H227134   1.556   4.145   4.126  0.4994 -1.0064  0.4292
 1907TIP3   OH227135   3.433   6.440   1.933 -0.0502 -0.3641 -0.0279
 1907TIP3    H127136   3.461   6.463   1.844 -0.2373  1.5750  0.3924
 1907TIP3    H227137   3.414   6.346   1.929  0.4539 -0.4034 -1.8984
 1908TIP3   OH227138   6.002   5.586  16.639 -0.5082  0.1979  0.3731
 1908TIP3    H127139   6.069   5.654  16.652 -0.9150  0.6347  0.2009
 1908TIP3    H227140   6.027   5.517  16.701 -0.6152  0.9036  1.2153
 1909TIP3   OH227141   4.924   4.673   1.823 -0.0326 -0.2397 -0.2185
 1909TIP3    H127142   4.908   4.740   1.889 -0.5070 -0.2090 -0.3654
 1909TIP3    H227143   4.876   4.596   1.856  0.4389 -0.4809 -0.0920
 1910TIP3   OH227144   0.667   3.821  15.898 -0.3563 -0.0319  0.0252
 1910TIP3    H127145   0.606   3.783  15.834 -1.6058  1.2805  0.3997
 1910TIP3    H227146   0.628   3.800  15.983  0.4012 -0.3025  0.3052
 1911TIP3   OH227147   1.904   4.831   4.918  0.0495 -0.2463  0.1267
 1911TIP3    H127148   1.877   4.919   4.946  2.2507  0.2717  0.8004
 1911TIP3    H227149   1.921   4.785   5.000 -0.5086 -1.0936 -0.2383
 1912TIP3   OH227150   4.564   2.991  13.747  0.1141  0.2624 -0.1465
 1912TIP3    H127151   4.575   2.902  13.782  0.1091  0.6170  0.7861
 1912TIP3    H227152   4.648   3.011  13.707 -0.7337 -1.1635 -2.7466
 1913TIP3   OH227153   5.586   0.801  14.671 -0.1582 -0.0682 -0.0757
 1913TIP3    H127154   5.585   0.802  14.575 -0.5979  0.0572 -0.0729
 1913TIP3    H227155   5.625   0.717  14.694  0.2558  0.0453 -0.3647
 1914TIP3   OH227156   3.250   5.631   5.088  0.6738  0.3152 -0.2822
 1914TIP3    H127157   3.211   5.673   5.165  2.0408 -1.0539  1.1749
 1914TIP3    H227158   3.333   5.677   5.075  0.2958  0.7596 -1.1414
 1915TIP3   OH227159   4.278   6.693  15.644 -0.0461  0.2704  0.1679
 1915TIP3    H127160   4.301   6.684  15.737  1.3197 -0.9229 -0.2633
 1915TIP3    H227161   4.276   6.787  15.629 -0.7013  0.4814  1.5176
 1916TIP3   OH227162   3.462   5.658   6.296 -0.3463  0.4359  0.2621
 1916TIP3    H127163   3.366   5.658   6.296 -0.3475  0.1076 -0.0949
 1916TIP3    H227164   3.486   5.592   6.362 -0.3858 -2.0465 -2.1071
 1917TIP3   OH227165   1.511   2.849  11.239 -0.8444  0.2532 -0.1686
 1917TIP3    H127166   1.555   2.766  11.222 -1.2211 -0.0328  0.2641
 1917TIP3    H227167   1.578   2.903  11.281 -1.3675 -0.7477  2.0423
 1918TIP3   OH227168   5.144   1.706  12.388 -0.1372 -0.0614 -0.0633
 1918TIP3    H127169   5.102   1.673  12.308 -0.8321  0.3515  0.1319
 1918TIP3    H227170   5.104   1.791  12.403  0.3627  0.0857  0.4460
 1919TIP3   OH227171   4.293   4.657   0.307  0.3761 -0.1855  0.0498
 1919TIP3    H127172   4.367   4.716   0.320 -0.5556  0.9659  0.2779
 1919TIP3    H227173   4.222   4.696   0.359 -0.7055 -0.6435 -1.0407
 1920TIP3   OH227174   5.738   2.583  17.045  0.3788  0.2781  0.0772
 1920TIP3    H127175   5.677   2.649  17.078 -0.8786 -0.1620 -1.3058
 1920TIP3    H227176   5.710   2.567  16.955  1.3176 -1.3768  0.0523
 1921TIP3   OH227177   6.363   1.936  11.636 -0.5206 -0.0380  0.1171
 1921TIP3    H127178   6.458   1.937  11.647 -0.4640  0.7185 -0.4359
 1921TIP3    H227179   6.344   1.851  11.597  0.0588  0.3297 -0.9610
 1922TIP3   OH227180   4.959   6.775   5.161 -0.4489  0.2152 -0.1124
 1922TIP3    H127181   4.867   6.796   5.180  0.0703  0.4756  2.2152
 1922TIP3    H227182   4.954   6.703   5.097 -2.2634  0.0651  0.1735
 1923TIP3   OH227183   4.771   1.631  10.866 -0.2361 -0.3540 -0.1405
 1923TIP3    H127184   4.758   1.567  10.796  1.1594  0.0311 -0.7732
 1923TIP3    H227185   4.741   1.714  10.828 -0.5700 -0.3495  0.1303
 1924TIP3   OH227186   1.731   2.893   4.035  0.1771  0.0659  1.1616
 1924TIP3    H127187   1.665   2.895   4.104  0.7242  0.3513  1.6823
 1924TIP3    H227188   1.685   2.856   3.959  0.1135 -2.0572  2.2223
 1925TIP3   OH227189   2.094   0.128  16.577 -0.4824 -0.1323  0.0272
 1925TIP3    H127190   2.040   0.177  16.514 -2.0850 -2.7289 -0.7165
 1925TIP3    H227191   2.180   0.123  16.536 -0.7947  0.4812 -0.7236
 1926TIP3   OH227192   2.078   4.980   5.947 -0.7200 -0.0345  0.2604
 1926TIP3    H127193   1.996   4.963   5.993 -0.1447 -1.4546  0.7943
 1926TIP3    H227194   2.129   5.033   6.008 -1.0839  0.5065  0.0937
 1927TIP3   OH227195   4.338   0.440  11.633  0.4944 -0.0209  0.5200
 1927TIP3    H127196   4.328   0.374  11.701  2.5413 -0.6583  0.2477
 1927TIP3    H227197   4.426   0.477  11.647 -0.0893  1.6952 -0.1514
 1928TIP3   OH227198   4.641   0.105   0.954 -0.2539 -0.2574  0.1563
 1928TIP3    H127199   4.611   0.042   0.889 -1.5930 -0.4230  0.9055
 1928TIP3    H227200   4.561   0.152   0.980  0.6281  1.3482  0.0249
 1929TIP3   OH227201   6.324   1.062  16.979  0.0236 -0.1060  0.2338
 1929TIP3    H127202   6.270   1.133  17.015 -0.7073 -1.3454  1.6294
 1929TIP3    H227203   6.409   1.103  16.964 -0.8844  1.5241 -0.6623
 1930TIP3   OH227204   4.978   1.843   3.133  0.2589 -0.0270  0.2885
 1930TIP3    H127205   5.073   1.849   3.132  0.3058 -0.8845 -0.6052
 1930TIP3    H227206   4.956   1.779   3.065 -0.9674  0.3511  0.3004
 1931TIP3   OH227207   5.332   3.741   0.454  0.0632  0.4828 -0.4247
 1931TIP3    H127208   5.415   3.784   0.434 -0.3635  0.3886 -2.5475
 1931TIP3    H227209   5.316   3.684   0.378  1.0878 -4.2488  2.6723
 1932TIP3   OH227210   6.588   5.521   4.955  0.0553  0.0780 -0.1176
 1932TIP3    H127211   6.526   5.482   4.894  0.4262  0.0202 -0.4626
 1932TIP3    H227212   6.669   5.529   4.905  0.2587  0.3745  0.2546
 1933TIP3   OH227213   6.541   4.593  15.319  0.0042  0.2992  0.1428
 1933TIP3    H127214   6.578   4.574  15.232 -0.4684 -0.0987  0.0259
 1933TIP3    H227215   6.545   4.689  15.326  2.1040  0.1903  0.6044
 1934TIP3   OH227216   3.115   5.825   0.855  0.4591  0.1895  0.5070
 1934TIP3    H127217   3.047   5.860   0.798  0.8897 -0.9046 -0.7173
 1934TIP3    H227218   3.195   5.871   0.828  0.5252  0.2161  0.7469
 1935TIP3   OH227219   0.676   0.783  12.507 -0.3271 -0.2759 -0.8089
 1935TIP3    H127220   0.699   0.875  12.523  0.6440 -0.4097 -1.4074
 1935TIP3    H227221   0.755   0.745  12.469 -0.9279 -1.2119 -1.1230
 1936TIP3   OH227222   1.885   3.263   1.634 -0.0229  0.3526  0.3228
 1936TIP3    H127223   1.852   3.288   1.548 -0.7157 -0.4602  0.3384
 1936TIP3    H227224   1.827   3.308   1.696  0.7161  1.2500  0.3771
 1937TIP3   OH227225   6.027   3.959   3.511  0.3227  0.1534  0.2591
 1937TIP3    H127226   5.950   4.001   3.473  1.2752  0.9428 -0.8560
 1937TIP3    H227227   6.092   3.960   3.440  1.5677  0.0786  1.3803
 1938TIP3   OH227228   0.583   4.145  16.270  0.1406 -0.6405  0.3445
 1938TIP3    H127229   0.507   4.203  16.272  0.6078 -0.0473  0.8988
 1938TIP3    H227230   0.606   4.140  16.177  0.0201 -0.0392  0.2796
 1939TIP3   OH227231   1.818   5.627   3.468 -0.1423  0.8921 -0.3492
 1939TIP3    H127232   1.738   5.576   3.454 -0.4522  1.2398  0.1265
 1939TIP3    H227233   1.834   5.622   3.562  0.0512  1.3313 -0.3560
 1940TIP3   OH227234   4.762   3.435  10.558 -0.2061 -0.2859 -0.4196
 1940TIP3    H127235   4.813   3.496  10.505 -1.0516 -0.6967 -1.7293
 1940TIP3    H227236   4.682   3.419  10.507  0.2003 -2.8352 -0.3212
 1941TIP3   OH227237   3.920   1.961  14.022  0.5186 -0.0949  0.2967
 1941TIP3    H127238   3.928   1.866  14.009 -0.3852  0.0941 -1.9316
 1941TIP3    H227239   3.896   1.970  14.114 -1.9856 -2.2366 -0.0504
 1942TIP3   OH227240   5.755   4.696   2.417 -0.3565  0.4600  0.0857
 1942TIP3    H127241   5.702   4.663   2.344 -1.4886  1.8255  0.2781
 1942TIP3    H227242   5.765   4.789   2.399  0.5896  0.5288  0.9355
 1943TIP3   OH227243   2.488   2.747   3.339  0.2654 -0.2830  0.3117
 1943TIP3    H127244   2.474   2.758   3.245 -0.1623  0.4318  0.4619
 1943TIP3    H227245   2.448   2.662   3.358 -0.7349  0.1270  0.0754
 1944TIP3   OH227246   4.235   1.493  16.953  0.3830  0.3567 -0.0741
 1944TIP3    H127247   4.267   1.583  16.964 -0.9232  1.1084 -2.0033
 1944TIP3    H227248   4.144   1.497  16.984  0.1719 -0.1830 -0.6239
 1945TIP3   OH227249   5.424   1.337  10.431 -0.4243 -0.7994  0.0837
 1945TIP3    H127250   5.337   1.349  10.469 -1.1651 -2.2410 -1.1110
 1945TIP3    H227251   5.451   1.249  10.458  1.1593  0.0421  1.3725
 1946TIP3   OH227252   2.062   4.852  16.151  0.5708 -0.0812  0.4437
 1946TIP3    H127253   2.099   4.796  16.084 -0.5758  0.1732 -0.4272
 1946TIP3    H227254   2.092   4.940  16.128 -1.3006  0.2589 -0.8204
 1947TIP3   OH227255   1.886   3.463   2.234  0.6972 -0.3763 -0.4536
 1947TIP3    H127256   1.883   3.550   2.272  0.5396 -0.5133 -0.1456
 1947TIP3    H227257   1.976   3.452   2.204  1.1950 -0.7779  1.1164
 1948TIP3   OH227258   3.265   5.667  12.152  0.2524  0.2751 -0.0086
 1948TIP3    H127259   3.358   5.652  12.134  0.8544  2.1428  1.2779
 1948TIP3    H227260   3.237   5.727  12.083 -0.1536 -0.7338 -0.7251
 1949TIP3   OH227261   4.969   5.423   0.481 -0.2846  0.4242 -0.6592
 1949TIP3    H127262   4.891   5.374   0.506 -0.8354  2.1728  1.1732
 1949TIP3    H227263   4.949   5.457   0.394 -0.0699 -2.1410 -1.7804
 1950TIP3   OH227264   2.910   6.764   1.347 -0.2356 -0.2615 -0.2402
 1950TIP3    H127265   2.817   6.755   1.329 -0.2070  1.2834 -1.2775
 1950TIP3    H227266   2.915   6.825   1.421 -0.0575 -0.3284 -0.1967
 1951TIP3   OH227267   2.962   5.415   2.831  0.2392  0.4703  0.6121
 1951TIP3    H127268   2.981   5.392   2.922  0.1021 -0.7681  0.3408
 1951TIP3    H227269   2.867   5.412   2.825  0.3002 -1.1880  0.0181
 1952TIP3   OH227270   5.158   0.099   5.772 -0.2095  0.1323  0.1649
 1952TIP3    H127271   5.099   0.036   5.729  0.6336  0.6991 -1.8948
 1952TIP3    H227272   5.103   0.143   5.837 -1.8448  0.0954 -1.1596
 1953TIP3   OH227273   3.203   3.805  10.480  0.2258  0.0644 -0.1080
 1953TIP3    H127274   3.124   3.807  10.427 -0.3885 -0.5365  0.7680
 1953TIP3    H227275   3.235   3.715  10.474  1.3820  0.5387 -1.2270
 1954TIP3   OH227276   5.600   1.903  17.136  0.1981 -0.2010  0.1598
 1954TIP3    H127277   5.529   1.957  17.100  0.7724 -1.2394 -2.6587
 1954TIP3    H227278   5.576   1.890  17.228 -2.9855 -0.0881 -0.5954
 1955TIP3   OH227279   4.733   0.898   0.369  0.4128  0.0198  0.0881
 1955TIP3    H127280   4.724   0.912   0.464 -0.8960 -1.7107  0.2332
 1955TIP3    H227281   4.644   0.899   0.336  0.6775 -2.1140 -0.7249
 1956TIP3   OH227282   2.067   4.229  14.223 -0.6350 -0.0289  0.2041
 1956TIP3    H127283   2.102   4.297  14.166 -0.4995 -0.6522 -0.4655
 1956TIP3    H227284   2.050   4.273  14.306  1.0654  0.4387  0.3167
 1957TIP3   OH227285   2.946   5.016  11.059  0.0413 -0.4701  0.3864
 1957TIP3    H127286   2.933   5.096  11.009 -1.5413 -1.0073 -0.0964
 1957TIP3    H227287   2.969   4.950  10.993 -0.8675 -0.9059  0.4959
 1958TIP3   OH227288   0.470   3.354  14.876 -0.0642 -0.0481  0.2030
 1958TIP3    H127289   0.429   3.320  14.796 -2.1496  0.1303  1.1679
 1958TIP3    H227290   0.557   3.383  14.847  0.5178 -3.0983 -1.2926
 1959TIP3   OH227291   1.974   5.317  14.172  0.6231  0.3094  0.0038
 1959TIP3    H127292   2.003   5.241  14.222  0.6371  0.9107  0.9273
 1959TIP3    H227293   1.998   5.392  14.227  0.4018  0.9690 -0.7893
 1960TIP3   OH227294   0.139   4.707  15.309  0.3140 -0.1061  0.1014
 1960TIP3    H127295   0.234   4.696  15.321 -0.0233 -2.0609  1.1544
 1960TIP3    H227296   0.104   4.618  15.315 -1.6881  0.6891  0.4971
 1961TIP3   OH227297   3.011   2.439  12.428  0.6852 -0.0882  0.4761
 1961TIP3    H127298   3.091   2.448  12.480  1.3887 -3.2971  0.0678
 1961TIP3    H227299   3.005   2.345  12.410 -1.8189  0.4273 -1.6514
 1962TIP3   OH227300   6.726   5.582   3.987 -0.4088  0.5703 -0.6637
 1962TIP3    H127301   6.723   5.497   3.942 -1.1235  0.4608 -0.4057
 1962TIP3    H227302   6.699   5.562   4.077 -1.9164  1.3155 -0.9519
 1963TIP3   OH227303   2.406   4.945   3.490 -0.1538 -0.0130  0.4100
 1963TIP3    H127304   2.467   4.885   3.532  1.5677  1.3429 -0.1120
 1963TIP3    H227305   2.378   5.004   3.560  0.6114  0.5588  0.2297
 1964TIP3   OH227306   4.098   5.060   5.141 -0.1768  0.3076  0.0667
 1964TIP3    H127307   4.133   5.126   5.201 -0.0396  0.1514  0.1580
 1964TIP3    H227308   4.050   5.111   5.075  1.1391  0.6144 -0.6841
 1965TIP3   OH227309   3.220   5.518   1.774 -0.1976  0.0139  0.3038
 1965TIP3    H127310   3.224   5.513   1.870 -1.5956  1.4786  0.4531
 1965TIP3    H227311   3.170   5.597   1.756  1.3257  0.5743 -1.6618
 1966TIP3   OH227312   3.639   1.325  10.617 -0.4433  0.4712  0.5116
 1966TIP3    H127313   3.687   1.330  10.699  0.0896  1.5715  0.1339
 1966TIP3    H227314   3.676   1.248  10.572 -0.5889 -0.0038  1.1982
 1967TIP3   OH227315   5.975   6.635  12.725  0.3209 -0.1436 -0.0013
 1967TIP3    H127316   6.045   6.570  12.715  0.3213 -0.0965 -0.3414
 1967TIP3    H227317   5.992   6.699  12.656  0.8565  0.7167  0.9381
 1968TIP3   OH227318   2.960   3.436  12.137 -0.1119 -0.0564 -0.6524
 1968TIP3    H127319   2.944   3.501  12.205 -0.3922 -1.1604  0.3455
 1968TIP3    H227320   3.042   3.464  12.096  0.7937 -0.1711  1.0555
 1969TIP3   OH227321   6.715   5.633  13.922 -1.3768  0.6261  0.4094
 1969TIP3    H127322   6.734   5.683  14.001  1.3211  0.4925 -0.1046
 1969TIP3    H227323   6.702   5.543  13.952 -0.3523  0.5750  0.7055
 1970TIP3   OH227324   1.896   4.011  16.395  0.2177 -0.3253  0.0778
 1970TIP3    H127325   1.966   3.982  16.455  0.9673 -1.7214 -1.4282
 1970TIP3    H227326   1.912   4.105  16.384 -1.8349  0.6970  4.5049
 1971TIP3   OH227327   5.604   0.590  13.009  0.2404  0.1919 -0.1534
 1971TIP3    H127328   5.535   0.595  12.943  1.2292 -0.0523 -1.2272
 1971TIP3    H227329   5.667   0.658  12.982  0.5663  0.1999  0.6263
 1972TIP3   OH227330   0.761   2.944   2.798  0.4279  0.1030 -0.2449
 1972TIP3    H127331   0.803   2.951   2.884  0.3851  2.5500 -0.3815
 1972TIP3    H227332   0.834   2.945   2.736  0.3315  1.4193 -0.3525
 1973TIP3   OH227333   6.030   1.100  14.702 -0.2068 -0.1817  0.0408
 1973TIP3    H127334   6.037   1.057  14.616 -0.3520 -0.8816  0.3699
 1973TIP3    H227335   5.981   1.038  14.755  0.9431 -0.2982  0.9885
 1974TIP3   OH227336   0.336   0.269  14.597  0.4761 -0.2997  0.4040
 1974TIP3    H127337   0.312   0.356  14.628  0.0549 -0.4672  0.5520
 1974TIP3    H227338   0.262   0.241  14.542  1.1995 -0.0188 -0.7281
 1975TIP3   OH227339   2.322   4.079  16.469  0.0454 -0.2368 -0.2697
 1975TIP3    H127340   2.389   4.012  16.454  0.5294  0.3292 -0.6524
 1975TIP3    H227341   2.264   4.040  16.534 -0.3331 -1.4979 -1.3176
 1976TIP3   OH227342   4.775   6.123  16.142 -0.2171  0.5896  0.6211
 1976TIP3    H127343   4.713   6.144  16.072 -1.7442 -1.5296  1.2901
 1976TIP3    H227344   4.859   6.156  16.110 -1.4875  2.6399 -0.7399
 1977TIP3   OH227345   5.114   2.778  16.001  0.1014 -0.5772 -0.2947
 1977TIP3    H127346   5.105   2.723  16.079  1.3232  0.1673  0.3800
 1977TIP3    H227347   5.102   2.717  15.928 -1.6954 -1.1635  0.4464
 1978TIP3   OH227348   4.774   6.398  12.825  0.2639 -0.1873 -0.3266
 1978TIP3    H127349   4.709   6.431  12.763  0.4278  1.8082  0.5254
 1978TIP3    H227350   4.722   6.372  12.901  0.2259 -1.1056 -0.6552
 1979TIP3   OH227351   0.835   4.502  10.687 -0.0870  0.3499  0.1434
 1979TIP3    H127352   0.846   4.429  10.748  0.5673 -0.0244 -0.4113
 1979TIP3    H227353   0.823   4.460  10.602  0.0958  0.8877 -0.1471
 1980TIP3   OH227354   0.698   2.256   2.896  0.0327 -0.0953  0.8572
 1980TIP3    H127355   0.627   2.199   2.867  0.9015 -0.2135 -1.1802
 1980TIP3    H227356   0.777   2.203   2.885  0.8961  1.5615 -1.3821
 1981TIP3   OH227357   4.157   3.349   1.385  0.4101 -0.1436  0.0186
 1981TIP3    H127358   4.129   3.270   1.432  0.9291 -0.8515 -0.8645
 1981TIP3    H227359   4.089   3.364   1.320  0.5354 -0.1042 -0.1018
 1982TIP3   OH227360   6.397   6.179   0.402 -0.4617  0.4220 -0.7013
 1982TIP3    H127361   6.405   6.090   0.368 -0.0784  0.4356 -0.6443
 1982TIP3    H227362   6.304   6.200   0.390 -1.0513 -0.8246  1.3477
 1983TIP3   OH227363   6.702   3.350  16.861  0.5601  0.5114  0.0676
 1983TIP3    H127364   6.695   3.269  16.810  0.3898  0.9462 -0.6102
 1983TIP3    H227365   6.754   3.408  16.806  0.6869  0.8604  0.5564
 1984TIP3   OH227366   4.450   0.073  12.564  0.2144  0.1645  0.1357
 1984TIP3    H127367   4.505   0.060  12.486 -1.4362 -1.5216 -0.7887
 1984TIP3    H227368   4.495   0.025  12.633  0.5591 -0.1645 -0.3129
 1985TIP3   OH227369   3.137   6.055   1.414  0.5361  0.3262  0.8288
 1985TIP3    H127370   3.073   5.993   1.380  0.8619 -0.6025  1.8764
 1985TIP3    H227371   3.103   6.141   1.390 -0.3690 -0.2243  0.1403
 1986TIP3   OH227372   2.904   6.148  16.640 -0.8582  0.3609  0.4278
 1986TIP3    H127373   2.865   6.217  16.586  0.5162  0.9461  0.1562
 1986TIP3    H227374   2.901   6.070  16.584 -2.0286  0.3018  0.5713
 1987TIP3   OH227375   1.852   3.144   3.996  0.4266 -0.2463  0.1032
 1987TIP3    H127376   1.768   3.181   4.024  0.9415  0.5443  0.6441
 1987TIP3    H227377   1.840   3.049   4.001  0.0297 -0.1311  1.5997
 1988TIP3   OH227378   3.389   3.236  17.097  0.2357 -0.3796  0.0294
 1988TIP3    H127379   3.309   3.231  17.045  0.7783  0.6058 -0.9357
 1988TIP3    H227380   3.380   3.167  17.162 -2.3059  1.0236  1.2179
 1989TIP3   OH227381   6.231   5.587   3.434 -0.0611 -0.3705 -0.0143
 1989TIP3    H127382   6.212   5.633   3.352 -2.3983 -1.2606 -0.0282
 1989TIP3    H227383   6.306   5.531   3.413  0.7214  0.9814 -0.9175
 1990TIP3   OH227384   4.124   6.382  12.954 -0.6962  0.3555  0.0870
 1990TIP3    H127385   4.076   6.366  12.872 -2.5079 -0.6249  1.3088
 1990TIP3    H227386   4.064   6.434  13.007 -0.0334 -0.1128  1.3012
 1991TIP3   OH227387   0.084   2.454   4.781 -0.0506  0.0399  0.1622
 1991TIP3    H127388   0.073   2.377   4.837 -0.8955 -0.3634 -0.5374
 1991TIP3    H227389   0.042   2.524   4.830  0.9979  0.1338  0.9458
 1992TIP3   OH227390   4.591   1.202   5.025 -0.5977  0.2428 -0.6218
 1992TIP3    H127391   4.551   1.140   4.965 -1.0491  0.8313 -0.9354
 1992TIP3    H227392   4.616   1.276   4.969  1.8830 -0.5516 -0.6272
 1993TIP3   OH227393   3.857   4.241  15.359 -0.4277  0.4016  0.0118
 1993TIP3    H127394   3.770   4.210  15.383 -0.1650  0.7300  1.4088
 1993TIP3    H227395   3.915   4.166  15.374 -0.2696  0.5874  0.3291
 1994TIP3   OH227396   0.560   1.907  12.471  0.0653  0.1377 -0.2690
 1994TIP3    H127397   0.544   1.924  12.564 -0.7902 -0.0799 -0.3684
 1994TIP3    H227398   0.588   1.816  12.468  0.7013  0.3305 -0.1569
 1995TIP3   OH227399   1.836   2.791  10.946 -0.5643  0.1533 -0.1702
 1995TIP3    H127400   1.774   2.782  10.873 -0.1070  0.2755 -0.5735
 1995TIP3    H227401   1.866   2.881  10.941 -0.8060  0.2682  0.3963
 1996TIP3   OH227402   0.845   3.068   4.978 -0.5435  0.5018  0.7929
 1996TIP3    H127403   0.807   3.135   5.034 -0.1746  1.2346  0.1863
 1996TIP3    H227404   0.939   3.077   4.990 -0.5095 -0.2974  1.1441
 1997TIP3   OH227405   2.887   0.775   4.573 -0.2358  0.0402  0.2475
 1997TIP3    H127406   2.858   0.818   4.653  1.7181  1.0900  0.4083
 1997TIP3    H227407   2.870   0.682   4.588  1.0653  0.1106  2.2841
 1998TIP3   OH227408   0.857   4.395   0.123  0.1032  0.1223  0.7509
 1998TIP3    H127409   0.835   4.481   0.087  0.9557 -0.1774 -0.5171
 1998TIP3    H227410   0.772   4.352   0.135 -0.2943  0.9182  0.8372
 1999TIP3   OH227411   4.509   5.334   2.484 -0.0545 -0.0498  0.1339
 1999TIP3    H127412   4.519   5.421   2.522 -5.6836  1.2034 -0.7768
 1999TIP3    H227413   4.550   5.341   2.398  1.5813  0.9526  0.9667
 2000TIP3   OH227414   0.460   3.589  16.367  0.2215 -0.1255  0.2627
 2000TIP3    H127415   0.390   3.537  16.326  0.5862  0.1566 -0.7469
 2000TIP3    H227416   0.537   3.572  16.311  0.4444  1.1649  0.1789
 2001TIP3   OH227417   6.323   3.830   2.330  0.5258  0.1091  0.3656
 2001TIP3    H127418   6.253   3.785   2.378 -1.1887 -0.4348 -2.5320
 2001TIP3    H227419   6.357   3.894   2.392 -4.1741  2.0386  1.1144
 2002TIP3   OH227420   3.207   1.379  13.167 -0.3319  0.2318  0.2346
 2002TIP3    H127421   3.268   1.452  13.158 -2.1446  1.9346  1.4699
 2002TIP3    H227422   3.262   1.305  13.193  1.3576  1.4444  0.1514
 2003TIP3   OH227423   2.874   3.865   3.586  0.0321  0.9337  0.2848
 2003TIP3    H127424   2.908   3.883   3.499  0.0225  1.1503  0.3258
 2003TIP3    H227425   2.951   3.865   3.643  0.2377 -0.7939  0.0302
 2004TIP3   OH227426   0.227   3.124   3.298 -0.1046  0.2211  0.3671
 2004TIP3    H127427   0.284   3.184   3.249 -1.3811 -0.8485 -2.5574
 2004TIP3    H227428   0.140   3.165   3.294 -0.4574 -0.4808  0.6803
 2005TIP3   OH227429   4.938   0.194  16.543 -0.3349 -0.1144 -0.1077
 2005TIP3    H127430   4.910   0.147  16.465 -1.6668 -1.3562  1.1025
 2005TIP3    H227431   4.891   0.153  16.615  2.5423 -0.4489  1.6590
 2006TIP3   OH227432   2.921   3.524   1.325  0.2060  0.7197 -0.3654
 2006TIP3    H127433   2.985   3.589   1.295  0.5743  0.5374  0.0226
 2006TIP3    H227434   2.973   3.458   1.370 -0.0890 -0.2496 -1.4329
 2007TIP3   OH227435   0.463   6.323  12.676  0.3181  1.1912  0.1002
 2007TIP3    H127436   0.487   6.414  12.660  3.0189  0.4356 -0.3465
 2007TIP3    H227437   0.533   6.289  12.732 -0.7865 -0.5585  0.4615
 2008TIP3   OH227438   2.300   5.603   0.911 -0.1769  0.0787 -0.0052
 2008TIP3    H127439   2.343   5.626   0.993 -0.4307  0.2796  0.0726
 2008TIP3    H227440   2.252   5.523   0.931  1.5115 -1.0991 -0.5416
 2009TIP3   OH227441   0.434   6.138   2.737 -0.8080  0.0549  0.1965
 2009TIP3    H127442   0.492   6.148   2.813  0.5425  1.2728 -0.9562
 2009TIP3    H227443   0.408   6.046   2.739 -0.4910 -0.0140  1.9291
 2010TIP3   OH227444   6.423   3.943  12.171  0.1885  0.0801  0.5634
 2010TIP3    H127445   6.395   3.998  12.244 -1.0958  0.2899 -0.0777
 2010TIP3    H227446   6.418   3.854  12.205 -0.0861  0.1980  0.8302
 2011TIP3   OH227447   4.702   6.585  12.322  0.5895 -0.4001 -0.4421
 2011TIP3    H127448   4.764   6.528  12.367 -0.3265 -0.1725  1.1450
 2011TIP3    H227449   4.744   6.606  12.239  2.4402 -0.5991  0.4299
 2012TIP3   OH227450   6.165   3.229   4.126  0.2603 -0.1041 -0.5291
 2012TIP3    H127451   6.115   3.160   4.082  1.6467 -1.4652 -0.0259
 2012TIP3    H227452   6.237   3.249   4.067 -0.3212  1.1827 -0.8260
 2013TIP3   OH227453   2.761   3.252   0.867  0.6009  0.1050 -0.2064
 2013TIP3    H127454   2.720   3.321   0.815  0.2015 -0.1583 -0.2445
 2013TIP3    H227455   2.782   3.294   0.951  0.0960  0.1990 -0.1240
 2014TIP3   OH227456   1.992   2.858  10.648  0.1095  0.0136 -0.1737
 2014TIP3    H127457   1.898   2.851  10.633  0.4945 -1.3676 -2.0958
 2014TIP3    H227458   2.028   2.881  10.562  1.6744 -1.1128  0.1589
 2015TIP3   OH227459   3.054   0.782   1.997 -0.9005  0.5242  1.1536
 2015TIP3    H127460   3.066   0.792   2.092  0.6085  0.4575  0.9894
 2015TIP3    H227461   3.071   0.868   1.961  0.9339  0.0156  0.7453
 2016TIP3   OH227462   5.822   5.664   6.321  0.3622 -0.2076  0.0641
 2016TIP3    H127463   5.875   5.603   6.269 -0.7732  0.4998 -1.9654
 2016TIP3    H227464   5.760   5.608   6.368  0.7348 -0.7834 -0.1269
 2017TIP3   OH227465   0.917   6.760  11.134 -0.2732  0.6964  0.2869
 2017TIP3    H127466   1.007   6.733  11.151 -0.4575 -0.6816 -0.8759
 2017TIP3    H227467   0.918   6.791  11.044 -1.4198 -1.4102 -0.4803
 2018TIP3   OH227468   1.080   3.979   1.268  0.1893 -0.2650 -0.3199
 2018TIP3    H127469   1.043   4.045   1.210 -0.2997 -0.9239 -0.7613
 2018TIP3    H227470   1.039   3.897   1.241  0.1819 -0.6216  0.7580
 2019TIP3   OH227471   4.198   0.472   0.736  0.0121  0.6277 -0.2044
 2019TIP3    H127472   4.163   0.506   0.654  0.7581  0.1749 -0.7246
 2019TIP3    H227473   4.247   0.394   0.710 -1.3539 -0.6102  0.9266
 2020TIP3   OH227474   0.020   4.719  14.119  0.0960 -0.3197  0.3623
 2020TIP3    H127475   0.110   4.687  14.124  0.6810  1.2752  0.4052
 2020TIP3    H227476   0.022   4.784  14.049 -0.7807  0.4960  1.0886
 2021TIP3   OH227477   6.361   5.057  16.791  0.4577  0.3416  0.8698
 2021TIP3    H127478   6.277   5.030  16.753  1.2423 -0.7973 -0.0938
 2021TIP3    H227479   6.337   5.106  16.870 -1.0916 -1.5604  1.6365
 2022TIP3   OH227480   4.020   2.020  13.788  0.1949 -0.1635 -0.2833
 2022TIP3    H127481   3.974   1.964  13.725 -0.2658  0.2806 -0.3448
 2022TIP3    H227482   3.975   2.005  13.871 -2.1543  2.6924 -0.9898
 2023TIP3   OH227483   6.065   6.748   2.760  0.2493  0.2425  0.0004
 2023TIP3    H127484   6.140   6.694   2.784 -0.2821 -0.0143  1.0988
 2023TIP3    H227485   6.089   6.836   2.790  0.7343  0.4470 -0.9804
 2024TIP3   OH227486   6.553   5.993   2.626  0.0708  0.2029 -0.5302
 2024TIP3    H127487   6.599   5.967   2.706  0.8423  1.4664 -0.5476
 2024TIP3    H227488   6.482   5.929   2.617  1.0909 -1.0476  0.1606
 2025TIP3   OH227489   6.443   5.916  16.529  0.3054  0.2039  0.2448
 2025TIP3    H127490   6.380   5.929  16.458  0.8101 -0.1980 -0.2745
 2025TIP3    H227491   6.455   5.821  16.534  1.3608  0.3142 -0.0853
 2026TIP3   OH227492   4.335   6.224  16.424 -0.1933  0.2306  0.3417
 2026TIP3    H127493   4.405   6.177  16.469  0.8904  1.8249  0.3628
 2026TIP3    H227494   4.259   6.167  16.432  0.9161 -1.2029  0.9472
 2027TIP3   OH227495   1.842   5.900  10.867 -0.0409 -0.1625 -0.9347
 2027TIP3    H127496   1.807   5.840  10.933 -3.2831  0.1807 -2.2156
 2027TIP3    H227497   1.836   5.986  10.908 -1.4768 -0.0231 -1.3809
 2028TIP3   OH227498   1.661   2.911  13.928 -0.1687  0.7090 -0.2358
 2028TIP3    H127499   1.596   2.968  13.970  0.2525  2.5132 -1.9660
 2028TIP3    H227500   1.744   2.932  13.970 -0.5327 -1.0261  1.4184
 2029TIP3   OH227501   1.256   2.798   1.164  0.0235 -0.4599  0.0421
 2029TIP3    H127502   1.180   2.800   1.105 -0.6419 -0.3679  0.8858
 2029TIP3    H227503   1.250   2.713   1.207  0.0847 -0.2170  0.5275
 2030TIP3   OH227504   0.221   5.640  11.667  0.4315 -0.0507 -0.6130
 2030TIP3    H127505   0.139   5.591  11.679  0.4930 -0.0382 -0.1474
 2030TIP3    H227506   0.252   5.612  11.581  0.0154 -0.1713 -0.7273
 2031TIP3   OH227507   3.789   0.057   2.350  0.3266  0.0782  0.6618
 2031TIP3    H127508   3.849   0.124   2.318 -1.3534 -0.0988 -3.0918
 2031TIP3    H227509   3.705   0.102   2.360 -1.0929 -1.5479 -2.9136
 2032TIP3   OH227510   5.108   2.308   3.820 -0.4144  0.3415  0.2986
 2032TIP3    H127511   5.147   2.392   3.843  0.3248  0.1159 -0.0998
 2032TIP3    H227512   5.038   2.295   3.884 -0.7538  1.4182  0.1538
 2033TIP3   OH227513   1.289   3.341  13.997  0.2079 -0.3928 -0.1528
 2033TIP3    H127514   1.358   3.340  14.064  0.3013 -0.3937 -0.2486
 2033TIP3    H227515   1.273   3.435  13.982 -0.1323 -0.3907  0.2001
 2034TIP3   OH227516   1.002   1.487   2.222  0.2793  0.0488  0.0421
 2034TIP3    H127517   0.982   1.581   2.219  0.4752  0.0870 -0.0363
 2034TIP3    H227518   1.033   1.473   2.312  1.8272  0.3715 -0.4376
 2035TIP3   OH227519   0.715   3.084   4.716 -0.1726 -0.3773 -0.0570
 2035TIP3    H127520   0.773   3.123   4.650 -0.2021  0.6989  0.5372
 2035TIP3    H227521   0.771   3.071   4.792 -0.1544 -1.5628 -0.2687
 2036TIP3   OH227522   6.557   4.682   4.254  0.8351 -0.5950  0.3095
 2036TIP3    H127523   6.468   4.688   4.217  0.6142 -0.4154  0.8709
 2036TIP3    H227524   6.552   4.610   4.317  0.7760  0.1951  1.2194
 2037TIP3   OH227525   6.340   2.574  13.613 -0.1186  0.7396 -0.9027
 2037TIP3    H127526   6.325   2.538  13.700 -1.2490  1.9929 -0.5578
 2037TIP3    H227527   6.385   2.505  13.566  1.0976  0.2969  0.8747
 2038TIP3   OH227528   2.767   6.203   2.681  0.2748 -0.0379  0.6989
 2038TIP3    H127529   2.857   6.179   2.658 -0.1365 -0.4375 -0.5744
 2038TIP3    H227530   2.774   6.243   2.767  1.6229 -0.4257  0.7866
 2039TIP3   OH227531   0.765   4.851  14.638  0.2323  0.0879 -0.0973
 2039TIP3    H127532   0.732   4.833  14.726  0.8589  1.6227  0.4687
 2039TIP3    H227533   0.856   4.821  14.640  0.6864  1.4576  0.2416
 2040TIP3   OH227534   0.364   3.005   3.904 -0.6089  0.3555  0.0745
 2040TIP3    H127535   0.278   3.041   3.883 -0.0018  0.4579 -2.4161
 2040TIP3    H227536   0.380   2.940   3.836  0.9977 -0.1344  0.9004
 2041TIP3   OH227537   1.225   2.266  15.037 -0.0038  0.1044  0.3613
 2041TIP3    H127538   1.182   2.180  15.036 -0.3848  0.3017 -0.0114
 2041TIP3    H227539   1.233   2.287  15.130 -0.5478 -0.0121  0.4376
 2042TIP3   OH227540   4.921   0.003   6.293 -0.1634 -0.0860  0.3599
 2042TIP3    H127541   4.906   0.091   6.257 -0.9835  1.2329  3.7039
 2042TIP3    H227542   4.845  -0.048   6.265 -1.2424  1.1565  0.9799
 2043TIP3   OH227543   5.774   2.354   4.385  0.4800  0.2331 -0.1939
 2043TIP3    H127544   5.679   2.351   4.371  0.0863 -0.0935  2.2553
 2043TIP3    H227545   5.783   2.375   4.478  2.8268  0.4522 -0.4488
 2044TIP3   OH227546   4.607   6.386  15.235  0.0103  0.1283  0.5283
 2044TIP3    H127547   4.614   6.362  15.142 -0.7125  1.3137  0.1607
 2044TIP3    H227548   4.634   6.478  15.238 -4.4426  1.5419  0.7550
 2045TIP3   OH227549   3.274   5.893  15.745 -0.0973  0.1661 -0.2877
 2045TIP3    H127550   3.272   5.862  15.655 -0.8285  0.5184 -0.3956
 2045TIP3    H227551   3.287   5.814  15.798 -1.5149 -0.2694 -0.5825
 2046TIP3   OH227552   1.125   5.089   4.805  0.4770  0.2541  0.4218
 2046TIP3    H127553   1.117   5.183   4.788  0.6381  0.3142  0.6829
 2046TIP3    H227554   1.114   5.048   4.719 -1.7332  0.3968  0.6090
 2047TIP3   OH227555   5.419   6.507  16.776 -0.2095 -0.0265  0.5468
 2047TIP3    H127556   5.378   6.581  16.821  0.5126  1.3173 -0.9181
 2047TIP3    H227557   5.495   6.485  16.830  1.6817  2.7336 -0.8063
 2048TIP3   OH227558   6.457   5.247  11.013 -0.5070 -0.2145 -0.1279
 2048TIP3    H127559   6.479   5.176  11.073 -2.9666  1.2038  2.6117
 2048TIP3    H227560   6.474   5.327  11.064 -1.7145  1.0605 -1.6726
 2049TIP3   OH227561   5.089   5.770  17.075 -0.3453  0.1243  0.0188
 2049TIP3    H127562   5.061   5.731  17.158  1.2457 -0.1292  0.4505
 2049TIP3    H227563   5.130   5.852  17.100 -1.5803  0.9682 -0.6929
 2050TIP3   OH227564   5.968   3.382   5.574  0.0364 -0.7144  0.4488
 2050TIP3    H127565   6.057   3.366   5.603  0.5727 -2.2057 -1.8012
 2050TIP3    H227566   5.977   3.427   5.490 -1.3470 -0.0782  0.6170
 2051TIP3   OH227567   5.120   0.674   0.530  0.0997 -0.3495  0.0777
 2051TIP3    H127568   5.091   0.752   0.577 -1.2991 -0.3274 -0.7835
 2051TIP3    H227569   5.174   0.626   0.594  0.8773  1.2479  0.6358
 2052TIP3   OH227570   5.336   4.420   2.708 -0.3800  0.5015 -0.0750
 2052TIP3    H127571   5.362   4.365   2.782 -0.0660  1.8087  0.8080
 2052TIP3    H227572   5.409   4.480   2.696 -0.5645  0.5026 -1.2694
 2053TIP3   OH227573   0.688   4.633  17.050  0.5642  0.0744 -0.1845
 2053TIP3    H127574   0.659   4.559  16.997  1.4052 -1.5809  1.5790
 2053TIP3    H227575   0.632   4.706  17.024 -1.2125 -1.5519 -0.9616
 2054TIP3   OH227576   6.534   5.389  11.229  0.0226  0.3310  0.6067
 2054TIP3    H127577   6.500   5.431  11.309 -1.8274 -1.2737  0.6973
 2054TIP3    H227578   6.629   5.384  11.244 -0.2537  0.3456  2.5568
 2055TIP3   OH227579   3.877   3.004   3.723  0.3401 -0.2973 -0.0620
 2055TIP3    H127580   3.822   2.964   3.790 -0.7233 -2.0552 -1.9720
 2055TIP3    H227581   3.817   3.028   3.653  1.4450  1.6123 -0.3947
 2056TIP3   OH227582   6.282   5.671  17.146 -0.3413  0.0741  0.7082
 2056TIP3    H127583   6.352   5.732  17.124 -0.7359  0.1188 -0.4056
 2056TIP3    H227584   6.314   5.586  17.116 -0.7910  0.1033  0.1450
 2057TIP3   OH227585   6.287   2.707  17.227 -0.5530 -0.9729 -0.3771
 2057TIP3    H127586   6.272   2.757  17.307 -0.1727 -1.0937 -0.2290
 2057TIP3    H227587   6.233   2.750  17.161 -0.9632 -0.9478 -0.0283
 2058TIP3   OH227588   4.881   4.132   1.525 -0.0082 -0.1861 -0.6040
 2058TIP3    H127589   4.887   4.162   1.616  1.2526 -1.3504 -0.2901
 2058TIP3    H227590   4.969   4.143   1.490  0.1405 -2.1799 -0.9056
 2059TIP3   OH227591   3.548   4.264   3.497 -0.0376  0.6722  0.3125
 2059TIP3    H127592   3.481   4.197   3.510 -0.4138  1.0938  0.5778
 2059TIP3    H227593   3.631   4.218   3.511 -0.1906 -0.2275 -1.6656
 2060TIP3   OH227594   0.491   3.457   3.844 -0.3490 -0.1503 -0.2171
 2060TIP3    H127595   0.506   3.507   3.924 -4.1386  1.4116 -0.3965
 2060TIP3    H227596   0.503   3.366   3.871  2.4468  0.5304  1.0937
 2061TIP3   OH227597   6.102   6.021  11.135  0.5212 -0.2178 -0.0143
 2061TIP3    H127598   6.101   5.932  11.171  2.2861 -0.0400  0.5343
 2061TIP3    H227599   6.014   6.034  11.100  0.2671 -2.2236 -0.1895
 2062TIP3   OH227600   4.413   4.633  16.455  0.0170  0.3144 -0.5163
 2062TIP3    H127601   4.370   4.570  16.512  3.5186 -1.3844  0.3728
 2062TIP3    H227602   4.369   4.621  16.370 -1.8570 -0.6505  0.5388
 2063TIP3   OH227603   6.357   3.671   1.047 -0.0524  0.4514  0.4129
 2063TIP3    H127604   6.304   3.619   1.108  0.7213  0.2773  0.9335
 2063TIP3    H227605   6.379   3.750   1.096  1.4225 -0.1341  0.7269
 2064TIP3   OH227606   1.726   2.408  16.976 -0.1889 -0.5652 -0.4873
 2064TIP3    H127607   1.679   2.490  16.956 -1.9067 -1.2405  0.6473
 2064TIP3    H227608   1.788   2.432  17.045 -0.1164 -0.0357 -0.7369
 2065TIP3   OH227609   3.840   0.857   1.376 -0.5047 -0.2908  0.2200
 2065TIP3    H127610   3.784   0.934   1.367  0.1916  0.2782  0.7560
 2065TIP3    H227611   3.926   0.892   1.399 -0.3187 -1.2579  1.0005
 2066TIP3   OH227612   5.682   3.327   1.370 -0.5581  0.2905  0.1127
 2066TIP3    H127613   5.742   3.328   1.445 -0.5096 -1.3665  0.1181
 2066TIP3    H227614   5.602   3.367   1.402  0.2523  1.7815  0.3439
 2067TIP3   OH227615   4.237   1.530  14.247 -0.0835 -0.1439  0.3494
 2067TIP3    H127616   4.164   1.485  14.290  0.2357 -1.1708 -0.1740
 2067TIP3    H227617   4.196   1.603  14.200 -0.6031  0.1289  1.2006
 2068TIP3   OH227618   2.817   3.042  13.591  1.0895  0.3926  0.2843
 2068TIP3    H127619   2.903   3.083  13.591  0.5954  1.4498  1.6622
 2068TIP3    H227620   2.763   3.100  13.644  0.1573 -1.5375  1.4903
 2069TIP3   OH227621   2.944   2.928   1.590  0.0905  0.3340 -0.2686
 2069TIP3    H127622   3.033   2.893   1.592 -0.9634 -2.4167  1.6479
 2069TIP3    H227623   2.954   3.021   1.614  2.5778  0.5332 -1.9330
 2070TIP3   OH227624   4.592   2.748  13.898  0.3598  0.3519 -0.2179
 2070TIP3    H127625   4.516   2.737  13.955 -0.0898 -2.0134 -1.1914
 2070TIP3    H227626   4.654   2.681  13.927  0.3352 -0.5322 -2.1024
 2071TIP3   OH227627   1.255   3.639   2.917  0.0733 -0.1381  0.6518
 2071TIP3    H127628   1.342   3.601   2.931  0.0301 -0.1823  0.7992
 2071TIP3    H227629   1.273   3.726   2.881  0.1529 -0.6846 -0.6460
 2072TIP3   OH227630   4.754   2.387   1.632  0.4526 -0.1173 -0.2642
 2072TIP3    H127631   4.660   2.370   1.635  0.4529 -0.0927 -0.1367
 2072TIP3    H227632   4.763   2.481   1.648  0.6042 -0.3780  1.2469
 2073TIP3   OH227633   1.762   2.706   5.589  0.3175  0.1214  0.0895
 2073TIP3    H127634   1.725   2.693   5.502  1.5191 -0.1720 -0.3867
 2073TIP3    H227635   1.715   2.782   5.624 -0.8293 -0.3250 -0.4310
 2074TIP3   OH227636   0.939   2.042   4.439 -0.2491 -0.4712 -0.3414
 2074TIP3    H127637   0.912   1.951   4.446 -1.4295 -0.1803 -1.0302
 2074TIP3    H227638   0.926   2.064   4.346 -1.6306  0.8944  0.1558
 2075TIP3   OH227639   5.462   1.435   6.155 -0.4237  0.2313  0.6674
 2075TIP3    H127640   5.461   1.339   6.161 -3.3149  0.2569  1.1900
 2075TIP3    H227641   5.484   1.464   6.243  0.6859  0.0843  0.4565
 2076TIP3   OH227642   0.945   6.314  15.916 -0.1783 -0.2436  0.6988
 2076TIP3    H127643   1.036   6.306  15.943  1.1933  1.9565 -2.9373
 2076TIP3    H227644   0.935   6.248  15.847 -0.6169  1.1759 -0.6094
 2077TIP3   OH227645   2.345   1.005   0.226  0.4444  0.0697  0.5543
 2077TIP3    H127646   2.426   0.991   0.178  0.9945  2.0647  0.8655
 2077TIP3    H227647   2.356   0.954   0.307  0.8818 -0.5995  0.0789
 2078TIP3   OH227648   4.745   4.816  16.847  0.1763 -0.0123 -0.1494
 2078TIP3    H127649   4.826   4.768  16.826 -0.3148 -1.2518  0.7154
 2078TIP3    H227650   4.685   4.793  16.777  0.2394  0.0797 -0.2328
 2079TIP3   OH227651   5.381   4.581  14.759  0.3635 -0.2000 -0.1328
 2079TIP3    H127652   5.445   4.618  14.699  1.9134 -1.4816  0.6877
 2079TIP3    H227653   5.427   4.577  14.843 -0.5385 -1.8301  0.2978
 2080TIP3   OH227654   4.170   5.161  14.590  0.4556 -0.3718  0.0820
 2080TIP3    H127655   4.098   5.098  14.595  2.4320 -2.6659  0.8101
 2080TIP3    H227656   4.135   5.241  14.630 -1.8381 -1.2646 -0.0565
 2081TIP3   OH227657   5.458   2.167   5.408  0.0607 -0.6603 -0.2303
 2081TIP3    H127658   5.440   2.213   5.490  0.7045 -1.7963  0.5617
 2081TIP3    H227659   5.418   2.221   5.340 -0.2253  0.4379  0.8106
 2082TIP3   OH227660   3.895   6.252   5.222 -0.4234 -0.0748 -0.2555
 2082TIP3    H127661   3.983   6.216   5.207 -0.1883  1.0077 -1.6426
 2082TIP3    H227662   3.856   6.194   5.287  1.5523 -0.2136  0.8665
 2083TIP3   OH227663   2.353   0.968  12.735 -0.5770  0.0702  0.1510
 2083TIP3    H127664   2.424   0.916  12.698  0.4061  0.8499  0.9028
 2083TIP3    H227665   2.276   0.944  12.684  0.0238 -1.5253 -0.0223
 2084TIP3   OH227666   5.491   1.526  13.370 -0.1676  0.5938 -0.5951
 2084TIP3    H127667   5.446   1.517  13.454 -0.9995 -0.1934 -1.1285
 2084TIP3    H227668   5.462   1.611  13.336 -0.0522  0.7826 -0.2224
 2085TIP3   OH227669   6.558   5.177  14.100 -0.3174 -0.1433  0.4462
 2085TIP3    H127670   6.525   5.133  14.022  0.0003  0.2723  0.0724
 2085TIP3    H227671   6.633   5.125  14.127  1.4563  1.4055 -1.3132
 2086TIP3   OH227672   5.585   3.207   4.819  0.1515 -0.2749 -0.4172
 2086TIP3    H127673   5.662   3.264   4.823  1.1767 -1.7550  1.4990
 2086TIP3    H227674   5.619   3.123   4.788 -1.0048 -0.4655 -1.2122
 2087TIP3   OH227675   4.707   0.769  11.866  0.7388  0.1589  0.1778
 2087TIP3    H127676   4.703   0.755  11.771 -0.4139  1.2013  0.0528
 2087TIP3    H227677   4.795   0.802  11.882  0.4733  1.3324 -0.7371
 2088TIP3   OH227678   4.672   6.574   5.580  0.2436 -0.3738 -0.2044
 2088TIP3    H127679   4.643   6.628   5.654  1.0700  0.8519 -0.7672
 2088TIP3    H227680   4.623   6.492   5.590 -1.3184  0.6142  0.4414
 2089TIP3   OH227681   4.820   4.465   1.172 -0.1512 -0.2965  0.4925
 2089TIP3    H127682   4.911   4.493   1.163 -0.4254  0.4868  0.0561
 2089TIP3    H227683   4.821   4.372   1.152  0.7631 -0.5689  1.8339
 2090TIP3   OH227684   1.329   0.783   2.331 -0.0390  0.0947  0.5675
 2090TIP3    H127685   1.252   0.801   2.278  0.4556 -0.7761 -0.4642
 2090TIP3    H227686   1.294   0.766   2.419 -1.1915 -2.0260 -0.2722
 2091TIP3   OH227687   5.738   2.328  14.726 -0.4000 -0.3612  0.0456
 2091TIP3    H127688   5.761   2.264  14.658  0.9693  0.2557 -0.0933
 2091TIP3    H227689   5.799   2.400  14.712  0.1530 -0.3749  2.1517
 2092TIP3   OH227690   4.509   6.546  16.156 -0.1815  0.2893  0.1394
 2092TIP3    H127691   4.423   6.512  16.179  0.0936  0.0013  0.7398
 2092TIP3    H227692   4.555   6.473  16.115 -0.1837  0.4147 -0.0916
 2093TIP3   OH227693   4.744   5.394   0.680 -0.0083 -0.5277 -0.0999
 2093TIP3    H127694   4.720   5.460   0.745  2.5049  0.0384  0.3126
 2093TIP3    H227695   4.758   5.314   0.732 -0.4902 -0.7321 -0.2787
 2094TIP3   OH227696   5.286   1.529  16.880 -0.3690 -0.2323  0.4613
 2094TIP3    H127697   5.372   1.490  16.862 -0.9204 -0.5215 -1.7542
 2094TIP3    H227698   5.296   1.621  16.855 -1.6356 -1.0088 -3.2531
 2095TIP3   OH227699   6.185   6.671  11.863 -0.4739 -0.5297 -0.7395
 2095TIP3    H127700   6.196   6.663  11.958 -0.2934  0.3021 -0.6804
 2095TIP3    H227701   6.252   6.734  11.837 -0.3704 -0.9373 -1.4550
 2096TIP3   OH227702   5.067   0.593   5.357 -0.3877 -0.0316  0.5891
 2096TIP3    H127703   5.162   0.581   5.360 -0.2279  0.8010 -0.7889
 2096TIP3    H227704   5.033   0.525   5.415  1.0915  0.3202  1.9056
 2097TIP3   OH227705   0.328   4.360  11.562  0.9694 -0.4449 -0.1428
 2097TIP3    H127706   0.376   4.277  11.569  1.3578 -0.2780 -0.8408
 2097TIP3    H227707   0.247   4.336  11.516  0.4923 -0.6744  0.7982
 2098TIP3   OH227708   4.408   2.725  13.625 -0.7381 -0.4877  0.3731
 2098TIP3    H127709   4.349   2.798  13.644  0.1644  0.5928 -0.9033
 2098TIP3    H227710   4.468   2.723  13.700 -0.7989  0.0325  0.4371
 2099TIP3   OH227711   6.632   6.564  15.936 -0.1826  0.1006 -0.3976
 2099TIP3    H127712   6.549   6.532  15.900 -0.2529 -0.5012  0.2984
 2099TIP3    H227713   6.626   6.545  16.030  0.2252  1.1744 -0.1463
 2100TIP3   OH227714   1.525   3.030  12.038  0.1846 -0.4600 -0.7018
 2100TIP3    H127715   1.490   3.065  12.120  1.0527  1.3415 -1.0822
 2100TIP3    H227716   1.537   2.937  12.056  0.3951 -0.0844  1.2445
 2101TIP3   OH227717   3.495   6.305  16.803 -0.5415 -0.1872  0.0662
 2101TIP3    H127718   3.566   6.368  16.809 -0.2403 -0.6378  1.2979
 2101TIP3    H227719   3.456   6.321  16.717 -1.0598  2.2882  0.7152
 2102TIP3   OH227720   3.766   5.910  13.613 -0.6419 -0.1008 -0.3303
 2102TIP3    H127721   3.849   5.886  13.654 -1.7085  0.8684  2.4929
 2102TIP3    H227722   3.729   5.827  13.583  0.4445 -0.7599  0.1094
 2103TIP3   OH227723   0.470   3.502   1.959  0.1191  0.0947 -0.1853
 2103TIP3    H127724   0.436   3.467   2.041  0.8588 -1.7307 -0.6287
 2103TIP3    H227725   0.402   3.562   1.928 -0.9828 -0.6077  0.8238
 2104TIP3   OH227726   3.221   2.690  16.296  0.3511 -0.3558 -0.8049
 2104TIP3    H127727   3.267   2.643  16.226 -0.0393 -0.3393 -1.0744
 2104TIP3    H227728   3.133   2.652  16.297  0.3627 -0.3752 -0.3008
 2105TIP3   OH227729   2.806   3.668  11.562 -0.0738 -0.0505  0.3904
 2105TIP3    H127730   2.782   3.580  11.531  1.1025 -0.3428  0.2872
 2105TIP3    H227731   2.871   3.699  11.499  0.7697  0.2025  1.3741
 2106TIP3   OH227732   3.645   2.037  12.293 -0.1852 -0.1129  0.1528
 2106TIP3    H127733   3.709   2.095  12.251 -1.0403  0.8034  0.0693
 2106TIP3    H227734   3.560   2.077  12.272 -0.7451 -0.9373  0.8165
 2107TIP3   OH227735   5.582   3.638  11.913  0.2600 -0.6815 -0.2007
 2107TIP3    H127736   5.618   3.702  11.851  0.8547 -0.8873 -0.0664
 2107TIP3    H227737   5.594   3.679  11.998  1.1971 -1.2408 -0.0649
 2108TIP3   OH227738   4.536   2.845  16.059  0.2150 -0.7167 -0.2368
 2108TIP3    H127739   4.552   2.938  16.077 -1.0898 -0.5368  0.0325
 2108TIP3    H227740   4.619   2.813  16.022  0.9211  0.3675  0.3800
 2109TIP3   OH227741   6.316   2.177  15.751  0.2197 -0.4035 -0.4468
 2109TIP3    H127742   6.403   2.215  15.756  0.1035 -0.2153  0.1446
 2109TIP3    H227743   6.262   2.246  15.713 -0.0511  0.1317  0.9016
 2110TIP3   OH227744   5.910   2.685   6.614 -0.3464 -0.3791 -0.1395
 2110TIP3    H127745   5.853   2.676   6.691 -0.5044 -0.6558 -0.2861
 2110TIP3    H227746   5.849   2.692   6.540 -0.1831 -1.3657 -0.3698
 2111TIP3   OH227747   6.591   4.110   3.319  0.1057 -0.6428 -0.2348
 2111TIP3    H127748   6.574   4.072   3.232 -1.1531 -0.0061 -0.2750
 2111TIP3    H227749   6.675   4.073   3.345  1.2142  0.2716 -2.3690
 2112TIP3   OH227750   4.627   6.572  10.775 -0.3450 -0.2292  0.0191
 2112TIP3    H127751   4.597   6.632  10.843 -4.1989 -1.4167 -0.5490
 2112TIP3    H227752   4.709   6.610  10.744 -0.6793  2.5782  2.3962
 2113TIP3   OH227753   5.003   2.630   1.707 -0.3931  1.0751  0.2653
 2113TIP3    H127754   5.028   2.679   1.785 -0.0850 -0.0787  0.9058
 2113TIP3    H227755   4.910   2.649   1.695 -0.7022  0.4206  1.5439
 2114TIP3   OH227756   3.844   1.655   2.337 -0.4405 -0.7273  0.0636
 2114TIP3    H127757   3.758   1.643   2.378 -0.2978 -0.4432  0.4563
 2114TIP3    H227758   3.833   1.622   2.248 -0.8792 -0.9501  0.1972
 2115TIP3   OH227759   0.200   5.356   0.706 -0.1500  0.3460  0.3982
 2115TIP3    H127760   0.295   5.369   0.701  0.1982 -2.4083 -1.1059
 2115TIP3    H227761   0.163   5.443   0.688  2.0658  1.7057  2.1592
 2116TIP3   OH227762   1.844   4.454   1.726  0.0919  0.4704  0.0652
 2116TIP3    H127763   1.873   4.371   1.763 -0.4425  0.6107  0.8279
 2116TIP3    H227764   1.814   4.433   1.638 -0.4448 -0.2277  0.4075
 2117TIP3   OH227765   2.023   2.754   3.728 -0.1183 -0.2192  0.3296
 2117TIP3    H127766   2.104   2.704   3.740 -0.1767 -0.3191  0.3078
 2117TIP3    H227767   2.052   2.845   3.722 -0.0347 -0.2219  0.6501
 2118TIP3   OH227768   4.970   6.598   3.768 -0.0741  0.4319  0.0254
 2118TIP3    H127769   4.976   6.503   3.755  0.5733  0.5063 -0.2323
 2118TIP3    H227770   5.057   6.631   3.745 -0.9821  1.3758 -2.2300
 2119TIP3   OH227771   0.953   2.768   1.313 -0.2954  0.3699 -0.1638
 2119TIP3    H127772   0.962   2.798   1.404 -3.0880 -2.8831  1.2868
 2119TIP3    H227773   1.036   2.723   1.295 -0.2725 -0.2246  1.3235
 2120TIP3   OH227774   3.255   4.450  11.902  0.5717 -0.0199  0.3227
 2120TIP3    H127775   3.218   4.522  11.953  0.4225  0.7271 -0.8087
 2120TIP3    H227776   3.224   4.466  11.812 -1.2872 -2.7171  0.4078
 2121TIP3   OH227777   2.565   5.104   1.259  0.2662 -0.4533  0.2901
 2121TIP3    H127778   2.632   5.151   1.309 -0.4460  1.4032 -0.4551
 2121TIP3    H227779   2.615   5.055   1.193  0.9641  0.0073  0.4684
 2122TIP3   OH227780   6.650   4.525  15.576 -0.0102 -0.1076 -0.1975
 2122TIP3    H127781   6.602   4.569  15.506 -1.3845 -0.0087  0.7913
 2122TIP3    H227782   6.669   4.438  15.541 -2.3279 -0.7194 -0.0092
 2123TIP3   OH227783   2.451   6.279   3.078 -0.0404 -0.1668  0.2460
 2123TIP3    H127784   2.415   6.246   2.996  0.5285  0.0045 -0.0708
 2123TIP3    H227785   2.407   6.363   3.091 -2.0713 -1.3555  1.4440
 2124TIP3   OH227786   4.858   2.257   1.369  0.0425 -0.0325  0.3511
 2124TIP3    H127787   4.831   2.203   1.294  0.6414  0.0647  0.0653
 2124TIP3    H227788   4.782   2.313   1.386  0.0746  0.2905 -0.5030
 2125TIP3   OH227789   5.996   4.527  15.862 -0.0222 -0.1834 -0.5126
 2125TIP3    H127790   5.970   4.435  15.851  0.3195 -0.5939  1.9882
 2125TIP3    H227791   5.913   4.573  15.877  0.1005 -0.5730  1.4042
 2126TIP3   OH227792   5.518   4.951  12.983 -0.0949 -0.5926  0.2789
 2126TIP3    H127793   5.485   4.861  12.990 -1.1666 -0.1001  1.6422
 2126TIP3    H227794   5.455   4.995  12.926  0.6216 -0.7669 -0.6801
 2127TIP3   OH227795   3.272   3.610   0.831 -0.2495  0.6298  0.1650
 2127TIP3    H127796   3.279   3.590   0.738 -1.5358 -0.2514  0.2517
 2127TIP3    H227797   3.284   3.525   0.874  1.6911  1.2360  0.8789
 2128TIP3   OH227798   1.473   6.756   0.611  0.1020 -0.1049  0.3395
 2128TIP3    H127799   1.472   6.674   0.563 -0.0753 -0.5490  1.0919
 2128TIP3    H227800   1.535   6.812   0.563 -2.4907  0.6123 -2.2678
 2129TIP3   OH227801   2.028   4.747  14.378  0.5196 -0.3029  0.3815
 2129TIP3    H127802   1.986   4.670  14.341  0.5546  0.9517 -2.4100
 2129TIP3    H227803   1.962   4.816  14.371  1.2458  0.4457  0.8066
 2130TIP3   OH227804   3.648   6.520   5.267  0.2120 -0.1189 -0.1269
 2130TIP3    H127805   3.554   6.505   5.272  0.0473  1.3774  1.4190
 2130TIP3    H227806   3.685   6.460   5.332  0.1449  0.9169  0.8654
 2131TIP3   OH227807   4.865   4.320  13.356  0.2582  0.1276 -0.2944
 2131TIP3    H127808   4.907   4.400  13.326  0.8824 -0.1349 -0.1276
 2131TIP3    H227809   4.868   4.261  13.281  0.6867 -0.0870 -0.1068
 2132TIP3   OH227810   4.823   0.453  15.194  0.0650 -0.4507 -0.1075
 2132TIP3    H127811   4.831   0.462  15.289 -1.1326  0.6484 -0.0861
 2132TIP3    H227812   4.729   0.463  15.177 -0.2641 -4.1029 -1.0738
 2133TIP3   OH227813   0.079   4.458   3.396  0.3896 -0.1528 -0.6155
 2133TIP3    H127814  -0.012   4.473   3.421  0.6649 -0.2134  0.4520
 2133TIP3    H227815   0.104   4.379   3.443  0.8545 -0.4098 -1.2832
 2134TIP3   OH227816   0.961   2.268  16.220  0.0610 -0.0282  0.1802
 2134TIP3    H127817   0.868   2.252  16.210  0.3274 -0.4659 -1.8301
 2134TIP3    H227818   1.003   2.198  16.169  1.4028  1.9125 -1.4369
 2135TIP3   OH227819   2.943   4.773   2.946  0.2029  0.3214  0.3321
 2135TIP3    H127820   2.901   4.829   3.013 -1.1035  0.5724 -0.6621
 2135TIP3    H227821   2.987   4.835   2.888  1.3349  0.1043  0.9631
 2136TIP3   OH227822   1.522   5.846  13.324  0.2616 -0.4431 -0.0422
 2136TIP3    H127823   1.432   5.813  13.323  0.7798 -2.0523  2.3691
 2136TIP3    H227824   1.524   5.910  13.253 -3.3896  1.1984  1.1446
 2137TIP3   OH227825   5.344   6.776  14.056  0.1921  0.4384  0.2102
 2137TIP3    H127826   5.421   6.721  14.071 -0.2366  0.6253  3.3787
 2137TIP3    H227827   5.271   6.726  14.092 -0.6696  1.6976  0.2592
 2138TIP3   OH227828   6.630   0.088   5.037  0.6111 -0.0178  0.3476
 2138TIP3    H127829   6.633   0.067   4.943  1.7402  1.0688  0.1298
 2138TIP3    H227830   6.721   0.083   5.066 -0.0068 -2.6889  1.9489
 2139TIP3   OH227831   2.612   0.040   2.187  0.2441  0.7772 -0.4495
 2139TIP3    H127832   2.592   0.065   2.096 -0.5224  0.5286 -0.3528
 2139TIP3    H227833   2.557  -0.037   2.203  2.5539 -0.9740 -0.7423
 2140TIP3   OH227834   6.775   3.768  14.512 -0.0502  0.2508  0.5497
 2140TIP3    H127835   6.760   3.862  14.498 -0.1676  0.1930  0.2770
 2140TIP3    H227836   6.860   3.764  14.556  0.9825  0.3857 -1.3700
 2141TIP3   OH227837   2.423   4.885   6.209  0.5032  0.2798 -0.1955
 2141TIP3    H127838   2.394   4.933   6.132  0.1125  1.0554  0.4196
 2141TIP3    H227839   2.466   4.951   6.263 -1.1336  0.2272  1.2316
 2142TIP3   OH227840   1.031   6.499  15.703 -0.5154 -0.7898  0.0228
 2142TIP3    H127841   1.010   6.568  15.767 -0.3085 -1.8870  1.3102
 2142TIP3    H227842   1.042   6.420  15.757  0.5096 -1.5633 -1.3036
 2143TIP3   OH227843   4.087   3.083   3.361 -0.2927  0.4774 -0.2117
 2143TIP3    H127844   4.055   3.143   3.294 -1.3567  1.7227  1.3851
 2143TIP3    H227845   4.009   3.044   3.399  0.3455 -1.0274 -0.4213
 2144TIP3   OH227846   6.461   4.726   5.036 -0.0718 -0.3681 -0.0098
 2144TIP3    H127847   6.509   4.805   5.059 -0.0705  0.1514 -1.7367
 2144TIP3    H227848   6.370   4.747   5.057 -0.1371  0.2766 -0.9047
 2145TIP3   OH227849   1.303   4.137   2.805  0.0455  0.6904  0.3368
 2145TIP3    H127850   1.235   4.103   2.747  3.1184 -2.4394 -1.6753
 2145TIP3    H227851   1.264   4.136   2.892 -3.4225  1.8759 -1.1323
 2146TIP3   OH227852   2.499   4.328  14.110 -0.1162  0.5600  0.3832
 2146TIP3    H127853   2.487   4.233  14.121  0.4610  0.2501 -1.5335
 2146TIP3    H227854   2.568   4.350  14.173 -1.2943 -0.0012  1.9133
 2147TIP3   OH227855   5.559   5.395   0.267  0.5648  0.1555  0.5227
 2147TIP3    H127856   5.497   5.463   0.291 -1.5125 -1.5381  0.1039
 2147TIP3    H227857   5.541   5.378   0.174  0.5189 -1.4797  0.8147
 2148TIP3   OH227858   0.880   3.062   3.463 -0.3875 -0.0434 -0.5908
 2148TIP3    H127859   0.791   3.059   3.429 -0.4748 -1.0557 -0.2762
 2148TIP3    H227860   0.876   3.015   3.546  0.2947  0.5047 -0.2344
 2149TIP3   OH227861   1.875   2.846   2.353  0.3037  0.7746 -0.0944
 2149TIP3    H127862   1.858   2.826   2.261  0.1819  1.3382 -0.1968
 2149TIP3    H227863   1.954   2.900   2.351  0.7381  0.1526  0.1911
 2150TIP3   OH227864   2.536   0.689   0.674 -0.1338 -0.5793  0.1124
 2150TIP3    H127865   2.528   0.762   0.736 -0.1164  0.5224 -1.1682
 2150TIP3    H227866   2.447   0.655   0.666 -0.5127  0.6202 -0.8592
 2151TIP3   OH227867   2.779   1.306  16.378  0.2812  0.2503  0.2866
 2151TIP3    H127868   2.721   1.242  16.419  1.6362 -2.0976 -1.3651
 2151TIP3    H227869   2.721   1.365  16.330 -0.8285 -0.9454  0.1551
 2152TIP3   OH227870   2.027   6.462  14.584 -0.8263 -0.2467  0.2150
 2152TIP3    H127871   1.985   6.540  14.547 -0.6706 -0.3787 -0.2436
 2152TIP3    H227872   2.064   6.491  14.667 -0.1754  0.3315 -0.2741
 2153TIP3   OH227873   6.442   0.209  17.152  0.0096 -0.1362 -0.2527
 2153TIP3    H127874   6.514   0.154  17.182 -1.3718 -1.6558  0.4102
 2153TIP3    H227875   6.469   0.241  17.066  2.4105  1.1538  0.9338
 2154TIP3   OH227876   4.266   1.562   2.821 -0.2047 -0.3751  0.1518
 2154TIP3    H127877   4.294   1.628   2.758  0.5458 -0.5771  0.2663
 2154TIP3    H227878   4.170   1.567   2.820 -0.1618  0.4736 -0.0877
 2155TIP3   OH227879   6.125   0.056  12.539  0.3938 -0.2125 -0.4370
 2155TIP3    H127880   6.057   0.076  12.475  0.0719 -0.7264 -0.2569
 2155TIP3    H227881   6.091   0.092  12.622  0.4245 -0.3079 -0.3831
 2156TIP3   OH227882   3.561   6.095  14.918  0.0283  0.4789 -0.0430
 2156TIP3    H127883   3.580   6.105  15.012  2.2756 -0.3004 -0.3899
 2156TIP3    H227884   3.466   6.105  14.912 -0.0717  1.2696  2.2230
 2157TIP3   OH227885   0.453   3.665   4.911  0.6155  0.5507  0.1324
 2157TIP3    H127886   0.455   3.576   4.947 -1.9542 -0.2657 -1.6176
 2157TIP3    H227887   0.386   3.711   4.961  0.9173  1.0683  0.0674
 2158TIP3   OH227888   1.075   1.814  13.975  0.3204 -0.4408  0.0381
 2158TIP3    H127889   1.167   1.824  13.997  0.8391 -0.4504 -2.0046
 2158TIP3    H227890   1.051   1.895  13.931 -0.2326 -1.0083 -0.7390
 2159TIP3   OH227891   3.881   0.077  11.335 -0.1176 -0.4104 -0.1304
 2159TIP3    H127892   3.921   0.144  11.279 -0.6518  0.6370  0.7114
 2159TIP3    H227893   3.788   0.099  11.336 -0.0731 -0.2245  1.4003
 2160TIP3   OH227894   0.909   0.260   1.415  0.5038  0.4399  0.0598
 2160TIP3    H127895   0.844   0.198   1.448  1.2151 -0.2879  0.1032
 2160TIP3    H227896   0.879   0.282   1.327  0.5558 -0.4069 -0.1700
 2161TIP3   OH227897   3.701   2.965   2.030  0.1499  0.0341 -0.3630
 2161TIP3    H127898   3.641   2.962   1.956  0.6235 -1.4348 -0.7075
 2161TIP3    H227899   3.685   2.884   2.078 -0.2886  1.0686  1.2670
 2162TIP3   OH227900   2.454   1.701   5.272 -0.5047  0.2630 -0.1238
 2162TIP3    H127901   2.420   1.637   5.334 -1.0486 -0.3590 -1.0438
 2162TIP3    H227902   2.535   1.733   5.312 -0.8532 -0.1298  0.8963
 2163TIP3   OH227903   2.693   0.626   0.458  0.1770  0.1895  0.6340
 2163TIP3    H127904   2.626   0.641   0.525 -1.0700 -0.2415 -0.4967
 2163TIP3    H227905   2.722   0.536   0.473 -0.2839  0.0076  0.4341
 2164TIP3   OH227906   6.163   5.177  12.930 -0.2921 -0.2410  0.1202
 2164TIP3    H127907   6.074   5.156  12.959 -0.7744 -0.7155 -1.6542
 2164TIP3    H227908   6.191   5.100  12.880  0.4916  0.5650 -0.7062
 2165TIP3   OH227909   0.623   0.961   2.498  0.2659 -0.0293 -0.1587
 2165TIP3    H127910   0.668   0.894   2.551  1.0585  0.5892 -0.0403
 2165TIP3    H227911   0.578   0.911   2.431 -0.3985 -0.7953  0.8405
 2166TIP3   OH227912   6.303   0.820   0.356 -0.2440 -0.1409 -0.3207
 2166TIP3    H127913   6.396   0.802   0.340 -0.2408  0.1240 -0.6034
 2166TIP3    H227914   6.268   0.738   0.391  0.0942 -0.2436 -0.2224
 2167TIP3   OH227915   4.916   6.057  11.976 -0.0483  0.3905 -0.2448
 2167TIP3    H127916   4.929   5.967  11.948  0.9188 -0.0327  1.4633
 2167TIP3    H227917   5.003   6.098  11.967  0.0035  0.5635  0.9429
 2168TIP3   OH227918   5.220   6.480   2.964  0.6189 -0.0114  0.0175
 2168TIP3    H127919   5.182   6.508   3.048  0.6205 -1.4528  0.5155
 2168TIP3    H227920   5.150   6.493   2.901  0.7434  1.4584  0.1656
 2169TIP3   OH227921   4.624   0.242  12.812 -0.1373 -0.4422 -0.0910
 2169TIP3    H127922   4.621   0.147  12.816  1.5024 -0.5677 -1.2904
 2169TIP3    H227923   4.704   0.266  12.857 -0.4433  0.3657  0.0386
 2170TIP3   OH227924   4.619   0.312   0.101  0.3317  0.0951 -0.4550
 2170TIP3    H127925   4.692   0.335   0.044 -1.3338 -2.1159 -3.6741
 2170TIP3    H227926   4.564   0.254   0.048 -2.6487 -0.0707  2.5823
 2171TIP3   OH227927   1.998   3.983  11.309  0.2095 -0.6198  0.4789
 2171TIP3    H127928   2.002   4.031  11.392  0.7452  0.0127  0.0968
 2171TIP3    H227929   2.013   4.050  11.242 -3.6634 -0.4751 -0.3398
 2172TIP3   OH227930   2.105   6.129  15.646 -0.4903 -0.3942 -0.0536
 2172TIP3    H127931   2.065   6.091  15.724 -0.3957 -1.3919 -0.4765
 2172TIP3    H227932   2.184   6.172  15.678 -0.0669 -1.4281  0.3118
 2173TIP3   OH227933   3.673   2.005  13.858 -0.1643  0.2157  0.3515
 2173TIP3    H127934   3.673   2.066  13.932  0.0760  0.8633 -0.1708
 2173TIP3    H227935   3.760   2.014  13.820 -0.4984  0.3810 -0.3986
 2174TIP3   OH227936   5.996   1.583  13.852 -0.0780  0.0913  0.6919
 2174TIP3    H127937   5.997   1.664  13.801 -0.9702 -0.6038 -0.4331
 2174TIP3    H227938   6.002   1.612  13.943  2.4796  1.3119  0.1914
 2175TIP3   OH227939   4.950   2.162   3.228 -0.0624 -0.5980 -0.2280
 2175TIP3    H127940   4.972   2.136   3.318 -0.5654 -2.8979 -0.7251
 2175TIP3    H227941   5.020   2.123   3.175 -0.4664 -0.3319 -0.9504
 2176TIP3   OH227942   6.651   3.609  12.236 -0.7697 -0.2178 -0.4479
 2176TIP3    H127943   6.575   3.568  12.194 -0.2496 -0.6580 -0.9563
 2176TIP3    H227944   6.624   3.621  12.327 -0.8852 -1.7989 -0.2594
 2177TIP3   OH227945   2.745   2.596   5.061 -0.6277  0.6277 -0.2901
 2177TIP3    H127946   2.798   2.567   4.986  0.4822  1.0501  0.3216
 2177TIP3    H227947   2.807   2.602   5.133 -1.8683 -0.6210  0.8881
 2178TIP3   OH227948   6.583   4.612   1.580 -0.0112 -0.0236  0.3444
 2178TIP3    H127949   6.622   4.699   1.569  1.0781 -0.5237  0.2117
 2178TIP3    H227950   6.490   4.625   1.561  0.3096  0.9324 -0.6237
 2179TIP3   OH227951   0.852   4.030   3.410 -0.6760  0.2831 -0.4688
 2179TIP3    H127952   0.842   4.119   3.443  0.1090  0.3238 -0.3367
 2179TIP3    H227953   0.842   3.975   3.488 -3.0763  0.1356 -0.8447
 2180TIP3   OH227954   6.542   4.701  11.384  0.3167  0.3471 -0.1245
 2180TIP3    H127955   6.451   4.728  11.369 -0.3992 -1.1617  1.3649
 2180TIP3    H227956   6.568   4.747  11.463  1.0725  1.2452 -0.8798
 2181TIP3   OH227957   1.984   2.080   0.605  0.3193 -0.5492  0.2618
 2181TIP3    H127958   1.960   2.034   0.525 -1.1015  0.8053 -0.1063
 2181TIP3    H227959   1.901   2.113   0.640  1.4732  3.6191 -0.6674
 2182TIP3   OH227960   2.602   4.815  15.750 -0.2486 -0.4589  0.1765
 2182TIP3    H127961   2.510   4.818  15.723  0.3221  0.6620 -1.7383
 2182TIP3    H227962   2.633   4.729  15.724 -0.1334  0.0365 -1.3855
 2183TIP3   OH227963   0.074   5.008   0.443 -0.2356  0.2157  0.1229
 2183TIP3    H127964   0.045   5.058   0.367 -0.0451 -0.1428 -0.1862
 2183TIP3    H227965   0.121   4.933   0.406  1.0027  0.7317  0.6123
 2184TIP3   OH227966   1.865   3.836   0.408  0.1664  0.1518 -0.0753
 2184TIP3    H127967   1.910   3.879   0.335 -1.2035  0.5132 -0.7266
 2184TIP3    H227968   1.826   3.908   0.458 -1.1161 -0.2424 -0.4874
 2185TIP3   OH227969   6.660   1.459  15.164 -0.3419 -0.4907 -0.1263
 2185TIP3    H127970   6.618   1.428  15.084 -1.3189 -0.8120  0.4948
 2185TIP3    H227971   6.737   1.404  15.174 -0.4617 -0.7519 -0.6008
 2186TIP3   OH227972   6.015   0.438  14.835  0.1159  0.0520  0.1691
 2186TIP3    H127973   5.989   0.346  14.848  0.6838 -0.1527 -0.1308
 2186TIP3    H227974   6.062   0.461  14.914 -0.2028  0.1510  0.3308
 2187TIP3   OH227975   1.896   5.393   0.495 -0.4779 -0.1730  0.2309
 2187TIP3    H127976   1.930   5.458   0.557  0.1649  0.4597 -0.7633
 2187TIP3    H227977   1.805   5.379   0.522 -0.5705  1.0176  0.5579
 2188TIP3   OH227978   4.890   5.678   3.277  0.1298  0.6618 -0.5963
 2188TIP3    H127979   4.856   5.644   3.360  1.4635  0.1562 -0.2290
 2188TIP3    H227980   4.855   5.619   3.210  0.4749  0.0092 -0.2072
 2189TIP3   OH227981   4.306   3.609  13.016  0.0204 -0.0063 -0.4118
 2189TIP3    H127982   4.296   3.561  12.934 -0.0199 -0.1760 -0.3063
 2189TIP3    H227983   4.223   3.597  13.061 -0.4571  1.1875 -0.9358
 2190TIP3   OH227984   5.842   3.550  14.992  0.1748 -0.4916 -0.2166
 2190TIP3    H127985   5.788   3.588  15.061 -1.3734 -1.5222 -0.8475
 2190TIP3    H227986   5.857   3.623  14.932 -0.7041 -0.2524 -0.1575
 2191TIP3   OH227987   1.348   3.396   4.883  0.2324  0.0041 -0.5045
 2191TIP3    H127988   1.419   3.377   4.945 -0.4460 -0.4925  0.1346
 2191TIP3    H227989   1.392   3.410   4.799  1.2059  1.0800  0.1629
 2192TIP3   OH227990   2.645   6.076  15.096 -0.2425  0.1746 -0.9119
 2192TIP3    H127991   2.619   5.991  15.131  1.1089 -0.7150 -2.0293
 2192TIP3    H227992   2.658   6.130  15.174 -1.3576 -0.5486 -0.1985
 2193TIP3   OH227993   4.101   1.372   1.103  0.7160 -0.2302  0.1316
 2193TIP3    H127994   4.168   1.312   1.071  1.3950  0.4620  0.2424
 2193TIP3    H227995   4.064   1.413   1.025  2.3303  1.4145  0.2004
 2194TIP3   OH227996   2.638   0.295   6.293  0.6143  0.0327 -0.8269
 2194TIP3    H127997   2.657   0.251   6.211 -1.2863 -0.6963 -0.9027
 2194TIP3    H227998   2.574   0.362   6.270 -1.3744 -1.4051  0.3314
 2195TIP3   OH227999   5.715   2.217  13.627  0.3180 -0.5666  0.1370
 2195TIP3    H128000   5.778   2.145  13.616 -0.2740 -1.2832  1.3309
 2195TIP3    H228001   5.736   2.255  13.712 -0.8205 -0.7699  0.5176
 2196TIP3   OH228002   3.456   4.616   6.797 -0.2442 -0.2826  0.4646
 2196TIP3    H128003   3.453   4.542   6.735  0.5870 -0.1668  0.2719
 2196TIP3    H228004   3.377   4.666   6.779  1.3413  1.3034 -2.4909
 2197TIP3   OH228005   5.301   1.371   5.761 -0.3963  0.0677  0.1075
 2197TIP3    H128006   5.279   1.435   5.829  0.4662  0.6689 -0.1690
 2197TIP3    H228007   5.392   1.392   5.737 -0.7073 -0.1099 -1.2637
 2198TIP3   OH228008   0.690   3.156  16.474 -0.0062 -0.4275 -0.3928
 2198TIP3    H128009   0.764   3.140  16.533  0.5769 -1.5860 -1.4145
 2198TIP3    H228010   0.719   3.229  16.420  0.7935 -1.4846 -1.4206
 2199TIP3   OH228011   3.543   3.025  14.738  0.2510  0.7375 -0.3145
 2199TIP3    H128012   3.545   2.955  14.672 -0.9562  0.6597 -0.2899
 2199TIP3    H228013   3.560   2.979  14.821 -0.2446  0.5133 -0.3336
 2200TIP3   OH228014   2.961   6.327   5.077  0.1815 -0.6587  0.2681
 2200TIP3    H128015   2.946   6.258   5.142 -0.3313 -1.0941 -0.3019
 2200TIP3    H228016   2.887   6.319   5.017  1.9791 -1.9856 -1.8657
 2201TIP3   OH228017   2.085   1.131   2.497 -0.4919 -0.0669 -0.1400
 2201TIP3    H128018   2.072   1.110   2.405  1.8394  2.0328 -0.9877
 2201TIP3    H228019   2.042   1.060   2.544  1.1295 -2.9584 -2.8605
 2202TIP3   OH228020   5.132   2.419   1.600 -0.1299  0.1161  0.1143
 2202TIP3    H128021   5.108   2.510   1.613  2.7486  1.0310 -0.7232
 2202TIP3    H228022   5.058   2.382   1.551 -0.9888  2.1640 -0.1970
 2203TIP3   OH228023   0.663   1.971  15.230 -0.2202  0.9143 -0.0348
 2203TIP3    H128024   0.586   1.917  15.247 -0.7461  2.0920  1.5043
 2203TIP3    H228025   0.729   1.938  15.291  0.3590  0.1944 -1.0457
 2204TIP3   OH228026   5.904   4.852  13.964 -0.6769 -0.1183  0.9277
 2204TIP3    H128027   5.998   4.861  13.947  0.0173 -0.7782  4.0433
 2204TIP3    H228028   5.862   4.908  13.898  1.9638  1.2926  0.3709
 2205TIP3   OH228029   4.309   2.044   0.297  0.1000  1.3716  0.6331
 2205TIP3    H128030   4.229   2.001   0.328 -0.3869  0.7549 -1.4481
 2205TIP3    H228031   4.374   2.026   0.365  0.3633 -3.9544 -0.8230
 2206TIP3   OH228032   3.559   2.260   0.966 -0.7244  0.2713 -0.7448
 2206TIP3    H128033   3.491   2.326   0.981 -1.2007 -0.5755  0.9850
 2206TIP3    H228034   3.524   2.206   0.895 -1.4583  0.3788 -0.4780
 2207TIP3   OH228035   4.903   3.892  14.615  0.4306  0.1061 -0.1209
 2207TIP3    H128036   4.950   3.964  14.658 -0.6706  2.4285 -2.6347
 2207TIP3    H228037   4.948   3.882  14.531 -0.2952 -1.2476 -0.3588
 2208TIP3   OH228038   4.632   6.502  15.707  0.6200 -0.8221 -0.3075
 2208TIP3    H128039   4.588   6.467  15.785 -0.7922  0.4140 -0.5233
 2208TIP3    H228040   4.597   6.450  15.634  1.7546 -1.8108 -0.1656
 2209TIP3   OH228041   4.697   4.206  14.203 -0.8433 -0.0359 -0.0547
 2209TIP3    H128042   4.736   4.165  14.126 -0.8561  0.7626 -0.4952
 2209TIP3    H228043   4.755   4.181  14.275  2.3047  3.5590 -1.1237
 2210TIP3   OH228044   1.740   2.101  11.137 -1.1370  0.1871 -0.0925
 2210TIP3    H128045   1.655   2.059  11.145 -1.4981  0.9892  0.2806
 2210TIP3    H228046   1.751   2.116  11.043 -1.0319 -0.6778 -0.2240
 2211TIP3   OH228047   6.688   1.659   3.889 -0.1153  0.3642  0.4436
 2211TIP3    H128048   6.696   1.750   3.919  1.3173  0.4719 -0.2381
 2211TIP3    H228049   6.697   1.664   3.794 -1.6034 -0.3227  0.2575
 2212TIP3   OH228050   1.265   5.261  13.376  0.0271 -0.2378 -0.4382
 2212TIP3    H128051   1.272   5.169  13.403  1.8796  0.0519  0.1311
 2212TIP3    H228052   1.308   5.264  13.290 -0.8147 -0.0717 -0.8518
 2213TIP3   OH228053   0.352   6.538   6.432  0.1959  0.1309 -0.1770
 2213TIP3    H128054   0.438   6.522   6.470  0.3609  0.8713 -0.2175
 2213TIP3    H228055   0.370   6.566   6.342 -0.1835 -1.4247 -0.7537
 2214TIP3   OH228056   4.493   5.842   5.130 -0.3205  0.6143 -0.3727
 2214TIP3    H128057   4.459   5.879   5.211  2.0222  1.6345  0.2108
 2214TIP3    H228058   4.472   5.907   5.063 -1.4930  0.1760 -0.4383
 2215TIP3   OH228059   5.842   3.197  14.678 -0.1337 -0.0100 -0.0033
 2215TIP3    H128060   5.756   3.237  14.668 -0.0592 -0.1194 -1.1807
 2215TIP3    H228061   5.856   3.191  14.773 -0.8385  1.2536  0.1863
 2216TIP3   OH228062   4.240   2.388  11.462 -0.4143  0.5556 -0.0084
 2216TIP3    H128063   4.203   2.378  11.550 -0.1256  3.7133  0.5370
 2216TIP3    H228064   4.334   2.369  11.473 -0.6990 -0.8977 -0.0339
 2217TIP3   OH228065   3.666   5.860   3.232  0.4058  0.2726  0.0564
 2217TIP3    H128066   3.759   5.837   3.226  0.7738  0.8903  2.8647
 2217TIP3    H228067   3.629   5.794   3.290 -0.6950  0.6736 -0.1790
 2218TIP3   OH228068   6.657   5.597   2.531 -0.0740 -0.4246 -0.0448
 2218TIP3    H128069   6.567   5.566   2.530  0.0049 -0.6418 -1.3305
 2218TIP3    H228070   6.670   5.637   2.445  1.3330 -1.2668 -0.2500
 2219TIP3   OH228071   3.677   3.843   3.491  0.3518 -0.2557  0.4686
 2219TIP3    H128072   3.673   3.881   3.579 -0.3469  1.3935 -0.2738
 2219TIP3    H228073   3.762   3.872   3.457  1.1564 -1.8850  1.0283
 2220TIP3   OH228074   0.342   5.199  16.511 -0.0997  0.5453 -0.3871
 2220TIP3    H128075   0.273   5.174  16.449  0.4225 -0.6404 -0.5072
 2220TIP3    H228076   0.386   5.116  16.532 -0.2346  0.9248  1.5237
 2221TIP3   OH228077   2.575   3.955   2.009  0.1540 -0.9116  0.5065
 2221TIP3    H128078   2.495   3.974   1.960  1.1710 -2.7787 -2.0204
 2221TIP3    H228079   2.545   3.913   2.089 -1.4622 -0.0608  0.3649
 2222TIP3   OH228080   5.324   0.639   6.235  0.1982 -0.7966  0.7433
 2222TIP3    H128081   5.364   0.726   6.237 -1.9406  0.2580 -0.6062
 2222TIP3    H228082   5.398   0.579   6.246  1.7337  1.1659  1.4917
 2223TIP3   OH228083   5.902   1.280   2.284 -0.3442 -0.3344 -0.0300
 2223TIP3    H128084   5.969   1.226   2.242 -0.6408  0.0319 -0.9703
 2223TIP3    H228085   5.947   1.362   2.303 -0.3855 -0.2754 -0.1891
 2224TIP3   OH228086   3.080   1.082  15.756  0.0722  0.4109  0.3872
 2224TIP3    H128087   3.140   1.110  15.686 -1.6850  0.0977 -1.2728
 2224TIP3    H228088   3.016   1.027  15.711 -2.1087  1.6261  1.9601
 2225TIP3   OH228089   6.402   0.030  11.452  0.2364  0.2596  0.3140
 2225TIP3    H128090   6.350   0.045  11.373 -0.7246 -1.4645  0.5987
 2225TIP3    H228091   6.492   0.048  11.426 -0.0300 -0.6239 -1.2754
 2226TIP3   OH228092   5.837   3.797  14.859  0.3634  0.6492  0.1854
 2226TIP3    H128093   5.847   3.789  14.764 -0.6221 -3.6514  0.3004
 2226TIP3    H228094   5.786   3.876  14.872  0.4754  1.2709 -2.8885
 2227TIP3   OH228095   5.366   1.736  12.711  0.5214 -0.2801  0.4354
 2227TIP3    H128096   5.393   1.666  12.652  2.8930  1.5324 -0.7271
 2227TIP3    H228097   5.411   1.814  12.677 -1.2873  1.6032  2.2576
 2228TIP3   OH228098   3.658   4.635   2.245 -0.1676 -0.4955  0.4497
 2228TIP3    H128099   3.633   4.697   2.313 -0.7811 -0.5468  0.2751
 2228TIP3    H228100   3.690   4.559   2.293  1.1376  0.1654  0.6613
 2229TIP3   OH228101   0.749   1.161  11.648  0.5234  0.0867 -0.3327
 2229TIP3    H128102   0.669   1.208  11.672  0.1914  0.2379 -1.7458
 2229TIP3    H228103   0.738   1.138  11.556  2.2002  0.2817 -0.6014
 2230TIP3   OH228104   5.398   3.801  16.684  0.0453  0.0404  0.2131
 2230TIP3    H128105   5.465   3.735  16.665 -0.4834 -1.0122  1.8665
 2230TIP3    H228106   5.338   3.796  16.609  1.3897  0.4777 -0.9201
 2231TIP3   OH228107   4.297   3.060  15.235  0.1421  0.1772  0.2368
 2231TIP3    H128108   4.371   3.026  15.285  0.6674 -0.1048 -0.7157
 2231TIP3    H228109   4.230   2.992  15.241  0.1128  0.2498  0.7528
 2232TIP3   OH228110   5.809   0.842  13.505 -0.7008 -0.4165  0.0835
 2232TIP3    H128111   5.722   0.810  13.483 -0.6504  0.6949 -1.8121
 2232TIP3    H228112   5.793   0.928  13.544 -0.4420 -0.0915 -0.5244
 2233TIP3   OH228113   0.179   4.765  15.816  0.2549  0.0139  0.3182
 2233TIP3    H128114   0.188   4.855  15.784 -2.4138  0.7484  1.5275
 2233TIP3    H228115   0.239   4.714  15.762 -0.2920  2.0535 -2.2736
 2234TIP3   OH228116   2.828   5.260  10.977  0.3182  0.1835  0.0444
 2234TIP3    H128117   2.798   5.207  11.051 -0.2339 -1.8820 -1.5954
 2234TIP3    H228118   2.785   5.344  10.989  1.1089  0.2564  2.6487
 2235TIP3   OH228119   6.036   6.268  16.537 -0.2114  0.8822 -0.1304
 2235TIP3    H128120   6.030   6.242  16.445  2.3232  0.8364 -0.3112
 2235TIP3    H228121   6.088   6.199  16.578 -2.7080  0.0239  1.7304
 2236TIP3   OH228122   2.247   5.726  12.721 -0.1748  0.3666 -0.3228
 2236TIP3    H128123   2.302   5.665  12.770  0.3468  0.7713 -0.4040
 2236TIP3    H228124   2.158   5.692  12.732  0.2640 -1.2683 -1.6011
 2237TIP3   OH228125   2.903   1.165   6.309 -0.2462  0.9165  0.5553
 2237TIP3    H128126   2.998   1.152   6.311 -0.0942  2.0544  1.4378
 2237TIP3    H228127   2.868   1.104   6.373 -0.2794 -0.6976 -0.9620
 2238TIP3   OH228128   2.047   1.042  16.147 -0.0157  0.3513  0.1321
 2238TIP3    H128129   2.002   1.121  16.177 -0.3912  0.5927 -1.0629
 2238TIP3    H228130   2.087   1.006  16.227 -1.0363  0.9616  0.9297
 2239TIP3   OH228131   6.177   3.567  11.785 -0.4721 -0.0563 -0.6504
 2239TIP3    H128132   6.203   3.641  11.728 -0.5556 -0.5173 -1.2933
 2239TIP3    H228133   6.092   3.540  11.751 -1.4113  0.8979  0.9138
 2240TIP3   OH228134   0.876   3.277  12.091  0.1643  0.0274 -0.1925
 2240TIP3    H128135   0.818   3.254  12.164  0.0519 -0.7052 -0.5130
 2240TIP3    H228136   0.943   3.209  12.091  0.0549 -0.0887 -0.8878
 2241TIP3   OH228137   5.532   4.265  13.055 -0.1208 -0.4118  0.1878
 2241TIP3    H128138   5.461   4.219  13.102  0.4105 -0.1417  1.2822
 2241TIP3    H228139   5.487   4.333  13.006 -0.7271 -0.8970  0.0567
 2242TIP3   OH228140   0.516   1.114  12.184 -0.0063  0.4596 -0.2630
 2242TIP3    H128141   0.508   1.020  12.166  0.3387  0.4606 -0.4248
 2242TIP3    H228142   0.462   1.128  12.262  0.6059 -0.0327  0.2541
 2243TIP3   OH228143   2.710   0.737   6.123  0.0484  0.6636  0.1268
 2243TIP3    H128144   2.732   0.767   6.211 -1.1880  2.4617 -0.1405
 2243TIP3    H228145   2.766   0.790   6.066 -0.3348  0.6839 -0.2335
 2244TIP3   OH228146   1.124   5.589  12.529  0.7703  0.0499  0.2192
 2244TIP3    H128147   1.066   5.641  12.583 -0.4708 -1.1087  0.0166
 2244TIP3    H228148   1.189   5.555  12.590 -0.7234 -1.3978  1.0305
 2245TIP3   OH228149   0.458   5.091  15.600  0.1373  0.4759 -0.4931
 2245TIP3    H128150   0.517   5.103  15.525  0.8823 -1.0339 -0.1763
 2245TIP3    H228151   0.493   5.014  15.645 -1.8969 -0.2414 -0.0982
 2246TIP3   OH228152   0.815   2.106   5.548 -0.3742 -0.0199 -0.0151
 2246TIP3    H128153   0.804   2.066   5.634  1.8220  1.5036  1.0208
 2246TIP3    H228154   0.854   2.037   5.495 -0.1780 -0.4661  0.6961
 2247TIP3   OH228155   0.921   1.485   1.472 -0.3980  0.0493 -0.1770
 2247TIP3    H128156   1.015   1.480   1.461 -0.4756  1.0088 -1.3426
 2247TIP3    H228157   0.907   1.475   1.566  0.9339  0.9468  0.1242
 2248TIP3   OH228158   2.985   5.854   3.664  0.0172  0.0202  0.5584
 2248TIP3    H128159   3.010   5.946   3.658 -1.8861  0.5775  0.6966
 2248TIP3    H228160   2.956   5.832   3.575  0.3369 -0.4028  0.5597
 2249TIP3   OH228161   3.429   2.809   5.144  0.4369  0.2168  0.3234
 2249TIP3    H128162   3.492   2.871   5.180  2.0573 -0.9549 -0.4396
 2249TIP3    H228163   3.371   2.788   5.218  2.9512 -1.2190  1.9602
 2250TIP3   OH228164   6.146   1.788  16.316 -0.5918 -0.0896 -0.0500
 2250TIP3    H128165   6.140   1.713  16.375  0.7238 -0.0118  0.2096
 2250TIP3    H228166   6.060   1.829  16.320 -0.7399 -0.5040  1.2682
 2251TIP3   OH228167   6.155   1.022   0.448 -0.3932 -0.3408  0.0776
 2251TIP3    H128168   6.209   0.950   0.416 -0.4047 -0.3826  0.1528
 2251TIP3    H228169   6.206   1.058   0.521  0.2078  0.5088 -0.7361
 2252TIP3   OH228170   5.267   0.598  11.774 -0.1091 -1.1197  0.0113
 2252TIP3    H128171   5.298   0.600  11.683 -0.1020  0.8741  0.0341
 2252TIP3    H228172   5.175   0.572  11.767 -0.9780  1.9582 -0.8718
 2253TIP3   OH228173   1.955   1.556   0.379 -0.3908 -0.1145  0.3182
 2253TIP3    H128174   1.910   1.641   0.374 -2.5788 -1.2527 -0.4153
 2253TIP3    H228175   2.020   1.567   0.447 -1.0705  1.9799  0.6709
 2254TIP3   OH228176   4.954   1.418   4.663  0.1966 -0.6402  0.3836
 2254TIP3    H128177   5.031   1.443   4.713  1.7315 -3.6969 -0.3837
 2254TIP3    H228178   4.964   1.464   4.580  0.3632  0.1870  0.8495
 2255TIP3   OH228179   0.454   2.356  16.351  0.2258 -0.4091 -0.2615
 2255TIP3    H128180   0.462   2.310  16.435 -1.0347  0.0387  0.1230
 2255TIP3    H228181   0.420   2.290  16.291 -0.8141 -0.2003  0.0895
 2256TIP3   OH228182   2.894   6.281   2.082  0.6560  0.3799  0.1606
 2256TIP3    H128183   2.855   6.271   2.169  0.6335 -2.2449 -0.1216
 2256TIP3    H228184   2.977   6.326   2.098  0.0627  1.0724  1.3841
 2257TIP3   OH228185   0.907   4.431  16.391  0.0557  0.1185  0.5761
 2257TIP3    H128186   0.915   4.474  16.476  0.2386  0.8291  0.1960
 2257TIP3    H228187   0.872   4.344  16.412 -1.1345  0.7485  1.2638
 2258TIP3   OH228188   3.275   4.426   3.835  0.7785 -0.2979 -0.2500
 2258TIP3    H128189   3.257   4.347   3.886  0.8830  0.5122  1.0446
 2258TIP3    H228190   3.190   4.469   3.826  0.0759 -2.2120 -3.8226
 2259TIP3   OH228191   6.141   4.246  11.995  0.4016  0.2198  0.3838
 2259TIP3    H128192   6.233   4.225  11.974  0.3818  1.3161 -0.8857
 2259TIP3    H228193   6.141   4.340  12.010 -0.2911  0.0136  1.7280
 2260TIP3   OH228194   5.552   3.389   5.126 -0.0856  0.5322  0.2055
 2260TIP3    H128195   5.593   3.425   5.205  2.0267 -1.1237 -0.0889
 2260TIP3    H228196   5.518   3.304   5.154  0.6019 -0.0264 -0.6282
 2261TIP3   OH228197   5.118   2.025   2.069  0.2442 -0.2514 -0.4545
 2261TIP3    H128198   5.159   1.953   2.118  0.3118  1.3000  1.8124
 2261TIP3    H228199   5.031   2.033   2.106 -0.3877 -0.2762 -1.8939
 2262TIP3   OH228200   3.067   4.728  11.591 -0.4363  0.1639 -0.2723
 2262TIP3    H128201   3.117   4.653  11.624 -0.4769  0.4158  0.3697
 2262TIP3    H228202   3.126   4.772  11.531  0.5855  1.2021  1.4601
 2263TIP3   OH228203   1.384   1.257   0.202 -0.3262 -0.0734 -0.2402
 2263TIP3    H128204   1.460   1.216   0.160  1.0387  1.3532  0.7488
 2263TIP3    H228205   1.411   1.267   0.294 -0.8000  2.5340 -0.3406
 2264TIP3   OH228206   2.502   6.026   1.790  0.0596 -0.7840 -0.3065
 2264TIP3    H128207   2.550   5.983   1.720 -1.2417  0.5481 -2.0780
 2264TIP3    H228208   2.437   5.962   1.818 -0.4999 -0.7495 -1.4865
 2265TIP3   OH228209   2.259   6.005  10.465 -0.3704 -0.4309  0.6255
 2265TIP3    H128210   2.277   6.097  10.486  1.2675 -0.0813 -2.0830
 2265TIP3    H228211   2.311   5.988  10.387 -1.7369 -3.2945  0.2916
 2266TIP3   OH228212   5.073   0.713   2.963  0.0253 -0.2556  0.3770
 2266TIP3    H128213   5.084   0.685   2.873 -0.3838  0.0557  0.2254
 2266TIP3    H228214   5.141   0.779   2.977  0.0502 -0.2614  0.2758
 2267TIP3   OH228215   4.556   6.058  14.783 -0.2883  0.6722 -0.2854
 2267TIP3    H128216   4.643   6.095  14.769 -0.3160  0.6458 -0.5206
 2267TIP3    H228217   4.497   6.133  14.779 -0.3304  0.6183 -0.6267
 2268TIP3   OH228218   4.897   3.702  11.540 -0.2160  0.5018  0.0877
 2268TIP3    H128219   4.942   3.692  11.456 -0.2174 -1.8926  0.3312
 2268TIP3    H228220   4.805   3.680  11.521 -0.6926  2.2802  0.2436
 2269TIP3   OH228221   0.999   0.778   0.761  0.7894  0.6448  0.3143
 2269TIP3    H128222   0.908   0.800   0.741  0.8223 -1.4505 -2.3789
 2269TIP3    H228223   1.050   0.846   0.717  0.6310 -0.5821 -1.8464
 2270TIP3   OH228224   3.958   0.039  16.358 -0.1359  0.1563  0.2692
 2270TIP3    H128225   3.998   0.120  16.390  1.0373 -0.9037  1.5690
 2270TIP3    H228226   3.945   0.053  16.264 -0.2246  1.9477  0.5346
 2271TIP3   OH228227   5.843   2.326   2.626 -0.4072 -0.6689  0.0265
 2271TIP3    H128228   5.826   2.364   2.540 -0.3372  2.0051  1.1442
 2271TIP3    H228229   5.939   2.316   2.629 -0.5665 -2.9160 -1.0294
 2272TIP3   OH228230   3.229   5.392  14.475 -0.3613 -0.1206 -0.5063
 2272TIP3    H128231   3.204   5.440  14.396 -1.3447 -1.7219 -1.1922
 2272TIP3    H228232   3.303   5.338  14.448  0.4962  0.7249  0.1601
 2273TIP3   OH228233   5.480   3.051   2.775 -0.6103  0.1598  0.4873
 2273TIP3    H128234   5.419   3.113   2.734 -1.6029 -0.7163  0.6191
 2273TIP3    H228235   5.516   3.001   2.702 -1.5748 -0.6798  0.5769
 2274TIP3   OH228236   4.640   3.390   5.483 -0.1833  0.7740 -0.3724
 2274TIP3    H128237   4.628   3.367   5.575 -0.1553  1.3788 -0.2117
 2274TIP3    H228238   4.724   3.353   5.459 -0.3553  0.3055 -0.2559
 2275TIP3   OH228239   0.980   6.532   0.104 -0.5520 -0.9723  0.1055
 2275TIP3    H128240   0.985   6.589   0.181  0.6682  1.0687 -1.4455
 2275TIP3    H228241   0.915   6.573   0.047  0.8540 -0.7012 -1.3365
 2276TIP3   OH228242   1.708   6.059  15.545  0.5146 -0.1890 -0.2071
 2276TIP3    H128243   1.709   6.110  15.465  0.4379 -0.8713 -0.6475
 2276TIP3    H228244   1.620   6.021  15.548 -0.0510  1.1712  1.0550
 2277TIP3   OH228245   3.582   1.803  15.732  0.3599 -0.0134  0.4007
 2277TIP3    H128246   3.643   1.743  15.689  1.6117  0.8212  0.9679
 2277TIP3    H228247   3.622   1.889  15.721 -1.2357  0.6697 -0.0835
 2278TIP3   OH228248   1.996   5.772   6.182  0.6929 -0.0065 -0.3826
 2278TIP3    H128249   2.016   5.683   6.213 -0.1863 -0.2111 -0.3979
 2278TIP3    H228250   1.901   5.772   6.170  0.8055  0.6648 -1.2482
 2279TIP3   OH228251   5.690   6.282   2.209 -0.8122 -0.5081 -0.0450
 2279TIP3    H128252   5.705   6.342   2.282 -1.6381 -0.0650 -0.2272
 2279TIP3    H228253   5.600   6.253   2.220 -0.7994 -0.7808 -0.6343
 2280TIP3   OH228254   1.168   6.122   3.797  0.6008 -0.1621 -0.3056
 2280TIP3    H128255   1.125   6.175   3.864  0.5882 -0.0455 -0.4060
 2280TIP3    H228256   1.233   6.181   3.758  2.7889 -1.1107  1.7101
 2281TIP3   OH228257   2.808   0.896   3.011 -0.5885 -0.0026  0.0670
 2281TIP3    H128258   2.797   0.990   3.004  0.3613  0.1367  0.4491
 2281TIP3    H228259   2.902   0.882   3.012 -0.7180 -0.9945 -0.4705
 2282TIP3   OH228260   4.175   2.807  15.209 -0.7308 -0.2491 -0.2768
 2282TIP3    H128261   4.182   2.772  15.120 -1.0582  2.7500 -1.5200
 2282TIP3    H228262   4.081   2.817  15.224 -0.6460 -0.0111  0.1111
 2283TIP3   OH228263   0.361   2.197  14.062 -0.1772  0.4025  0.3032
 2283TIP3    H128264   0.429   2.249  14.105  0.9187  0.1961 -1.1390
 2283TIP3    H228265   0.348   2.240  13.978 -1.7139  0.3214  0.4833
 2284TIP3   OH228266   5.984   4.658   3.925 -0.5771  1.0347 -0.6569
 2284TIP3    H128267   5.998   4.565   3.906  0.9530  0.8937  1.0292
 2284TIP3    H228268   5.926   4.659   4.001 -1.1022  1.4673 -1.0643
 2285TIP3   OH228269   0.229   3.181  16.531 -0.2677  0.4656  0.3342
 2285TIP3    H128270   0.265   3.111  16.586 -0.9861 -1.0352 -1.0618
 2285TIP3    H228271   0.304   3.211  16.479 -0.5779 -1.3589 -1.2193
 2286TIP3   OH228272   3.832   4.992  12.498  0.3581  1.0497  0.0010
 2286TIP3    H128273   3.900   4.926  12.510  0.5165  1.5684  2.3075
 2286TIP3    H228274   3.856   5.039  12.419  1.2379 -0.4839 -0.6402
 2287TIP3   OH228275   4.714   0.859  13.894  0.2936  0.0023  0.0889
 2287TIP3    H128276   4.639   0.830  13.945 -0.2006  1.5557  0.2644
 2287TIP3    H228277   4.683   0.859  13.803  0.4054 -0.3093  0.0454
 2288TIP3   OH228278   0.036   3.932   3.079  0.2785  0.3224  0.1003
 2288TIP3    H128279   0.097   3.895   3.015 -0.2051  0.2361 -0.3082
 2288TIP3    H228280  -0.035   3.969   3.027 -0.2841 -0.0514  0.5964
 2289TIP3   OH228281   5.806   4.612  12.815 -0.1753 -0.1056 -0.4842
 2289TIP3    H128282   5.887   4.576  12.852 -0.8507 -1.9288 -0.7474
 2289TIP3    H228283   5.753   4.635  12.892 -0.7662 -2.0468 -0.2916
 2290TIP3   OH228284   4.550   6.540   3.868 -0.0045  0.1111 -1.2334
 2290TIP3    H128285   4.462   6.503   3.869 -0.3139  0.8449  0.9479
 2290TIP3    H228286   4.553   6.594   3.789 -1.3560 -0.2832 -1.5489
 2291TIP3   OH228287   5.117   6.523  12.239  0.6626 -0.2980 -0.0313
 2291TIP3    H128288   5.041   6.521  12.182 -0.7855 -0.3536  1.8417
 2291TIP3    H228289   5.107   6.604  12.289  1.6774 -0.4527  0.4390
 2292TIP3   OH228290   4.840   4.874   1.998 -0.0963 -0.2285 -0.1321
 2292TIP3    H128291   4.758   4.858   2.045 -0.2894 -1.0140 -0.7216
 2292TIP3    H228292   4.815   4.931   1.925 -0.0955 -0.3794 -0.2496
 2293TIP3   OH228293   5.792   0.845  16.363  0.0788  0.5275  0.1155
 2293TIP3    H128294   5.772   0.937  16.347 -0.4628  0.1786 -1.2132
 2293TIP3    H228295   5.715   0.811  16.409  0.7005  0.9710  1.5294
 2294TIP3   OH228296   3.712   1.092   1.309 -0.3437  0.2351  0.0638
 2294TIP3    H128297   3.769   1.161   1.274  0.0095 -0.9501 -1.7485
 2294TIP3    H228298   3.627   1.135   1.322  0.8624  1.9973  2.7051
 2295TIP3   OH228299   4.548   3.265   3.052  0.4371 -0.4789  0.6501
 2295TIP3    H128300   4.563   3.197   2.986  4.0362  0.7068  0.0998
 2295TIP3    H228301   4.505   3.219   3.124 -1.5085 -2.2962 -1.5555
 2296TIP3   OH228302   4.467   4.594  11.071  0.0220 -0.0517 -0.1539
 2296TIP3    H128303   4.428   4.516  11.108 -0.1253  0.2958  0.4222
 2296TIP3    H228304   4.403   4.625  11.006 -0.3176  0.0971  0.2532
 2297TIP3   OH228305   0.933   0.703  12.376 -0.0600  0.4349 -0.6170
 2297TIP3    H128306   0.986   0.749  12.441 -1.0044  1.0807 -0.2765
 2297TIP3    H228307   0.984   0.626  12.353  1.4529  1.5348 -1.0202
 2298TIP3   OH228308   2.235   1.135  10.520  0.0718 -0.1167  0.5681
 2298TIP3    H128309   2.289   1.068  10.479  0.3727 -0.9440  2.2798
 2298TIP3    H228310   2.147   1.099  10.520 -0.1912  0.4919 -0.6235
 2299TIP3   OH228311   3.724   4.352  14.096  0.1091 -0.2466 -0.0625
 2299TIP3    H128312   3.640   4.345  14.051  0.4493  0.8196 -0.8891
 2299TIP3    H228313   3.789   4.344  14.027  0.6345  1.5456  0.2057
 2300TIP3   OH228314   0.130   3.205   4.901 -0.5513  0.2312 -0.1952
 2300TIP3    H128315   0.037   3.184   4.901 -0.3373 -0.8009 -1.6628
 2300TIP3    H228316   0.143   3.255   4.981 -1.6874 -2.5935  1.8390
 2301TIP3   OH228317   1.927   4.069   1.428 -0.4561  0.9301  0.2531
 2301TIP3    H128318   1.932   4.016   1.348 -3.5412  0.9822 -0.0274
 2301TIP3    H228319   2.018   4.096   1.444  0.8350 -2.5385 -0.8506
 2302TIP3   OH228320   3.766   1.375  13.907  0.1175 -0.4874  0.3947
 2302TIP3    H128321   3.681   1.342  13.937  0.4104 -1.9677 -0.3678
 2302TIP3    H228322   3.751   1.403  13.817  0.2449 -0.0107  0.5222
 2303TIP3   OH228323   3.415   0.469   3.042  0.1945  0.7000  0.0352
 2303TIP3    H128324   3.371   0.521   2.975  0.7241  0.4274 -0.5270
 2303TIP3    H228325   3.409   0.379   3.010  0.3522  0.5545  0.4126
 2304TIP3   OH228326   0.223   2.654  11.445 -0.2271  0.0020  0.5832
 2304TIP3    H128327   0.245   2.566  11.414 -1.9338  0.4880 -2.1454
 2304TIP3    H228328   0.259   2.713  11.379 -0.2224  1.3359  1.7312
 2305TIP3   OH228329   6.071   4.425  15.524  0.0844  0.1824  0.0568
 2305TIP3    H128330   6.042   4.503  15.477 -0.0083  1.0386  1.4883
 2305TIP3    H228331   6.134   4.458  15.588  1.4667 -1.1730 -0.5611
 2306TIP3   OH228332   6.341   5.821  12.946  0.1482  0.5656 -0.0689
 2306TIP3    H128333   6.387   5.905  12.959 -1.9728  1.4340  2.1106
 2306TIP3    H228334   6.329   5.816  12.851  2.9116  1.2909 -0.5045
 2307TIP3   OH228335   4.988   5.538  11.912 -0.7177  0.2587  0.4833
 2307TIP3    H128336   5.055   5.470  11.906  0.7474  1.7699 -1.2754
 2307TIP3    H228337   4.905   5.491  11.909  0.2327 -1.6011  1.8832
 2308TIP3   OH228338   4.007   6.360  11.084 -0.3366 -0.1004 -0.0562
 2308TIP3    H128339   4.074   6.428  11.096 -0.4238 -0.2387  1.3336
 2308TIP3    H228340   4.046   6.281  11.122 -0.8510 -0.4597 -0.2755
 2309TIP3   OH228341   5.227   2.275  16.484 -0.3709  0.3859 -0.1082
 2309TIP3    H128342   5.295   2.308  16.543  0.8165 -3.1086  0.5934
 2309TIP3    H228343   5.269   2.272  16.398 -0.2664  0.1283 -0.0502
 2310TIP3   OH228344   4.559   3.258  14.299  0.4062  0.1894 -0.1095
 2310TIP3    H128345   4.514   3.177  14.322 -0.4880  0.4127 -1.0294
 2310TIP3    H228346   4.498   3.328  14.322  1.1806  0.6089  0.6943
 2311TIP3   OH228347   2.307   1.203   4.593 -0.2594  0.3173  0.3928
 2311TIP3    H128348   2.336   1.276   4.539  0.7925 -1.0580 -0.9669
 2311TIP3    H228349   2.231   1.168   4.547  0.2899 -0.5009  0.0824
 2312TIP3   OH228350   4.440   3.019   0.627  0.5141 -0.1922 -0.0880
 2312TIP3    H128351   4.473   2.929   0.619  2.6585  0.4458  1.0547
 2312TIP3    H228352   4.514   3.068   0.664 -0.9650  1.8371  0.2512
 2313TIP3   OH228353   3.751   5.738  16.454 -0.2550  0.5586  0.5382
 2313TIP3    H128354   3.772   5.692  16.373 -1.9133  0.5963  0.0631
 2313TIP3    H228355   3.834   5.777  16.481  0.8474 -1.4757  0.1727
 2314TIP3   OH228356   0.318   1.186  13.802  0.3913 -0.4848 -0.0411
 2314TIP3    H128357   0.273   1.239  13.867 -0.8959 -1.1348 -0.3930
 2314TIP3    H228358   0.403   1.167  13.841  0.7354  1.5197  0.2421
 2315TIP3   OH228359   5.433   0.676  13.683  0.1090 -0.0570  0.1042
 2315TIP3    H128360   5.397   0.760  13.710  0.1757 -0.0366  0.1308
 2315TIP3    H228361   5.366   0.612  13.706 -0.9879  0.2414 -2.1335
 2316TIP3   OH228362   2.289   2.826  13.296 -0.8703  0.3281  0.4931
 2316TIP3    H128363   2.224   2.783  13.352 -2.3714 -0.3034 -1.6847
 2316TIP3    H228364   2.363   2.765  13.294 -1.3185 -0.2252  0.7367
 2317TIP3   OH228365   2.965   1.575  14.138 -0.2111 -0.1880 -0.6109
 2317TIP3    H128366   2.968   1.670  14.155 -1.7201 -0.3644  0.8672
 2317TIP3    H228367   2.925   1.567  14.052  0.1562  0.5366 -0.8511
 2318TIP3   OH228368   1.858   3.644   2.457  0.1452 -0.2177 -0.0428
 2318TIP3    H128369   1.823   3.610   2.539 -1.0446 -3.4325 -1.7859
 2318TIP3    H228370   1.950   3.618   2.458  0.3902  0.6801  0.7397
 2319TIP3   OH228371   3.126   0.382   4.614  0.0389 -0.2766  0.3742
 2319TIP3    H128372   3.164   0.351   4.532 -0.1401  0.3396  0.0534
 2319TIP3    H228373   3.047   0.428   4.587  0.5710  0.9022  0.7993
 2320TIP3   OH228374   4.170   6.190   3.387 -0.0759 -0.8949 -0.2297
 2320TIP3    H128375   4.244   6.150   3.432 -0.4204  0.1898  1.3142
 2320TIP3    H228376   4.093   6.160   3.436 -0.4915 -0.1543 -0.4233
 2321TIP3   OH228377   2.895   2.655   4.516 -0.4305  0.3478 -0.3345
 2321TIP3    H128378   2.987   2.632   4.529  0.1219  1.8838 -1.3141
 2321TIP3    H228379   2.884   2.737   4.564 -1.5737 -0.3535  0.6417
 2322TIP3   OH228380   1.797   2.109  16.017  0.3345 -0.5403 -0.2476
 2322TIP3    H128381   1.833   2.184  16.065  0.6995 -1.8114  1.5103
 2322TIP3    H228382   1.873   2.059  15.990  0.0266 -1.1657  0.0475
 2323TIP3   OH228383   3.610   5.700   2.914  0.1424 -0.1820 -0.1775
 2323TIP3    H128384   3.670   5.656   2.975 -0.6264 -1.0364 -0.0333
 2323TIP3    H228385   3.640   5.791   2.914 -0.0359 -0.0956  1.7127
 2324TIP3   OH228386   2.384   1.234   1.553  0.0279  0.1488  0.4656
 2324TIP3    H128387   2.446   1.238   1.480  1.0330 -0.0667  1.2983
 2324TIP3    H228388   2.300   1.212   1.512  0.4029  0.9021 -0.7253
 2325TIP3   OH228389   4.999   6.471  15.938 -0.1972  0.2965 -0.1663
 2325TIP3    H128390   5.091   6.447  15.927 -0.1321  0.2296  0.4756
 2325TIP3    H228391   4.998   6.524  16.018 -0.9158 -0.8396  0.5911
 2326TIP3   OH228392   1.523   6.727   4.826  0.2385  0.3666 -0.1388
 2326TIP3    H128393   1.456   6.714   4.893  0.0650  0.5280 -0.2776
 2326TIP3    H228394   1.598   6.762   4.873  1.3940 -2.8437  0.5662
 2327TIP3   OH228395   3.575   2.517   3.416  0.5515 -0.1954  0.0715
 2327TIP3    H128396   3.512   2.534   3.346 -0.6530  0.0019  1.2064
 2327TIP3    H228397   3.589   2.422   3.413 -0.1176 -0.2933  0.1090
 2328TIP3   OH228398   2.197   3.136  13.549 -0.0815 -0.6277 -0.2010
 2328TIP3    H128399   2.162   3.215  13.592  0.3312 -0.8181  0.4984
 2328TIP3    H228400   2.200   3.071  13.619 -0.4725 -1.2837 -0.7925
 2329TIP3   OH228401   0.044   0.923   1.981  0.7582  0.1020 -0.8408
 2329TIP3    H128402  -0.029   0.968   2.023 -0.1088 -0.0706 -2.1397
 2329TIP3    H228403   0.096   0.993   1.941  2.0835  0.3484  1.2439
 2330TIP3   OH228404   3.429   4.385  17.104  0.1525  0.2741 -0.0033
 2330TIP3    H128405   3.355   4.377  17.043  1.6068 -0.3360 -1.7246
 2330TIP3    H228406   3.443   4.479  17.112 -2.5690  0.5230  2.5425
 2331TIP3   OH228407   1.113   4.522  15.575  0.7359  1.2045  0.4666
 2331TIP3    H128408   1.166   4.505  15.653 -1.0770 -0.7081  1.3213
 2331TIP3    H228409   1.032   4.562  15.609 -1.4233 -2.5396 -0.0249
 2332TIP3   OH228410   2.422   2.045  12.133 -0.5642  0.1911 -0.1294
 2332TIP3    H128411   2.499   2.000  12.099 -0.6968  1.0567 -1.5810
 2332TIP3    H228412   2.453   2.089  12.213 -0.0912 -1.2364  0.4885
 2333TIP3   OH228413   4.361   0.611  13.713 -0.0810 -0.0461 -0.0064
 2333TIP3    H128414   4.313   0.631  13.632 -2.6495  0.5618  1.5882
 2333TIP3    H228415   4.448   0.649  13.699 -1.0178  1.5531 -1.8130
 2334TIP3   OH228416   1.751   6.024   2.822  0.5495  0.2099 -0.3835
 2334TIP3    H128417   1.821   6.010   2.886  1.4361  2.3411 -0.8700
 2334TIP3    H228418   1.751   6.118   2.806 -2.0334  0.1548 -0.8616
 2335TIP3   OH228419   1.824   2.337  11.217 -0.0630 -0.4042  0.2669
 2335TIP3    H128420   1.778   2.258  11.191 -0.2907  0.8262 -3.2576
 2335TIP3    H228421   1.894   2.347  11.153 -0.2095  2.3591  0.4549
 2336TIP3   OH228422   1.409   0.281   6.026  0.1269  0.8719  0.0044
 2336TIP3    H128423   1.340   0.245   6.082  0.8693 -0.4290  0.0894
 2336TIP3    H228424   1.408   0.375   6.044 -0.6791  0.6704  1.0419
 2337TIP3   OH228425   0.615   6.175   4.632 -0.3382  0.0586  0.1000
 2337TIP3    H128426   0.672   6.109   4.673  1.0292  0.8567 -0.4771
 2337TIP3    H228427   0.654   6.259   4.657  0.6541  0.5660 -2.9864
 2338TIP3   OH228428   4.282   0.374  13.838 -0.5901 -0.2846  0.0289
 2338TIP3    H128429   4.225   0.412  13.905  0.5998  0.3224  0.7123
 2338TIP3    H228430   4.324   0.450  13.796 -1.3583 -0.6497 -1.4502
 2339TIP3   OH228431   6.220   5.769  12.091 -0.5632  0.3465  0.2344
 2339TIP3    H128432   6.278   5.725  12.028  0.0933  1.8504 -0.2499
 2339TIP3    H228433   6.159   5.701  12.119  0.9650 -1.0851  0.1799
 2340TIP3   OH228434   5.844   2.727  16.113  0.4130 -0.1794  0.5797
 2340TIP3    H128435   5.831   2.813  16.073 -2.2380 -0.7607  0.1069
 2340TIP3    H228436   5.816   2.738  16.204  0.2992 -0.4809  0.5849
 2341TIP3   OH228437   0.608   1.283   5.224 -0.8060 -0.0449 -0.8283
 2341TIP3    H128438   0.546   1.312   5.157 -0.7586 -0.0451 -0.8718
 2341TIP3    H228439   0.568   1.310   5.306  0.0028  1.5602 -0.9518
 2342TIP3   OH228440   0.612   5.518  11.488  0.2733  0.0110 -0.3259
 2342TIP3    H128441   0.589   5.611  11.497  0.0888 -0.2123  1.5291
 2342TIP3    H228442   0.630   5.489  11.577 -0.4393 -1.9453 -0.8081
 2343TIP3   OH228443   4.222   3.890  14.248 -0.3856 -0.2634 -0.1583
 2343TIP3    H128444   4.131   3.862  14.236 -0.0402 -1.8216  0.7154
 2343TIP3    H228445   4.274   3.811  14.230  0.8329  0.7618 -1.1881
 2344TIP3   OH228446   1.046   3.586   3.339 -0.7618  0.3373  0.4607
 2344TIP3    H128447   1.047   3.681   3.353 -1.5873  0.8096 -2.2461
 2344TIP3    H228448   1.132   3.556   3.368 -0.4166  1.9562  1.1421
 2345TIP3   OH228449   0.329   4.017   5.249 -0.7265 -0.0602 -0.2094
 2345TIP3    H128450   0.324   4.108   5.222  0.3466  0.6820  1.9295
 2345TIP3    H228451   0.416   3.988   5.220 -0.1413  0.3167  1.1093
 2346TIP3   OH228452   0.342   0.183  12.915 -0.4300 -0.0657 -0.0541
 2346TIP3    H128453   0.279   0.229  12.859 -0.3544 -0.5969 -0.5849
 2346TIP3    H228454   0.401   0.251  12.947 -0.5838  0.2684 -0.4835
 2347TIP3   OH228455   3.493   6.302   4.911  0.1080 -0.0395  0.1702
 2347TIP3    H128456   3.524   6.229   4.857 -0.7254  0.7630 -1.4123
 2347TIP3    H228457   3.398   6.297   4.909  0.0364  1.0863  0.0567
 2348TIP3   OH228458   3.897   3.554  13.467 -0.1914  1.0455  0.0110
 2348TIP3    H128459   3.855   3.609  13.401  2.1859  3.3138  0.3298
 2348TIP3    H228460   3.966   3.608  13.504 -0.1737 -0.8780  2.9916
 2349TIP3   OH228461   3.361   5.759   5.784 -0.2349 -0.4606 -0.3080
 2349TIP3    H128462   3.336   5.827   5.722 -0.2806  0.6664  0.9341
 2349TIP3    H228463   3.328   5.790   5.869 -0.9649 -2.3880  0.1451
 2350TIP3   OH228464   4.024   3.357  15.998 -0.0881  0.4701 -0.2980
 2350TIP3    H128465   4.034   3.388  16.088 -0.0554  0.5644 -0.3330
 2350TIP3    H228466   4.114   3.343  15.968 -0.1207 -0.2556 -0.0749
 2351TIP3   OH228467   3.096   0.844  16.040  0.1369 -0.0331 -0.0230
 2351TIP3    H128468   3.152   0.920  16.026 -0.8211  0.6462 -0.1748
 2351TIP3    H228469   3.125   0.808  16.124  1.2275 -0.0601 -0.4051
 2352TIP3   OH228470   5.188   6.123   6.100  0.0936  0.4217  0.0219
 2352TIP3    H128471   5.279   6.130   6.128  0.0660  0.7117  0.0417
 2352TIP3    H228472   5.171   6.029   6.094  0.1909  0.3598  0.6904
 2353TIP3   OH228473   0.376   5.824  15.635 -0.2622 -0.1570  0.0575
 2353TIP3    H128474   0.330   5.762  15.692  0.1845 -1.2562 -0.7653
 2353TIP3    H228475   0.394   5.775  15.556 -1.7841  1.6735 -1.4812
 2354TIP3   OH228476   6.541   1.285  16.428 -0.4274 -0.2204  0.2565
 2354TIP3    H128477   6.492   1.360  16.460  0.0523  0.5946 -0.8729
 2354TIP3    H228478   6.490   1.209  16.455 -1.0450  0.5220  1.2028
 2355TIP3   OH228479   5.756   2.590  13.157 -0.4385 -0.7591 -0.6581
 2355TIP3    H128480   5.788   2.614  13.070 -0.7541  0.1484 -0.5386
 2355TIP3    H228481   5.693   2.520  13.141  0.1112 -1.1576 -1.0832
 2356TIP3   OH228482   4.451   4.546  12.766  0.6242  0.3451 -0.1206
 2356TIP3    H128483   4.468   4.589  12.850  0.4596 -0.6420  0.4235
 2356TIP3    H228484   4.373   4.494  12.781  0.2322  0.6479 -1.0746
 2357TIP3   OH228485   1.161   6.556  16.722 -0.5086 -0.8445 -0.2059
 2357TIP3    H128486   1.116   6.477  16.692 -0.0056 -0.8710 -0.8992
 2357TIP3    H228487   1.091   6.621  16.730 -1.1363 -1.7244  1.6928
 2358TIP3   OH228488   6.217   1.549   3.847 -0.4353 -0.1808  0.3620
 2358TIP3    H128489   6.136   1.599   3.841 -0.2796  0.0252 -0.0397
 2358TIP3    H228490   6.268   1.577   3.771 -0.9699 -2.0826 -0.7269
 2359TIP3   OH228491   4.388   4.387   1.780 -0.0485 -0.4286 -0.1901
 2359TIP3    H128492   4.349   4.345   1.856 -0.3829  0.8198  0.3339
 2359TIP3    H228493   4.482   4.375   1.791 -0.1593 -1.5142 -0.3344
 2360TIP3   OH228494   6.045   4.687  15.388  0.2538 -0.3687 -0.1031
 2360TIP3    H128495   5.988   4.760  15.412 -2.9649 -2.5517 -0.7299
 2360TIP3    H228496   6.121   4.728  15.347 -1.4763  2.6227 -0.4334
 2361TIP3   OH228497   0.682   6.489  14.259  0.6980  0.2216 -0.3277
 2361TIP3    H128498   0.631   6.514  14.182  0.8876 -1.1285 -0.9092
 2361TIP3    H228499   0.713   6.401  14.239  0.5296 -0.2451  1.4184
 2362TIP3   OH228500   0.763   0.898  16.065 -0.3247 -0.4940 -0.6295
 2362TIP3    H128501   0.691   0.835  16.075 -1.3233  0.8710  1.1738
 2362TIP3    H228502   0.726   0.967  16.009 -0.3951  0.1282  0.1643
 2363TIP3   OH228503   0.450   2.050   1.033  0.1018 -0.0782  0.3715
 2363TIP3    H128504   0.526   2.107   1.022  0.7393 -0.7568  1.1117
 2363TIP3    H228505   0.424   2.062   1.125  1.3062 -2.2034  1.0551
 2364TIP3   OH228506   5.503   5.130   2.673 -0.0343  0.5898 -0.3080
 2364TIP3    H128507   5.549   5.132   2.589  0.7383 -0.3430  0.0942
 2364TIP3    H228508   5.572   5.118   2.738 -0.8219 -0.6191  0.3093
 2365TIP3   OH228509   1.381   3.849   2.754 -0.4644  0.4333 -0.2899
 2365TIP3    H128510   1.289   3.863   2.730 -0.7221 -0.6752 -0.0274
 2365TIP3    H228511   1.431   3.908   2.699 -1.3203  0.7466 -0.7280
 2366TIP3   OH228512   1.031   4.636  12.280 -0.3536  0.4491 -0.4842
 2366TIP3    H128513   1.013   4.563  12.221  0.1265  1.3989 -1.8381
 2366TIP3    H228514   0.957   4.695  12.269  1.0719  1.9577 -2.2570
 2367TIP3   OH228515   3.504   1.007  14.233  0.3841  0.1740 -0.2204
 2367TIP3    H128516   3.523   1.084  14.286  0.6573 -0.7692  1.0811
 2367TIP3    H228517   3.543   0.934  14.281 -0.3639 -0.8570 -1.1423
 2368TIP3   OH228518   2.885   2.422   4.792 -0.2823 -0.3628  0.1665
 2368TIP3    H128519   2.914   2.358   4.727 -0.4982 -0.1849 -0.1057
 2368TIP3    H228520   2.952   2.418   4.860  0.0423 -0.4234 -0.1494
 2369TIP3   OH228521   5.610   3.112  17.063 -0.5742 -0.1626  0.0603
 2369TIP3    H128522   5.591   3.125  17.156 -1.2401  0.4452 -0.1587
 2369TIP3    H228523   5.705   3.117  17.057 -0.4474 -1.3951  0.8889
 2370TIP3   OH228524   1.374   3.923   4.955 -0.1227  0.2169 -0.5755
 2370TIP3    H128525   1.350   3.984   5.025  0.9894  1.7475 -1.5028
 2370TIP3    H228526   1.461   3.952   4.927  0.5914 -2.0635 -0.7495
 2371TIP3   OH228527   4.872   2.875   4.190 -0.5214 -0.0812  0.2951
 2371TIP3    H128528   4.872   2.786   4.227  0.6104  0.2317  1.0777
 2371TIP3    H228529   4.783   2.906   4.203 -0.9597 -1.1531 -0.0958
 2372TIP3   OH228530   4.405   6.131   2.738 -0.0715  0.5584  0.4415
 2372TIP3    H128531   4.478   6.134   2.677  0.2848  1.4931  0.8994
 2372TIP3    H228532   4.404   6.041   2.771  0.3129  0.3056 -0.2226
 2373TIP3   OH228533   0.274   2.756  16.873 -0.2530 -0.3195 -0.0742
 2373TIP3    H128534   0.329   2.680  16.890 -0.3034 -0.7388 -1.7150
 2373TIP3    H228535   0.279   2.769  16.778 -2.1816  0.2361 -0.1237
 2374TIP3   OH228536   5.721   2.530  16.514 -0.3376  0.4946 -0.4121
 2374TIP3    H128537   5.777   2.575  16.578  0.2162  0.5302 -0.9159
 2374TIP3    H228538   5.783   2.483  16.458 -0.9444 -1.9223  0.8466
 2375TIP3   OH228539   5.048   5.711  16.366  0.3527 -0.2083  0.4756
 2375TIP3    H128540   5.034   5.620  16.342 -2.5473  0.1498  0.6651
 2375TIP3    H228541   5.028   5.760  16.286  0.5028  0.3493  0.7772
 2376TIP3   OH228542   1.705   5.184   4.243  0.1219  0.4193 -0.0717
 2376TIP3    H128543   1.674   5.108   4.292 -0.6063  1.1887  0.6808
 2376TIP3    H228544   1.716   5.152   4.153  1.4993 -1.0123  0.5741
 2377TIP3   OH228545   5.855   1.501   5.030  0.1150 -0.6785 -0.0947
 2377TIP3    H128546   5.875   1.414   5.065  1.4705  0.3127  1.6858
 2377TIP3    H228547   5.769   1.522   5.066  0.7486 -0.3882  1.3048
 2378TIP3   OH228548   3.942   1.028  14.900 -0.8104 -0.4011 -0.4058
 2378TIP3    H128549   3.867   1.033  14.841 -1.8834 -0.8031  0.8964
 2378TIP3    H228550   3.917   1.081  14.975  0.3715 -0.2157 -0.1371
 2379TIP3   OH228551   6.236   0.620   4.943 -0.1906  0.1492  0.4061
 2379TIP3    H128552   6.302   0.556   4.969 -0.5618  0.2288  1.5921
 2379TIP3    H228553   6.236   0.684   5.014 -1.2338  0.3776  0.2034
 2380TIP3   OH228554   1.857   4.912   0.243  0.0016 -0.7463  0.3235
 2380TIP3    H128555   1.884   4.982   0.302  0.2831 -1.7444  1.3913
 2380TIP3    H228556   1.798   4.954   0.180 -0.1046  0.3692  1.1695
 2381TIP3   OH228557   0.910   4.708   3.004 -0.0364  0.2749 -0.3841
 2381TIP3    H128558   0.914   4.802   3.018 -0.5495  0.2544 -0.1076
 2381TIP3    H228559   0.902   4.698   2.909  1.0974  0.4758 -0.5094
 2382TIP3   OH228560   0.854   1.647  14.142 -0.2637 -0.1425 -0.7099
 2382TIP3    H128561   0.916   1.590  14.188 -0.0648 -0.4657 -1.3649
 2382TIP3    H228562   0.894   1.733  14.144 -0.2689 -0.1524 -0.2531
 2383TIP3   OH228563   0.918   0.540  12.017 -0.4556 -0.1567 -0.2526
 2383TIP3    H128564   0.851   0.529  12.084 -0.1643  1.2205  0.2934
 2383TIP3    H228565   0.992   0.487  12.047  0.2918  1.7343  1.4069
 2384TIP3   OH228566   1.051   5.188   1.212  0.1986 -0.0402 -0.4127
 2384TIP3    H128567   1.079   5.099   1.232 -1.5343 -0.3155  0.8825
 2384TIP3    H228568   0.958   5.181   1.194 -0.0488  1.5716  0.1331
 2385TIP3   OH228569   2.164   4.723   5.504  0.0495 -0.5307  0.4223
 2385TIP3    H128570   2.170   4.755   5.593 -1.0735  0.0627  0.2975
 2385TIP3    H228571   2.127   4.796   5.454 -1.9871 -1.7854  0.0279
 2386TIP3   OH228572   4.057   6.653   3.459  0.2881 -0.3228  0.3872
 2386TIP3    H128573   3.965   6.649   3.433  0.1202 -2.2741  1.2259
 2386TIP3    H228574   4.094   6.722   3.404 -1.1446 -1.1188 -1.6299
 2387TIP3   OH228575   5.253   5.475   1.469 -0.0769 -0.0779 -0.5823
 2387TIP3    H128576   5.231   5.562   1.437  0.8684  0.4451  0.1768
 2387TIP3    H228577   5.246   5.481   1.564 -1.5830 -1.2762 -0.5888
 2388TIP3   OH228578   5.010   5.114   0.702 -0.4939  0.5210  0.6753
 2388TIP3    H128579   4.920   5.085   0.715 -0.2959 -0.5756 -0.3901
 2388TIP3    H228580   5.015   5.136   0.609 -0.6602  4.0723  1.4082
 2389TIP3   OH228581   1.134   0.689   1.856  0.7618  0.0383 -0.3983
 2389TIP3    H128582   1.105   0.599   1.873 -0.8344  0.6528  0.1939
 2389TIP3    H228583   1.090   0.712   1.774 -0.6085  1.0359  0.5915
 2390TIP3   OH228584   2.920   5.630   4.435  0.3976  0.5809 -0.4290
 2390TIP3    H128585   2.874   5.666   4.360 -0.4196  0.3191 -0.0654
 2390TIP3    H228586   2.878   5.545   4.451  1.6472 -0.0994 -0.6823
 2391TIP3   OH228587   5.976   4.605  10.129  0.0304 -0.2487 -0.7923
 2391TIP3    H128588   5.969   4.607  10.224 -0.7852  0.4715 -0.8545
 2391TIP3    H228589   6.059   4.649  10.109  0.5256 -0.9966 -0.3905
 2392TIP3   OH228590   0.898   5.014   0.210  1.0072 -0.2750 -0.5208
 2392TIP3    H128591   0.902   5.084   0.144 -0.4184  0.8945  0.5772
 2392TIP3    H228592   0.909   5.060   0.293 -2.4760 -0.9647  0.4031
 2393TIP3   OH228593   2.083   3.696  12.951  0.3247  0.3115 -0.7588
 2393TIP3    H128594   2.146   3.726  13.017  0.0019 -0.0177 -0.2988
 2393TIP3    H228595   2.042   3.777  12.919  1.6786  0.6211 -1.7876
 2394TIP3   OH228596   1.771   3.323   6.010 -0.0080 -0.1832  0.5706
 2394TIP3    H128597   1.801   3.234   5.997 -0.0179 -0.1795  0.5219
 2394TIP3    H228598   1.770   3.335   6.105  4.0095  1.1522  0.5438
 2395TIP3   OH228599   4.146   0.146  14.087 -0.2371  0.0672  0.3245
 2395TIP3    H128600   4.142   0.111  14.176 -1.4052 -0.0474  0.2320
 2395TIP3    H228601   4.158   0.241  14.099  2.3844 -0.2542  0.5761
 2396TIP3   OH228602   5.521   2.999   4.274 -0.1549  0.2003  0.1015
 2396TIP3    H128603   5.436   3.008   4.230 -0.4506  1.4660  0.8968
 2396TIP3    H228604   5.580   2.967   4.206 -1.1385 -0.1220 -0.6130
 2397TIP3   OH228605   0.129   2.940   1.245  0.1224 -0.2520  0.3758
 2397TIP3    H128606   0.143   2.867   1.306  0.1838  0.3934  1.1366
 2397TIP3    H228607   0.036   2.959   1.252 -0.1672 -1.1779 -0.8725
 2398TIP3   OH228608   4.747   1.522   2.530 -0.4862  0.2404  0.2680
 2398TIP3    H128609   4.838   1.507   2.558 -0.2279  2.3221  0.6125
 2398TIP3    H228610   4.749   1.505   2.436  0.2254  0.0713  0.3081
 2399TIP3   OH228611   0.731   4.604   1.581 -0.2320 -0.3727  0.4224
 2399TIP3    H128612   0.643   4.639   1.598 -0.7368 -1.5754  0.3441
 2399TIP3    H228613   0.716   4.512   1.561  0.8975 -0.2052 -1.1994
 2400TIP3   OH228614   6.199   5.684  16.345 -0.9112 -0.4148 -0.3971
 2400TIP3    H128615   6.212   5.717  16.256  1.1310 -0.2012 -0.0360
 2400TIP3    H228616   6.189   5.762  16.398 -2.0716 -0.5427 -0.4102
 2401TIP3   OH228617   3.169   6.113  16.054  0.0646 -0.4690 -0.4619
 2401TIP3    H128618   3.225   6.070  16.118 -0.4555  0.2611  0.5144
 2401TIP3    H228619   3.225   6.129  15.978  1.7265  2.0328  1.2437
 2402TIP3   OH228620   2.601   5.556  13.845  0.4036 -0.1575  0.3520
 2402TIP3    H128621   2.608   5.531  13.937 -0.3426  0.7453  0.6529
 2402TIP3    H228622   2.568   5.477  13.801 -1.8923  0.2680  1.2895
 2403TIP3   OH228623   4.101   5.012   6.612  0.6327 -0.1785 -0.0947
 2403TIP3    H128624   4.118   5.097   6.572  1.3449  0.1642  0.9298
 2403TIP3    H228625   4.114   4.949   6.541 -1.5691  0.6682 -1.2986
 2404TIP3   OH228626   4.746   5.628   3.806 -0.0788 -0.1107  0.0497
 2404TIP3    H128627   4.747   5.696   3.873  2.1786  0.1218 -0.1725
 2404TIP3    H228628   4.664   5.581   3.820 -0.5722  1.1977  1.6819
 2405TIP3   OH228629   4.030   0.646  17.007 -0.0065  0.4755  0.3356
 2405TIP3    H128630   3.946   0.652  17.053  0.8381  0.9791  1.8591
 2405TIP3    H228631   4.091   0.617  17.074  1.5944  2.8352 -0.0501
 2406TIP3   OH228632   2.163   0.706   5.230 -0.0767  0.1063 -0.3736
 2406TIP3    H128633   2.251   0.730   5.201 -0.2020  2.7558  1.3503
 2406TIP3    H228634   2.112   0.703   5.149  1.3269 -0.4347 -1.2692
 2407TIP3   OH228635   1.251   3.084   3.041 -0.1310 -0.2302 -0.7001
 2407TIP3    H128636   1.179   3.122   3.091  0.6830  0.2880  0.0846
 2407TIP3    H228637   1.226   3.096   2.949 -0.9389  0.1307 -0.4310
 2408TIP3   OH228638   3.343   0.457  13.584 -0.0582  0.4003  0.1381
 2408TIP3    H128639   3.273   0.500  13.536 -1.6068 -1.9957  0.1736
 2408TIP3    H228640   3.362   0.517  13.657 -1.3234  1.5646 -0.4674
 2409TIP3   OH228641   5.144   4.614   0.262  0.2646  0.3438 -0.0374
 2409TIP3    H128642   5.062   4.610   0.213  0.4270 -0.0911 -0.2749
 2409TIP3    H228643   5.174   4.523   0.265  0.8840  0.5434 -0.2014
 2410TIP3   OH228644   3.035   1.472  11.679  0.5050  0.2060  0.1882
 2410TIP3    H128645   2.995   1.559  11.686 -0.8255 -0.4270  0.5230
 2410TIP3    H228646   3.082   1.460  11.762 -0.9490 -0.2037  0.9530
 2411TIP3   OH228647   5.843   1.234  10.807 -0.3605 -0.4164  0.3911
 2411TIP3    H128648   5.924   1.201  10.767  0.8788  0.0401  2.4480
 2411TIP3    H228649   5.805   1.292  10.741 -0.3508 -2.6149 -1.5989
 2412TIP3   OH228650   4.574   2.067  13.011 -0.2671 -0.4631  0.2872
 2412TIP3    H128651   4.656   2.115  13.020 -1.4413  1.2042  2.5265
 2412TIP3    H228652   4.525   2.117  12.945 -0.0243 -0.6868 -0.0628
 2413TIP3   OH228653   4.819   1.371   1.685 -0.5569  0.0974  0.3374
 2413TIP3    H128654   4.817   1.467   1.692 -1.0382  0.0299  1.2042
 2413TIP3    H228655   4.744   1.342   1.736 -0.3853 -0.7496  0.1084
 2414TIP3   OH228656   2.483   0.262  15.637  0.9298 -0.4947  0.0814
 2414TIP3    H128657   2.438   0.178  15.641  1.9702 -1.0510  0.2185
 2414TIP3    H228658   2.522   0.264  15.550  1.0295 -0.2148  0.1323
 2415TIP3   OH228659   6.689   5.500   1.931 -0.0827 -0.7955 -0.1326
 2415TIP3    H128660   6.721   5.542   1.851  1.1298  0.3741  0.9441
 2415TIP3    H228661   6.640   5.424   1.900  0.9161 -0.7176 -1.9593
 2416TIP3   OH228662   3.153   1.471   2.784 -0.4130 -0.1767  0.7050
 2416TIP3    H128663   3.122   1.506   2.867 -0.7016 -0.9723  0.9409
 2416TIP3    H228664   3.145   1.544   2.722 -0.0466  0.4562  1.4087
 2417TIP3   OH228665   3.309   5.004   5.560 -0.1088 -0.5562 -0.3453
 2417TIP3    H128666   3.383   5.006   5.621 -0.6163 -3.9154  0.4583
 2417TIP3    H228667   3.323   5.080   5.503  2.9755 -0.1239  0.9062
 2418TIP3   OH228668   0.218   0.313   5.572 -0.4328  0.0936  0.0404
 2418TIP3    H128669   0.161   0.332   5.497 -1.4014  0.1604  0.7729
 2418TIP3    H228670   0.157   0.299   5.645  0.4969  0.0509  0.8196
 2419TIP3   OH228671   2.434   5.449   3.546  0.4443 -0.0669 -0.4849
 2419TIP3    H128672   2.378   5.525   3.533  0.4637  0.3181  1.6361
 2419TIP3    H228673   2.523   5.485   3.552  0.3907 -0.1777  1.1438
 2420TIP3   OH228674   4.278   5.235   0.956 -0.4040 -0.0643  0.2848
 2420TIP3    H128675   4.190   5.235   0.917 -0.7370 -2.1589  0.9526
 2420TIP3    H228676   4.267   5.281   1.039 -0.5191  1.0455 -0.3332
 2421TIP3   OH228677   0.699   4.896  10.180 -0.2260  0.1394  0.4519
 2421TIP3    H128678   0.696   4.992  10.187  0.7730  0.2784 -0.6278
 2421TIP3    H228679   0.611   4.871  10.154  0.1424  1.0555 -1.8873
 2422TIP3   OH228680   4.804   4.544   4.121  0.1653  0.5326 -0.2332
 2422TIP3    H128681   4.722   4.592   4.137 -0.0880  0.0243  0.0498
 2422TIP3    H228682   4.790   4.460   4.166  1.2387  0.8352  0.6729
 2423TIP3   OH228683   4.955   1.758   5.122 -0.0217  0.0417 -0.3369
 2423TIP3    H128684   4.873   1.801   5.148 -0.9720 -2.8405  1.6124
 2423TIP3    H228685   5.019   1.789   5.186  0.4157  2.1057 -1.7167
 2424TIP3   OH228686   3.160   0.248   0.070 -0.0683 -0.4896  0.2285
 2424TIP3    H128687   3.138   0.204   0.152 -0.9326  1.0384  0.8437
 2424TIP3    H228688   3.145   0.341   0.088 -0.7578 -0.1736 -1.8264
 2425TIP3   OH228689   6.120   5.028  12.106 -0.0001 -0.2632  0.1832
 2425TIP3    H128690   6.106   5.077  12.025 -1.5131  0.6364  0.9563
 2425TIP3    H228691   6.195   5.070  12.147  1.5483 -1.5149 -1.3293
 2426TIP3   OH228692   5.458   4.008  11.656  0.2409  0.3018  0.9547
 2426TIP3    H128693   5.437   4.063  11.580  1.8186 -0.9019 -0.3871
 2426TIP3    H228694   5.378   3.959  11.672 -0.9938  2.4915  1.7872
 2427TIP3   OH228695   1.526   3.770   3.590  0.1699 -0.4335  0.8996
 2427TIP3    H128696   1.535   3.692   3.645  0.9271 -2.6912 -2.2913
 2427TIP3    H228697   1.595   3.829   3.622 -0.1118 -1.2182  3.0593
 2428TIP3   OH228698   6.773   0.099  12.106  0.0698 -0.2214  0.5549
 2428TIP3    H128699   6.810   0.146  12.181  2.7334 -1.1301 -0.1401
 2428TIP3    H228700   6.736   0.019  12.144  1.7700 -0.8814  0.9101
 2429TIP3   OH228701   3.721   1.951   0.887  0.2970 -0.1858  0.4141
 2429TIP3    H128702   3.698   1.872   0.838 -0.7847 -0.6131  1.5501
 2429TIP3    H228703   3.705   2.023   0.827  1.3991 -0.8492 -0.6747
 2430TIP3   OH228704   6.699   0.590   1.430  0.3844  0.5595  0.1323
 2430TIP3    H128705   6.739   0.675   1.412  0.8139  0.2771 -0.2473
 2430TIP3    H228706   6.743   0.557   1.508  0.4091  0.5591  0.1182
 2431TIP3   OH228707   1.400   5.460  14.952  0.8806 -0.1832  0.5211
 2431TIP3    H128708   1.345   5.427  14.881  0.9037  0.6332  0.1203
 2431TIP3    H228709   1.490   5.451  14.919  0.8698  0.6324  0.2496
 2432TIP3   OH228710   0.251   3.392  11.915 -0.4360 -0.5557  0.3825
 2432TIP3    H128711   0.177   3.405  11.975 -0.7459  0.7060 -0.2476
 2432TIP3    H228712   0.268   3.479  11.879  1.3379 -0.8462  0.4852
 2433TIP3   OH228713   1.835   0.022  13.486 -0.6116 -0.4289 -0.3210
 2433TIP3    H128714   1.812   0.035  13.578  0.6811 -0.4986  0.0302
 2433TIP3    H228715   1.825   0.109  13.446  1.6894  0.2997  0.5657
 2434TIP3   OH228716   4.001   4.102   3.081  0.1148 -0.2482  0.0746
 2434TIP3    H128717   4.071   4.058   3.129 -0.1613 -2.1188 -1.1901
 2434TIP3    H228718   4.031   4.101   2.990 -1.3156 -0.5928 -0.3984
 2435TIP3   OH228719   6.741   4.909   6.104 -0.0122  0.1288  0.3159
 2435TIP3    H128720   6.754   4.814   6.111 -0.6946  0.1472  2.0371
 2435TIP3    H228721   6.824   4.946   6.134 -0.4169  0.0894  1.5235
 2436TIP3   OH228722   4.074   3.036   0.061  0.0535 -0.0699 -0.5635
 2436TIP3    H128723   4.150   3.014   0.114 -0.8038 -0.2892  0.5987
 2436TIP3    H228724   4.108   3.093  -0.008  1.5212 -1.3534 -0.9307
 2437TIP3   OH228725   5.111   2.286  15.565  0.2491  0.4073  0.5366
 2437TIP3    H128726   5.113   2.203  15.516 -0.0536 -0.2710  1.6498
 2437TIP3    H228727   5.023   2.320  15.551  0.0593  0.0559  0.8643
 2438TIP3   OH228728   3.329   4.674   0.213 -0.5091  0.0432  0.0417
 2438TIP3    H128729   3.328   4.581   0.188 -1.4128  0.2159 -0.5913
 2438TIP3    H228730   3.239   4.693   0.239 -0.1516  0.5509  0.9121
 2439TIP3   OH228731   4.835   1.357   1.377  0.0911 -0.1042  0.0423
 2439TIP3    H128732   4.797   1.393   1.457  0.1081  1.4625 -0.6484
 2439TIP3    H228733   4.868   1.271   1.403 -0.6754  0.0381  1.5094
 2440TIP3   OH228734   3.421   2.123   3.366  0.1250  0.0531  0.1237
 2440TIP3    H128735   3.340   2.091   3.406 -0.7280  1.2840 -0.5730
 2440TIP3    H228736   3.484   2.125   3.437 -0.4353 -0.9972  0.6579
 2441TIP3   OH228737   4.966   1.464   4.216 -0.3639  0.6078  0.0061
 2441TIP3    H128738   5.052   1.487   4.181  0.0516 -1.6643 -0.5656
 2441TIP3    H228739   4.963   1.506   4.302  1.2022  0.9327 -0.0822
 2442TIP3   OH228740   1.568   4.587  14.936 -0.0754 -0.1517 -0.2470
 2442TIP3    H128741   1.527   4.563  15.019 -0.9980 -1.8284 -1.1519
 2442TIP3    H228742   1.528   4.670  14.913  0.9316  0.8358  1.4658
 2443TIP3   OH228743   2.543   6.339  13.556 -0.5237  0.2609 -0.0547
 2443TIP3    H128744   2.614   6.336  13.492  0.3607  1.1764  0.8547
 2443TIP3    H228745   2.536   6.432  13.579 -0.2098 -0.1686  1.8309
 2444TIP3   OH228746   3.670   5.032  13.881 -0.3789 -0.6548  0.1756
 2444TIP3    H128747   3.663   5.002  13.972 -1.4101 -1.9762 -0.3345
 2444TIP3    H228748   3.633   5.120  13.883  4.4326  1.5165  2.0582
 2445TIP3   OH228749   3.292   4.221   4.523 -0.1913  0.3947  0.3542
 2445TIP3    H128750   3.252   4.170   4.452 -1.6381  0.6267  0.9819
 2445TIP3    H228751   3.274   4.171   4.602  1.2049  0.2622  0.5959
 2446TIP3   OH228752   1.721   3.019  16.264  0.2148  0.3022  0.1265
 2446TIP3    H128753   1.757   2.957  16.201  1.2829 -0.2536  1.2696
 2446TIP3    H228754   1.790   3.032  16.328  0.3328  3.4077 -0.5720
 2447TIP3   OH228755   2.146   0.086   5.139  0.0028  0.5811  0.0284
 2447TIP3    H128756   2.131   0.147   5.067 -0.1658  0.9545  0.3761
 2447TIP3    H228757   2.228   0.041   5.116 -0.0912  0.6443 -0.4303
 2448TIP3   OH228758   6.717   0.435   4.122  0.1818 -0.1865 -0.8559
 2448TIP3    H128759   6.690   0.398   4.038  2.2638 -2.4644 -0.5495
 2448TIP3    H228760   6.677   0.378   4.187  1.0398 -0.1856 -0.3278
 2449TIP3   OH228761   5.160   1.866  16.600  0.1160 -0.5401  0.4327
 2449TIP3    H128762   5.095   1.932  16.575 -0.9867 -1.7137  0.1509
 2449TIP3    H228763   5.114   1.808  16.661  1.4350 -0.3675  1.6214
 2450TIP3   OH228764   4.042   1.828  15.633  0.6968  0.0729  0.8527
 2450TIP3    H128765   3.992   1.840  15.713 -0.0444  1.2291  0.2431
 2450TIP3    H228766   4.126   1.791  15.661  0.4203  0.4123  2.1424
 2451TIP3   OH228767   4.661   3.940   1.999 -0.2279 -0.0316  0.8846
 2451TIP3    H128768   4.745   3.907   2.033  1.5383  0.0551 -3.0683
 2451TIP3    H228769   4.621   3.864   1.957 -1.8394  0.1050  2.1391
 2452TIP3   OH228770   0.429   6.197  15.600  0.0247 -0.7315  0.1549
 2452TIP3    H128771   0.339   6.172  15.622 -0.4719 -0.9253 -1.9823
 2452TIP3    H228772   0.479   6.178  15.680 -1.6734 -1.3979  1.0972
 2453TIP3   OH228773   6.757   5.564  15.335  0.0518 -0.3830  0.2524
 2453TIP3    H128774   6.851   5.547  15.334  0.0929 -0.4478  2.4498
 2453TIP3    H228775   6.742   5.625  15.262  1.8262 -0.1395  0.0742
 2454TIP3   OH228776   3.232   6.009   5.702 -0.0620 -0.3991  0.0591
 2454TIP3    H128777   3.292   6.059   5.646 -1.5807 -0.3005 -1.5439
 2454TIP3    H228778   3.206   6.070   5.771 -0.4629  0.4466 -0.8330
 2455TIP3   OH228779   4.958   6.518   4.400 -0.4335 -0.4706  0.0181
 2455TIP3    H128780   4.865   6.503   4.382 -0.2534 -1.7144  0.1339
 2455TIP3    H228781   4.959   6.556   4.488 -0.7350 -1.7481  0.5753
 2456TIP3   OH228782   1.534   2.621  12.297 -0.2454 -0.4104 -0.1568
 2456TIP3    H128783   1.557   2.679  12.224  0.2588  1.4434  1.4229
 2456TIP3    H228784   1.444   2.646  12.320  0.6047  1.1002  1.7196
 2457TIP3   OH228785   2.810   3.170  15.892 -0.1898  0.3366  0.8906
 2457TIP3    H128786   2.718   3.166  15.918 -0.7447  1.0419 -0.8607
 2457TIP3    H228787   2.811   3.132  15.804  1.4143 -0.8819  1.4138
 2458TIP3   OH228788   2.647   2.378  12.418  0.0347  0.4089 -0.0036
 2458TIP3    H128789   2.588   2.388  12.343 -0.8240  0.7404  0.7116
 2458TIP3    H228790   2.644   2.462  12.462  1.4532  0.5919 -0.2440
 2459TIP3   OH228791   5.637   5.638  14.671 -0.1954 -0.6268 -0.8815
 2459TIP3    H128792   5.623   5.730  14.647 -0.7077 -0.6615 -0.6995
 2459TIP3    H228793   5.569   5.618  14.735 -0.6089 -1.3776 -1.5442
 2460TIP3   OH228794   3.659   6.370  12.679  0.4221 -0.3221  0.0127
 2460TIP3    H128795   3.599   6.339  12.746 -0.9430  1.1427 -0.4834
 2460TIP3    H228796   3.604   6.382  12.601  1.2269  1.5716 -0.3052
 2461TIP3   OH228797   2.839   0.187   3.459  0.3592  0.3284  0.0143
 2461TIP3    H128798   2.812   0.195   3.367 -0.3244 -1.9305 -0.0162
 2461TIP3    H228799   2.918   0.240   3.465 -0.4613  1.7764 -1.5004
 2462TIP3   OH228800   4.767   5.998   2.131  0.1269 -0.0079 -0.2719
 2462TIP3    H128801   4.681   6.026   2.163 -0.3526 -1.3426 -0.3595
 2462TIP3    H228802   4.776   6.040   2.045  0.1507  1.2090  0.3153
 2463TIP3   OH228803   1.246   4.659   3.126  0.3517 -0.2134 -0.1884
 2463TIP3    H128804   1.224   4.598   3.196  1.3057 -1.8486 -1.2696
 2463TIP3    H228805   1.251   4.605   3.047  0.7681  1.3330 -1.2578
 2464TIP3   OH228806   3.321   6.473   3.651 -0.2322 -0.3198 -0.1891
 2464TIP3    H128807   3.227   6.467   3.666 -0.1676 -0.0025  0.3577
 2464TIP3    H228808   3.357   6.396   3.696 -0.2432 -0.5190 -0.5193
 2465TIP3   OH228809   3.483   6.321   3.403  0.1187 -0.3774 -0.0678
 2465TIP3    H128810   3.506   6.410   3.428  0.0696 -0.1042 -0.9911
 2465TIP3    H228811   3.409   6.298   3.460  1.1745 -0.4291  1.3202
 2466TIP3   OH228812   5.081   2.446   1.897  0.5906  0.3091 -0.0690
 2466TIP3    H128813   5.086   2.358   1.861 -2.6599 -0.5636  1.4637
 2466TIP3    H228814   5.055   2.501   1.823 -1.2054 -0.6776 -0.1966
 2467TIP3   OH228815   3.139   3.588   1.106 -0.0504 -0.0340  0.1295
 2467TIP3    H128816   3.212   3.526   1.098 -0.4239 -0.3579 -0.8998
 2467TIP3    H228817   3.176   3.672   1.080 -0.6217 -0.6313 -2.7532
 2468TIP3   OH228818   3.995   2.840   2.156  0.2697 -0.0941 -0.1170
 2468TIP3    H128819   4.084   2.835   2.191  0.6259  0.5742 -0.9370
 2468TIP3    H228820   3.981   2.755   2.115  1.4788  0.7117 -2.2621
 2469TIP3   OH228821   5.893   4.549   0.279  0.0593  0.2805 -0.0425
 2469TIP3    H128822   5.942   4.468   0.296 -1.0365 -0.5450 -0.7249
 2469TIP3    H228823   5.955   4.606   0.234  1.0546  0.0873  1.0596
 2470TIP3   OH228824   1.299   5.531   3.710  0.7105  0.2432 -0.0704
 2470TIP3    H128825   1.303   5.457   3.650  0.9694 -0.4212  0.7449
 2470TIP3    H228826   1.230   5.508   3.772  1.3084  0.3199  0.6415
 2471TIP3   OH228827   4.340   6.341  15.281 -0.5282  0.9520  0.0059
 2471TIP3    H128828   4.300   6.425  15.303 -2.9563  0.3100 -1.7641
 2471TIP3    H228829   4.426   6.364  15.247 -0.8544  2.6438  0.2711
 2472TIP3   OH228830   6.271   5.845   4.530  0.0197 -0.0555 -0.0706
 2472TIP3    H128831   6.237   5.897   4.602  1.3616 -0.4405  0.8425
 2472TIP3    H228832   6.270   5.904   4.455 -0.1309  0.7295  0.5521
 2473TIP3   OH228833   3.747   5.928   6.404  0.2546 -0.0205 -0.9137
 2473TIP3    H128834   3.836   5.906   6.376  0.0534  0.1380 -1.6687
 2473TIP3    H228835   3.733   6.017   6.371  0.0633  0.2215 -0.2036
 2474TIP3   OH228836   1.688   2.065   4.669  0.0179 -0.1067  0.5156
 2474TIP3    H128837   1.701   2.049   4.762 -0.6423 -0.2216  0.5907
 2474TIP3    H228838   1.598   2.095   4.662  0.8319  2.3439  0.2135
 2475TIP3   OH228839   0.653   4.485  12.975  0.5849 -0.0238 -0.1145
 2475TIP3    H128840   0.590   4.537  12.925  0.9486 -0.8202 -1.4374
 2475TIP3    H228841   0.688   4.423  12.911  1.5179 -0.6586  1.0011
 2476TIP3   OH228842   5.597   4.623   5.701 -0.3302  0.0057  0.2122
 2476TIP3    H128843   5.504   4.642   5.714 -0.5268 -0.5264 -0.3795
 2476TIP3    H228844   5.623   4.574   5.779 -0.5084  0.2852  0.4475
 2477TIP3   OH228845   0.819   6.094   3.023 -0.1871 -0.8266 -0.3253
 2477TIP3    H128846   0.892   6.143   2.985 -0.6389  0.6257  0.6471
 2477TIP3    H228847   0.858   6.010   3.049  1.1795 -0.0441  0.2659
 2478TIP3   OH228848   0.287   3.736  12.791  0.3428 -0.3652 -0.2469
 2478TIP3    H128849   0.202   3.716  12.830  0.3511 -1.8595 -0.9538
 2478TIP3    H228850   0.323   3.650  12.767  2.0549  0.2584  0.0600
 2479TIP3   OH228851   5.367   1.847  11.928  0.3550  0.0229 -0.1400
 2479TIP3    H128852   5.361   1.850  12.023 -0.3530  1.8988 -0.2251
 2479TIP3    H228853   5.425   1.920  11.905 -0.0671  0.0360 -1.1811
 2480TIP3   OH228854   2.201   2.243  12.306  0.5017  0.0017 -0.1403
 2480TIP3    H128855   2.256   2.167  12.285  1.7577  0.5986  0.8716
 2480TIP3    H228856   2.263   2.315  12.313 -0.4556  0.7546  0.7219
 2481TIP3   OH228857   6.081   3.659   4.137  0.5175  0.0920  0.3810
 2481TIP3    H128858   6.021   3.721   4.094  0.9455  0.0547 -0.2827
 2481TIP3    H228859   6.161   3.710   4.152  0.7810 -0.2280  0.0683
 2482TIP3   OH228860   5.204   4.779  12.622 -0.6038  0.0188  0.0945
 2482TIP3    H128861   5.220   4.873  12.616  0.1394 -0.0322  1.0922
 2482TIP3    H228862   5.135   4.771  12.688  0.4433 -0.2313  1.1692
 2483TIP3   OH228863   0.686   6.451   4.489  0.0900 -0.6317 -0.0127
 2483TIP3    H128864   0.775   6.470   4.463  0.0582 -0.3216  0.1035
 2483TIP3    H228865   0.662   6.373   4.439  0.1688 -0.2835 -0.5880
 2484TIP3   OH228866   3.369   2.701  16.527 -0.2089  0.3016  0.1177
 2484TIP3    H128867   3.383   2.606  16.532  0.1680  0.3836  0.6100
 2484TIP3    H228868   3.307   2.712  16.455  1.3407 -0.1563 -1.3352
 2485TIP3   OH228869   0.203   3.645   1.255 -0.4594  0.0306 -0.3113
 2485TIP3    H128870   0.155   3.678   1.331 -2.4953  0.9287 -1.9217
 2485TIP3    H228871   0.281   3.604   1.291 -0.7610  1.5453  2.1790
 2486TIP3   OH228872   5.849   5.953   2.093 -0.7429  0.3560 -0.4714
 2486TIP3    H128873   5.922   5.895   2.113 -0.0237  1.6595  0.8219
 2486TIP3    H228874   5.771   5.903   2.114 -0.1426 -0.2901  0.2452
 2487TIP3   OH228875   5.327   1.739  13.295  0.6042  0.0353 -0.0221
 2487TIP3    H128876   5.269   1.676  13.251  1.8621  0.5013 -2.4690
 2487TIP3    H228877   5.276   1.772  13.368 -1.5792 -0.8575 -1.0971
 2488TIP3   OH228878   6.655   5.849   1.759 -0.3224 -0.6985  0.0928
 2488TIP3    H128879   6.601   5.885   1.829 -0.4862 -1.0493  0.1511
 2488TIP3    H228880   6.592   5.823   1.692 -0.0718  0.8395 -0.7452
 2489TIP3   OH228881   2.712   0.132  14.037  0.2692  0.1148  0.1598
 2489TIP3    H128882   2.804   0.130  14.063  0.4610  0.5435 -0.4947
 2489TIP3    H228883   2.666   0.093  14.111  0.7443  1.9487  1.4471
 2490TIP3   OH228884   4.976   1.201   3.331  0.0062 -0.0187 -0.0658
 2490TIP3    H128885   5.014   1.119   3.361 -1.1253  0.2918  2.4081
 2490TIP3    H228886   4.886   1.178   3.307 -0.0942  0.3615 -0.0566
 2491TIP3   OH228887   1.772   3.117  12.747  0.4511 -0.3707 -0.0098
 2491TIP3    H128888   1.862   3.127  12.776  0.9112  1.4154 -1.9600
 2491TIP3    H228889   1.777   3.111  12.652 -1.6469  2.3861 -0.3823
 2492TIP3   OH228890   3.868   2.843   0.348 -0.3849  0.4102 -0.0034
 2492TIP3    H128891   3.917   2.775   0.302 -0.4677 -0.1383  0.7166
 2492TIP3    H228892   3.926   2.919   0.349  0.7442 -0.4463  1.4633
 2493TIP3   OH228893   4.324   6.374  11.608 -0.0592 -0.1575  0.0718
 2493TIP3    H128894   4.414   6.352  11.633 -1.1667 -3.0189  1.8004
 2493TIP3    H228895   4.291   6.426  11.681 -0.5987 -1.2330  0.5925
 2494TIP3   OH228896   0.176   3.424   3.293  0.8583  0.2385  0.2770
 2494TIP3    H128897   0.261   3.455   3.324  1.2103 -0.4751  0.0305
 2494TIP3    H228898   0.173   3.448   3.200  0.0536  1.8357  0.6919
 2495TIP3   OH228899   1.611   0.142   5.470  0.0784 -0.2370  0.0284
 2495TIP3    H128900   1.638   0.234   5.474  0.4059 -0.1240 -3.3433
 2495TIP3    H228901   1.516   0.145   5.482  0.3309  0.3002  2.1250
 2496TIP3   OH228902   0.756   3.166  12.305 -0.1766  0.2799 -0.1181
 2496TIP3    H128903   0.785   3.183  12.395  0.8589  0.4632 -0.4755
 2496TIP3    H228904   0.669   3.128  12.315 -0.5200  1.3149  0.9153
 2497TIP3   OH228905   6.009   4.320   2.839  0.5850 -0.2564 -0.1882
 2497TIP3    H128906   6.091   4.300   2.793  1.3919  0.5897  0.8811
 2497TIP3    H228907   6.022   4.285   2.927 -0.2354 -0.1855 -0.0404
 2498TIP3   OH228908   6.190   0.137  13.011  0.1146  0.3759 -0.0796
 2498TIP3    H128909   6.243   0.182  13.076 -0.9667 -1.5780  2.2524
 2498TIP3    H228910   6.218   0.046  13.016  1.6874  0.5178 -4.1196
 2499TIP3   OH228911   3.763   3.781  12.648  0.2350 -0.4133 -0.1607
 2499TIP3    H128912   3.844   3.794  12.697  0.8081 -1.1541 -0.8863
 2499TIP3    H228913   3.793   3.750  12.562 -0.7301  1.1377 -1.0683
 2500TIP3   OH228914   6.250   4.413  12.472  0.2621 -0.0050 -0.2019
 2500TIP3    H128915   6.328   4.378  12.430 -0.3135 -1.1997 -0.2847
 2500TIP3    H228916   6.228   4.490  12.420  0.2471 -0.7913 -1.3690
 2501TIP3   OH228917   0.321   0.232   2.554  0.3887  0.1045 -0.2518
 2501TIP3    H128918   0.270   0.247   2.633  0.9177  1.8708 -0.2300
 2501TIP3    H228919   0.357   0.144   2.565 -0.3363 -0.0432  1.0150
 2502TIP3   OH228920   3.790   5.221   0.217  0.3896  0.9359  0.3743
 2502TIP3    H128921   3.818   5.190   0.304  0.3588  1.4187  0.5584
 2502TIP3    H228922   3.747   5.146   0.178 -0.1910  0.9160  1.0479
 2503TIP3   OH228923   5.411   2.897  15.343  0.0963  0.0971 -0.4360
 2503TIP3    H128924   5.348   2.966  15.366  1.2445  0.1648  2.7969
 2503TIP3    H228925   5.426   2.851  15.426  1.2685 -2.4369 -2.0230
 2504TIP3   OH228926   5.873   4.988   0.348  0.4513  0.2963  0.2485
 2504TIP3    H128927   5.817   5.062   0.369  0.4579  0.4713 -0.3488
 2504TIP3    H228928   5.820   4.933   0.291  1.2842  1.0497 -1.2903
 2505TIP3   OH228929   6.537   2.436   2.736 -0.2975  0.1223 -0.2292
 2505TIP3    H128930   6.514   2.506   2.798 -0.1432  0.4598 -0.5508
 2505TIP3    H228931   6.583   2.371   2.789  1.0068  1.0284 -0.2419
 2506TIP3   OH228932   3.961   5.136  12.307  0.0960 -0.0006  0.1525
 2506TIP3    H128933   4.010   5.203  12.355  0.1685  0.3020 -0.3417
 2506TIP3    H228934   4.026   5.068  12.288 -0.1177 -0.5119  1.2079
 2507TIP3   OH228935   1.804   6.391  15.066 -0.2973 -0.0637 -0.0589
 2507TIP3    H128936   1.836   6.473  15.101 -2.0206  0.2422  0.8710
 2507TIP3    H228937   1.881   6.335  15.060  0.5589  0.9678  1.1607
 2508TIP3   OH228938   4.872   4.158  13.091 -0.0198 -0.1253 -0.2445
 2508TIP3    H128939   4.848   4.075  13.050 -0.3198 -0.4673  0.6073
 2508TIP3    H228940   4.919   4.206  13.023  1.0720 -1.4136 -0.4138
 2509TIP3   OH228941   6.667   1.964  12.090 -0.0122  0.5716  0.5336
 2509TIP3    H128942   6.698   2.034  12.147  1.0790  0.4964  0.0505
 2509TIP3    H228943   6.615   2.008  12.023 -1.0615  0.6915  1.4098
 2510TIP3   OH228944   2.732   4.143   1.836 -0.0901 -0.4609  0.2262
 2510TIP3    H128945   2.683   4.079   1.889 -1.7408 -2.4925 -3.5655
 2510TIP3    H228946   2.795   4.090   1.787  1.5055  1.3888  0.2319
 2511TIP3   OH228947   2.064   4.821   0.069 -0.6901 -0.1317 -0.3128
 2511TIP3    H128948   2.043   4.901   0.116  0.5091 -0.5348  0.9259
 2511TIP3    H228949   1.979   4.787   0.041 -1.3438  0.6061  0.7413
 2512TIP3   OH228950   2.472   4.161  14.989  0.9292  0.0219 -0.2608
 2512TIP3    H128951   2.556   4.171  14.944  0.8106 -1.5873 -0.8827
 2512TIP3    H228952   2.496   4.144  15.080  1.3116 -0.9674 -0.5359
 2513TIP3   OH228953   0.347   5.911   3.439 -0.5436 -0.2854 -0.4617
 2513TIP3    H128954   0.402   5.886   3.364  3.0041 -1.8195  2.5096
 2513TIP3    H228955   0.354   6.006   3.444  1.0798 -0.3871 -0.6930
 2514TIP3   OH228956   1.295   1.344   3.681  0.0974 -0.0594  0.4608
 2514TIP3    H128957   1.227   1.397   3.640 -0.1377 -0.6156  0.1238
 2514TIP3    H228958   1.255   1.258   3.693  0.2862 -0.0141  1.5255
 2515TIP3   OH228959   1.197   2.532   1.247  0.6602  0.5533  0.1136
 2515TIP3    H128960   1.138   2.495   1.181  0.2263  0.3301  0.6196
 2515TIP3    H228961   1.210   2.461   1.309  0.0778  1.1544  0.9267
 2516TIP3   OH228962   2.108   6.440   1.766  0.1917 -0.0648  0.3211
 2516TIP3    H128963   2.056   6.502   1.817 -0.3562  0.6274 -1.0625
 2516TIP3    H228964   2.195   6.444   1.806  0.2602  1.8657  0.0334
 2517TIP3   OH228965   3.726   6.086   0.941 -0.6004  0.3528 -0.6715
 2517TIP3    H128966   3.688   6.171   0.919 -2.5927  0.7967  3.9373
 2517TIP3    H228967   3.652   6.025   0.936  0.6399 -1.0356 -3.0876
 2518TIP3   OH228968   0.280   0.838   0.269 -0.2935 -0.2534 -0.3751
 2518TIP3    H128969   0.297   0.858   0.177  0.3781  3.4133  0.4448
 2518TIP3    H228970   0.366   0.845   0.311 -0.4454 -2.8128  0.4060
 2519TIP3   OH228971   3.383   2.772   4.774 -0.0763 -0.0035 -0.6988
 2519TIP3    H128972   3.476   2.793   4.776 -0.2348  0.6483  1.4232
 2519TIP3    H228973   3.342   2.842   4.825 -1.5277 -1.2205 -0.1550
 2520TIP3   OH228974   2.447   3.433   5.399  0.2849 -0.1432  0.3812
 2520TIP3    H128975   2.444   3.441   5.495 -0.7970  0.6883  0.2876
 2520TIP3    H228976   2.372   3.379   5.377  0.8449 -0.7776  0.0434
 2521TIP3   OH228977   3.010   1.394   3.842 -0.6374  0.2807 -0.5405
 2521TIP3    H128978   3.089   1.348   3.869 -0.1083  1.6978  0.3939
 2521TIP3    H228979   3.035   1.440   3.761 -1.2015 -1.1535 -1.5432
 2522TIP3   OH228980   6.078   1.161   2.090 -0.1305  0.4194  0.2803
 2522TIP3    H128981   6.091   1.252   2.063 -0.7791  0.4025 -0.1249
 2522TIP3    H228982   6.032   1.121   2.016  1.7764 -0.7242 -0.3155
 2523TIP3   OH228983   5.553   5.266  12.305  0.3727  0.1838 -0.2265
 2523TIP3    H128984   5.585   5.202  12.241  1.2407  0.9910 -0.6133
 2523TIP3    H228985   5.631   5.314  12.332 -0.4606  1.9524 -0.9074
 2524TIP3   OH228986   1.392   4.644   3.632  0.5315 -0.1000  0.0250
 2524TIP3    H128987   1.380   4.739   3.624 -2.5965 -0.5368 -1.1920
 2524TIP3    H228988   1.458   4.623   3.566 -0.3616  0.9685 -1.2528
 2525TIP3   OH228989   4.488   1.114   3.026  0.0298  0.1212  0.2590
 2525TIP3    H128990   4.564   1.148   3.073  1.1800 -1.0513 -0.7317
 2525TIP3    H228991   4.516   1.029   2.992 -1.1685  0.4096 -1.5336
 2526TIP3   OH228992   1.525   3.103  14.113 -0.8015  0.2507  0.0938
 2526TIP3    H128993   1.445   3.103  14.164 -0.2045 -2.0338  1.1038
 2526TIP3    H228994   1.501   3.145  14.030 -4.0144 -3.4109 -1.0315
 2527TIP3   OH228995   2.101   1.263  14.560  0.2832 -0.5677  0.1646
 2527TIP3    H128996   2.046   1.328  14.516 -0.8745 -1.1507  0.7178
 2527TIP3    H228997   2.117   1.300  14.646 -1.7017 -1.6817  1.0616
 2528TIP3   OH228998   6.171   2.428   3.030 -0.2526 -0.2658  0.2674
 2528TIP3    H128999   6.077   2.415   3.036 -0.3713  0.2119 -0.3888
 2528TIP3    H229000   6.200   2.442   3.120 -0.7293 -0.9219  0.5220
 2529TIP3   OH229001   0.523   4.152  12.154  0.1766 -0.3047  0.1007
 2529TIP3    H129002   0.443   4.100  12.162  0.8326 -1.1612  1.3640
 2529TIP3    H229003   0.578   4.103  12.094 -0.5723  0.7414 -1.4842
 2530TIP3   OH229004   2.034   2.002  15.959 -0.5861 -0.1980  0.6726
 2530TIP3    H129005   2.032   1.956  15.875  0.2595 -0.9190  1.0348
 2530TIP3    H229006   2.084   1.944  16.016  2.1957  1.9968  0.6270
 2531TIP3   OH229007   5.164   1.447  16.061 -0.3724 -0.4851 -0.3534
 2531TIP3    H129008   5.085   1.430  16.113 -0.5257  0.2741 -0.3343
 2531TIP3    H229009   5.143   1.525  16.010  0.3319 -0.3491 -0.4378
 2532TIP3   OH229010   0.488   5.097   1.362 -0.3866 -0.5522 -0.4124
 2532TIP3    H129011   0.487   5.094   1.266 -1.3561 -1.0640 -0.3864
 2532TIP3    H229012   0.449   5.182   1.383 -2.2353 -1.3861 -0.4265
 2533TIP3   OH229013   2.791   3.547  12.958 -0.1659 -0.3137  0.0923
 2533TIP3    H129014   2.843   3.581  12.885 -0.6245  0.1757 -0.0071
 2533TIP3    H229015   2.818   3.455  12.965 -0.4767 -0.4954 -1.0102
 2534TIP3   OH229016   0.475   6.538  16.553 -0.2742 -1.2486  0.1241
 2534TIP3    H129017   0.536   6.549  16.626  1.1434 -1.0599 -1.0667
 2534TIP3    H229018   0.469   6.444  16.540  0.5513 -1.2348 -0.3954
 2535TIP3   OH229019   2.878   1.445  13.374 -0.1541  0.5211  0.5794
 2535TIP3    H129020   2.910   1.530  13.343  0.5005 -0.3900 -1.3701
 2535TIP3    H229021   2.807   1.423  13.314  0.0290 -0.5348  0.7404
 2536TIP3   OH229022   2.115   2.996   2.320  0.2769 -0.3584 -0.2032
 2536TIP3    H129023   2.177   3.065   2.295  0.7748 -1.1229 -1.1165
 2536TIP3    H229024   2.168   2.917   2.326 -0.5658 -0.9674 -0.7102
 2537TIP3   OH229025   2.793   5.878  12.207 -0.1972 -0.3977  0.0769
 2537TIP3    H129026   2.776   5.832  12.290 -2.0765  0.3698  0.1579
 2537TIP3    H229027   2.765   5.968  12.224 -0.3604 -0.1746 -1.3146
 2538TIP3   OH229028   0.191   6.002  12.480  0.0235  0.0216 -0.4983
 2538TIP3    H129029   0.250   6.070  12.512 -0.4248  0.3921 -0.4528
 2538TIP3    H229030   0.211   5.996  12.387  0.7035 -0.4324 -0.3303
 2539TIP3   OH229031   6.118   0.795   6.217 -0.0457  0.8218 -0.5903
 2539TIP3    H129032   6.053   0.779   6.148  1.3336  1.0139 -1.9627
 2539TIP3    H229033   6.186   0.847   6.174  1.8429 -0.8056  0.3568
 2540TIP3   OH229034   1.755   1.247  12.396 -0.0943 -0.1369 -0.1339
 2540TIP3    H129035   1.742   1.152  12.388 -0.0608 -0.4677  3.3294
 2540TIP3    H229036   1.715   1.282  12.316 -1.5598 -2.9304 -0.7175
 2541TIP3   OH229037   4.393   2.701  10.818  0.3390  0.5046  0.5648
 2541TIP3    H129038   4.455   2.739  10.880  0.9772 -0.9801  0.8447
 2541TIP3    H229039   4.414   2.608  10.816 -0.1805  0.4037 -1.2998
 2542TIP3   OH229040   2.994   2.003   4.801  0.6981  0.2565 -0.1347
 2542TIP3    H129041   3.021   1.911   4.802 -0.4729 -0.0962  0.6331
 2542TIP3    H229042   3.066   2.050   4.841  1.3692 -0.3138 -0.6639
 2543TIP3   OH229043   1.758   5.958  13.058 -0.5512 -0.4853 -0.2283
 2543TIP3    H129044   1.742   6.017  12.984  0.4768 -1.2835 -1.1215
 2543TIP3    H229045   1.846   5.980  13.087 -0.0217 -1.7845 -0.7938
 2544TIP3   OH229046   1.437   4.768   4.442 -0.2519 -0.0869  0.2093
 2544TIP3    H129047   1.454   4.709   4.368 -2.2464 -0.3387 -0.0674
 2544TIP3    H229048   1.409   4.711   4.513 -0.5378  0.3643  0.4609
 2545TIP3   OH229049   2.563   6.668   3.726 -0.1564  0.9261 -0.3296
 2545TIP3    H129050   2.515   6.586   3.711  0.6319  0.4373 -0.2285
 2545TIP3    H229051   2.578   6.669   3.821  1.8561  0.0207 -0.6104
 2546TIP3   OH229052   3.686   6.076   3.396  0.1267  0.1037 -0.0779
 2546TIP3    H129053   3.659   6.008   3.335 -0.2547  0.5773 -0.4374
 2546TIP3    H229054   3.616   6.141   3.393  0.3831  0.4104  0.4262
 2547TIP3   OH229055   5.506   2.243  12.664 -0.4700  0.8908  0.0826
 2547TIP3    H129056   5.597   2.232  12.691 -1.2401 -4.6192  1.0887
 2547TIP3    H229057   5.457   2.250  12.746 -1.2426  0.4812 -0.3328
 2548TIP3   OH229058   0.676   3.313   0.970 -0.1964  0.0644  0.1169
 2548TIP3    H129059   0.701   3.383   1.031 -0.6411  0.6126 -0.3251
 2548TIP3    H229060   0.584   3.295   0.990 -0.3653  0.2989 -0.4423
 2549TIP3   OH229061   0.968   4.196  16.637 -0.7057  0.0497 -0.0596
 2549TIP3    H129062   0.900   4.184  16.571 -0.8844 -0.3814  0.2008
 2549TIP3    H229063   0.981   4.109  16.675  0.2872  0.0440 -0.3974
 2550TIP3   OH229064   3.251   5.244  11.112  0.1508 -0.3806  0.4037
 2550TIP3    H129065   3.252   5.156  11.074 -1.1203 -0.5846  0.8373
 2550TIP3    H229066   3.294   5.299  11.046  0.8367 -1.2956  0.0777
 2551TIP3   OH229067   1.846   6.043   5.988 -0.6094 -0.2586 -0.0318
 2551TIP3    H129068   1.786   5.970   5.979 -0.7043 -0.0942 -0.7642
 2551TIP3    H229069   1.817   6.106   5.922  0.3618 -0.1853 -0.3993
 2552TIP3   OH229070   5.668   1.876   4.076  0.5791  0.3533  0.1232
 2552TIP3    H129071   5.727   1.947   4.050 -0.4296  1.0377 -0.3672
 2552TIP3    H229072   5.585   1.920   4.094 -0.0527 -0.7034 -0.1584
 2553TIP3   OH229073   5.357   3.217  15.409 -0.2847 -0.0012 -0.4692
 2553TIP3    H129074   5.271   3.258  15.417  0.2096  0.9927 -0.2927
 2553TIP3    H229075   5.397   3.259  15.334  0.4230  0.1953  0.0160
 2554TIP3   OH229076   4.993   2.494   1.295  0.1950  0.1297 -0.4131
 2554TIP3    H129077   4.898   2.506   1.306 -0.1926  0.1153 -3.3116
 2554TIP3    H229078   5.005   2.400   1.291  0.4599  0.1049  0.8502
 2555TIP3   OH229079   2.095   2.845   1.230  0.0841 -0.2759  0.1488
 2555TIP3    H129080   2.119   2.876   1.317  1.2510 -1.3980  0.2505
 2555TIP3    H229081   2.086   2.924   1.177 -1.7088  0.4883  1.5280
 2556TIP3   OH229082   1.639   0.059  15.656  0.5813  0.2193 -0.0416
 2556TIP3    H129083   1.727   0.049  15.690  0.8620  1.6331 -0.2953
 2556TIP3    H229084   1.603   0.134  15.705  0.2710  0.9640 -1.3839
 2557TIP3   OH229085   0.101   3.140   3.941 -0.7134  0.4267  0.2203
 2557TIP3    H129086   0.139   3.225   3.963 -0.3552 -0.2271  2.2818
 2557TIP3    H229087   0.011   3.145   3.972 -0.9782  0.3987 -0.5490
 2558TIP3   OH229088   1.030   3.728   0.642  0.2067  0.1426 -0.1563
 2558TIP3    H129089   1.028   3.824   0.643  1.3580  0.1762  1.1704
 2558TIP3    H229090   1.029   3.704   0.550 -0.2159  1.4271 -0.4961
 2559TIP3   OH229091   1.119   5.218   5.229 -0.5261 -0.1330 -0.3185
 2559TIP3    H129092   1.134   5.139   5.177 -1.3072  0.9086 -2.1917
 2559TIP3    H229093   1.144   5.194   5.318 -0.1399 -2.2843 -0.9868
 2560TIP3   OH229094   3.956   2.011  17.066 -0.5378 -0.3672  0.0856
 2560TIP3    H129095   3.919   1.938  17.017  0.7508 -0.9778 -0.0046
 2560TIP3    H229096   3.915   2.089  17.028  0.9677 -0.7753 -2.5112
 2561TIP3   OH229097   6.071   6.416   2.638 -0.2233 -0.8309  0.0072
 2561TIP3    H129098   6.027   6.492   2.602  0.1694 -0.2320  0.7727
 2561TIP3    H229099   6.084   6.358   2.563  0.2259  0.2197 -0.7467
 2562TIP3   OH229100   3.857   2.726  15.819  0.3651 -0.2530 -0.1730
 2562TIP3    H129101   3.902   2.809  15.806  2.8318 -1.0969  2.4872
 2562TIP3    H229102   3.896   2.667  15.755  2.3598 -0.6903  1.3947
 2563TIP3   OH229103   5.705   6.473   1.497 -0.2683 -0.1457 -0.2291
 2563TIP3    H129104   5.616   6.438   1.487  0.6731 -2.5107 -0.5915
 2563TIP3    H229105   5.751   6.408   1.551  1.3155  0.9498 -0.2180
 2564TIP3   OH229106   0.310   2.292  12.104  0.0795  0.1888  0.4974
 2564TIP3    H129107   0.314   2.350  12.028  0.8567  0.4998  0.7672
 2564TIP3    H229108   0.402   2.278  12.128  0.0187 -3.0246 -0.9788
 2565TIP3   OH229109   5.247   5.350  16.763 -0.8331 -0.3333  0.1129
 2565TIP3    H129110   5.214   5.438  16.782  0.2324  0.1437 -0.1464
 2565TIP3    H229111   5.223   5.335  16.671 -2.3970 -0.9695  0.6069
 2566TIP3   OH229112   3.692   3.438   5.638 -0.3376  0.5989 -0.0085
 2566TIP3    H129113   3.670   3.530   5.622  1.0370  0.9671  0.1256
 2566TIP3    H229114   3.729   3.408   5.555 -1.9245 -0.2052 -0.4470
 2567TIP3   OH229115   2.574   0.635  16.006 -0.8534 -0.2503 -0.2224
 2567TIP3    H129116   2.656   0.635  16.054  0.0932  1.6641 -1.7818
 2567TIP3    H229117   2.587   0.569  15.937 -1.1402 -0.9067  0.3399
 2568TIP3   OH229118   3.027   2.819  14.997 -0.1579 -0.1517 -0.2434
 2568TIP3    H129119   2.968   2.874  15.049  0.7391  0.1197  0.5032
 2568TIP3    H229120   3.009   2.730  15.026  0.0432 -0.0376  0.2395
 2569TIP3   OH229121   1.336   0.271   6.728  0.5729  0.1245  0.5867
 2569TIP3    H129122   1.376   0.356   6.742 -0.0104  0.4469  0.3007
 2569TIP3    H229123   1.392   0.229   6.662  0.3071  0.6632  0.0200
 2570TIP3   OH229124   5.951   6.709   0.849  0.2949  0.1201 -0.1368
 2570TIP3    H129125   5.993   6.741   0.929  1.7675 -1.4549 -0.2376
 2570TIP3    H229126   5.882   6.651   0.880 -0.6200  1.2689  0.0068
 2571TIP3   OH229127   6.090   6.109   4.415 -0.0028  0.3498  0.3134
 2571TIP3    H129128   6.080   6.020   4.380 -1.4710  0.3282  0.7606
 2571TIP3    H229129   6.130   6.096   4.501  2.8716  0.3510 -0.9776
 2572TIP3   OH229130   2.335   2.434  12.767  0.1529 -0.4253  0.3587
 2572TIP3    H129131   2.386   2.491  12.824 -1.7604 -0.3211  2.0364
 2572TIP3    H229132   2.245   2.442  12.799 -0.5931 -2.2372 -1.1577
 2573TIP3   OH229133   2.446   5.440  12.441 -0.0410 -0.6204  0.1008
 2573TIP3    H129134   2.370   5.414  12.389 -0.5870 -0.4084  0.7785
 2573TIP3    H229135   2.437   5.390  12.522  0.8432 -1.0067 -0.0408
 2574TIP3   OH229136   6.677   1.501   0.903 -0.2808  0.0688  0.6709
 2574TIP3    H129137   6.741   1.564   0.936  1.1098 -1.4791  0.9901
 2574TIP3    H229138   6.650   1.452   0.981 -1.4594  0.3501  0.4486
 2575TIP3   OH229139   6.069   1.179  10.634 -0.3051  0.3868 -0.1678
 2575TIP3    H129140   6.090   1.233  10.558 -0.5827 -0.0428 -0.5597
 2575TIP3    H229141   6.132   1.107  10.630  0.2361  0.8259  0.5056
 2576TIP3   OH229142   4.159   5.738   5.530 -0.5709  0.1626  0.3277
 2576TIP3    H129143   4.134   5.793   5.456  1.8041  1.4544  0.4234
 2576TIP3    H229144   4.199   5.799   5.592 -0.8072 -1.1995  1.8488
 2577TIP3   OH229145   4.501   4.948  14.321 -0.5936 -0.1443 -0.1033
 2577TIP3    H129146   4.424   5.002  14.305 -0.5680 -0.4057 -1.2277
 2577TIP3    H229147   4.548   4.950  14.237  1.3966  1.2275  1.0187
 2578TIP3   OH229148   6.387   5.117   2.017 -0.0910 -0.6332  0.3370
 2578TIP3    H129149   6.316   5.078   1.966  0.4793 -1.3440  0.0730
 2578TIP3    H229150   6.428   5.179   1.957 -1.0012  0.3742  0.7581
 2579TIP3   OH229151   2.721   2.172   0.714 -0.2860 -0.2570  0.1136
 2579TIP3    H129152   2.732   2.095   0.658 -0.8019 -0.5390  0.3927
 2579TIP3    H229153   2.761   2.147   0.798 -1.2896 -0.5641  0.5018
 2580TIP3   OH229154   3.811   2.084  16.361 -0.1776  0.1176 -0.3187
 2580TIP3    H129155   3.730   2.134  16.371 -0.4294 -0.4364  0.4482
 2580TIP3    H229156   3.801   2.039  16.277 -0.7944 -0.1713 -0.0949
 2581TIP3   OH229157   0.181   1.857   1.260  0.4377 -0.1307 -0.0151
 2581TIP3    H129158   0.224   1.926   1.211 -0.4869  0.2626 -0.2876
 2581TIP3    H229159   0.125   1.813   1.196 -0.7563  0.3751  0.6682
 2582TIP3   OH229160   3.246   2.362  11.222  0.4129 -0.3227  0.0187
 2582TIP3    H129161   3.210   2.445  11.190  2.6086  1.9182  3.0127
 2582TIP3    H229162   3.170   2.310  11.247 -1.0224  0.5582 -2.4109
 2583TIP3   OH229163   4.727   2.845  14.758  0.2418 -0.5308 -0.0412
 2583TIP3    H129164   4.655   2.865  14.698  0.3896  0.4094  0.0832
 2583TIP3    H229165   4.695   2.876  14.843  0.7703 -0.1777  0.0267
 2584TIP3   OH229166   6.249   6.202  15.669  0.9877 -0.1982  0.0994
 2584TIP3    H129167   6.297   6.240  15.596  0.1223 -0.3797 -0.5653
 2584TIP3    H229168   6.162   6.242  15.666  0.5895 -1.0161  0.3627
 2585TIP3   OH229169   6.344   5.192  11.593 -0.8037 -0.1608  0.4379
 2585TIP3    H129170   6.290   5.146  11.657  0.7239  0.2690  2.0905
 2585TIP3    H229171   6.381   5.123  11.539 -3.7131 -0.4056 -1.3544
 2586TIP3   OH229172   0.200   6.266   4.275  0.2562 -0.2502  0.0964
 2586TIP3    H129173   0.289   6.232   4.275  0.3808  0.0806  0.5950
 2586TIP3    H229174   0.209   6.359   4.291 -0.2350 -0.3603  1.0403
 2587TIP3   OH229175   0.809   6.383  16.451  0.1430 -0.3592 -0.3328
 2587TIP3    H129176   0.808   6.477  16.468  0.5158 -0.2417 -0.9778
 2587TIP3    H229177   0.816   6.375  16.356 -0.0401 -1.0390 -0.2912
 2588TIP3   OH229178   5.078   3.742  14.027  0.1442 -0.0280 -0.4102
 2588TIP3    H129179   5.111   3.705  14.109  0.7411 -0.3691 -0.7998
 2588TIP3    H229180   4.983   3.747  14.040  0.4090  1.7183  1.0311
 2589TIP3   OH229181   4.181   0.527   6.161 -0.1982  0.2319  0.5082
 2589TIP3    H129182   4.165   0.450   6.215 -0.4468 -0.2698 -0.2699
 2589TIP3    H229183   4.186   0.600   6.223 -1.3789 -0.2021  1.1164
 2590TIP3   OH229184   2.350   6.564   5.433  0.0733  0.0484  0.0071
 2590TIP3    H129185   2.284   6.574   5.364  0.4465 -1.2649 -0.5700
 2590TIP3    H229186   2.345   6.645   5.484 -1.6165  0.1772 -0.3424
 2591TIP3   OH229187   0.375   0.042  12.013  0.0882  0.0293 -0.1467
 2591TIP3    H129188   0.352  -0.027  12.075  1.7605 -1.8858 -1.6019
 2591TIP3    H229189   0.320   0.024  11.936 -0.8695  1.4893  0.1671
 2592TIP3   OH229190   6.608   2.218  13.761 -0.6866 -0.0017  0.5790
 2592TIP3    H129191   6.575   2.291  13.813 -1.0918 -0.3829  0.8600
 2592TIP3    H229192   6.664   2.169  13.821 -0.2409  0.1986  0.3283
 2593TIP3   OH229193   5.343   3.241   4.956  0.3448  0.6407  1.0360
 2593TIP3    H129194   5.405   3.227   4.885 -1.6700  1.6566 -0.9716
 2593TIP3    H229195   5.375   3.321   4.999  0.1163  1.5208 -0.3804
 2594TIP3   OH229196   0.303   6.689  15.658  0.1955 -0.3944  0.0870
 2594TIP3    H129197   0.336   6.711  15.571 -0.7624 -0.5511 -0.3249
 2594TIP3    H229198   0.298   6.593  15.658 -0.8578 -0.3512 -0.0983
 2595TIP3   OH229199   4.218   5.288  17.142  0.4314 -0.0964  0.0872
 2595TIP3    H129200   4.312   5.309  17.139  0.5522 -0.3595  1.4211
 2595TIP3    H229201   4.191   5.317  17.229 -1.4053  2.6971 -1.3242
 2596TIP3   OH229202   0.541   3.409   1.712 -0.1150 -0.1186  1.0780
 2596TIP3    H129203   0.595   3.472   1.666  0.0241 -1.4636 -0.6507
 2596TIP3    H229204   0.528   3.447   1.799  2.6135  0.7632  1.1316
 2597TIP3   OH229205   4.681   2.508  13.999 -0.5504  0.3852  0.3975
 2597TIP3    H129206   4.756   2.468  14.041 -0.9338  1.4899  2.2091
 2597TIP3    H229207   4.628   2.543  14.071 -2.4415  0.2459 -0.8709
 2598TIP3   OH229208   1.923   4.464   4.232  0.7244 -0.0225  0.0995
 2598TIP3    H129209   2.009   4.436   4.201  0.7264 -1.2853  1.1871
 2598TIP3    H229210   1.901   4.540   4.178  1.7505 -0.7426 -1.3422
 2599TIP3   OH229211   5.442   4.667   0.005  0.0690  0.2376 -0.1611
 2599TIP3    H129212   5.368   4.684  -0.053  1.7100 -0.5934 -2.5709
 2599TIP3    H229213   5.446   4.572   0.012  0.6305  0.2949  0.3672
 2600TIP3   OH229214   1.597   5.773  15.286  0.0954 -0.2173 -0.4678
 2600TIP3    H129215   1.670   5.835  15.285 -0.1399  0.0864  0.8873
 2600TIP3    H229216   1.531   5.814  15.342 -0.9334 -0.7076 -1.2979
 2601TIP3   OH229217   3.780   5.385  12.799 -0.1652 -0.4730  0.4122
 2601TIP3    H129218   3.780   5.290  12.802  1.6475 -0.4864  0.4606
 2601TIP3    H229219   3.747   5.413  12.884  2.3958 -1.0607  1.6392
 2602TIP3   OH229220   4.348   4.895  16.092  0.4061 -0.6084  0.3926
 2602TIP3    H129221   4.254   4.896  16.110  0.3300 -0.6429  0.0016
 2602TIP3    H229222   4.388   4.925  16.173  0.0171  0.1590  0.3064
 2603TIP3   OH229223   0.625   4.588   0.743  0.1716 -0.3192  0.1079
 2603TIP3    H129224   0.633   4.652   0.672 -0.4211  0.0132  0.3376
 2603TIP3    H229225   0.678   4.514   0.714 -0.5859 -0.4458 -0.9875
 2604TIP3   OH229226   2.401   5.049  13.514  0.4494  0.3097 -0.6877
 2604TIP3    H129227   2.369   4.962  13.538  1.0905  0.3340  0.3164
 2604TIP3    H229228   2.385   5.103  13.592 -0.7150  1.3112 -1.5926
 2605TIP3   OH229229   2.627   1.426   2.179 -0.5843 -0.3197  0.4745
 2605TIP3    H129230   2.719   1.414   2.204 -0.2187  0.1422 -0.6231
 2605TIP3    H229231   2.588   1.473   2.253  0.1762 -0.0680  0.7234
 2606TIP3   OH229232   5.192   2.126   2.584  0.7475 -1.1401 -0.4115
 2606TIP3    H129233   5.151   2.204   2.624 -0.1838 -1.8780  0.0925
 2606TIP3    H229234   5.202   2.149   2.491  1.9941  0.2018  0.0359
 2607TIP3   OH229235   4.679   3.914  16.123 -0.1539 -0.3535 -0.6133
 2607TIP3    H129236   4.730   3.870  16.055 -0.4926  1.6438 -2.2299
 2607TIP3    H229237   4.743   3.937  16.190  0.2018 -2.2882 -0.2672
 2608TIP3   OH229238   3.703   0.705   3.358  0.4436 -0.9502 -0.0685
 2608TIP3    H129239   3.631   0.739   3.304 -0.1676 -1.3478  0.4951
 2608TIP3    H229240   3.693   0.610   3.354  2.6562 -1.1423 -2.3296
 2609TIP3   OH229241   3.484   1.189   3.500 -0.2183  0.1441  0.0824
 2609TIP3    H129242   3.531   1.165   3.579 -0.4683 -0.8533 -0.0643
 2609TIP3    H229243   3.414   1.247   3.530 -0.5297 -0.5140  0.6431
 2610TIP3   OH229244   6.622   3.102  13.564  0.1277  0.6615 -0.0213
 2610TIP3    H129245   6.674   3.023  13.577 -0.5533  0.2496  0.2637
 2610TIP3    H229246   6.562   3.080  13.493 -0.0106  0.9508  0.0038
 2611TIP3   OH229247   5.708   1.721  11.527 -0.1426 -0.3033 -0.0117
 2611TIP3    H129248   5.686   1.808  11.492 -1.0848 -0.9665 -1.0827
 2611TIP3    H229249   5.630   1.668  11.512  0.8139 -1.6443 -0.4014
 2612TIP3   OH229250   1.185   0.835   4.253 -0.2215  0.2372 -0.5525
 2612TIP3    H129251   1.238   0.887   4.313 -1.2299  1.6715 -0.8900
 2612TIP3    H229252   1.135   0.777   4.311  0.7241 -0.2051 -0.1648
 2613TIP3   OH229253   5.824   6.180  11.977  0.3620  0.0813 -0.9146
 2613TIP3    H129254   5.807   6.148  12.065 -1.0706  1.7874 -0.5367
 2613TIP3    H229255   5.891   6.247  11.987  0.6614 -0.1685 -1.2150
 2614TIP3   OH229256   2.347   6.084   2.056  0.5381  0.4938 -0.1468
 2614TIP3    H129257   2.270   6.028   2.050 -0.1932  1.6034 -1.2384
 2614TIP3    H229258   2.409   6.033   2.108 -0.9000 -0.4349  0.7056
 2615TIP3   OH229259   5.313   2.466  15.482 -0.6609 -0.4897  0.7601
 2615TIP3    H129260   5.358   2.498  15.561 -1.6451  0.7676  0.8342
 2615TIP3    H229261   5.255   2.397  15.514 -2.1982  1.0533  1.4202
 2616TIP3   OH229262   6.456   2.320  13.529 -0.3122  0.1185  0.0690
 2616TIP3    H129263   6.449   2.268  13.610 -0.9541 -0.3028 -0.2512
 2616TIP3    H229264   6.550   2.337  13.519 -0.2341  0.2127  0.9307
 2617TIP3   OH229265   0.279   0.747  16.542  0.0913 -0.0658  0.8310
 2617TIP3    H129266   0.321   0.829  16.567 -0.4376  0.5858 -0.3986
 2617TIP3    H229267   0.216   0.771  16.475 -0.7795 -1.3443  1.1677
 2618TIP3   OH229268   3.636   4.717  15.441  0.1094  0.1533 -0.3574
 2618TIP3    H129269   3.729   4.720  15.422  0.2343  0.9383  0.3566
 2618TIP3    H229270   3.621   4.789  15.502 -0.9968  0.1450 -0.6041
 2619TIP3   OH229271   2.273   0.226   5.361  0.5536 -0.3490  0.7650
 2619TIP3    H129272   2.246   0.179   5.282  2.8686 -0.0317 -0.2653
 2619TIP3    H229273   2.236   0.313   5.351  0.3514 -0.4858  0.2933
 2620TIP3   OH229274   2.826   4.415   5.984 -0.0085  0.2699 -0.1682
 2620TIP3    H129275   2.901   4.427   5.926 -0.3981  1.1136 -0.4971
 2620TIP3    H229276   2.865   4.397   6.070  0.5818 -2.2867 -0.9260
 2621TIP3   OH229277   6.570   3.001   5.110  0.7675 -0.0541 -0.2666
 2621TIP3    H129278   6.562   2.956   5.194  0.4646  2.4114  1.0662
 2621TIP3    H229279   6.487   2.983   5.065  0.4680 -0.4401  0.4348
 2622TIP3   OH229280   0.531   4.346   1.299  0.5847  0.2909  0.2803
 2622TIP3    H129281   0.467   4.278   1.280  1.3712  0.0844 -1.7324
 2622TIP3    H229282   0.480   4.427   1.306 -0.1084 -0.1758  0.6431
 2623TIP3   OH229283   4.943   0.815  14.448 -0.0138 -0.8136  0.0823
 2623TIP3    H129284   5.016   0.827  14.508  0.9288 -2.1769 -0.7729
 2623TIP3    H229285   4.884   0.888  14.468  1.0303 -0.3463  1.5544
 2624TIP3   OH229286   0.139   3.086  13.243 -0.8005 -0.0280 -0.4899
 2624TIP3    H129287   0.126   2.992  13.256 -0.4103 -0.1276 -0.8039
 2624TIP3    H229288   0.115   3.126  13.327 -1.8529 -0.3196 -0.6434
 2625TIP3   OH229289   5.228   1.458  15.333 -0.8286  0.2247 -0.0333
 2625TIP3    H129290   5.294   1.430  15.398  0.5814  0.9121 -1.1410
 2625TIP3    H229291   5.191   1.376  15.300 -1.7704 -0.1241  1.8489
 2626TIP3   OH229292   3.902   0.362   4.477 -0.1859 -0.1209 -0.2404
 2626TIP3    H129293   3.986   0.379   4.519  0.9476 -0.4943 -2.2775
 2626TIP3    H229294   3.844   0.430   4.511  1.4449  1.2932 -0.2193
 2627TIP3   OH229295   0.412   4.654   0.192 -0.1092 -0.0204  0.2856
 2627TIP3    H129296   0.347   4.591   0.163 -1.3407  1.4400 -0.2040
 2627TIP3    H229297   0.466   4.606   0.254 -0.2038 -1.9162 -1.0527
 2628TIP3   OH229298   2.605   5.022   0.367  0.1860 -0.6274 -0.0113
 2628TIP3    H129299   2.541   5.006   0.297 -1.4094  0.3271  1.1900
 2628TIP3    H229300   2.586   4.954   0.432 -0.0328  0.0450  0.6314
 2629TIP3   OH229301   6.384   3.593  15.995 -0.0199 -0.0230  0.3177
 2629TIP3    H129302   6.393   3.607  16.090  2.0644 -3.2942  0.6807
 2629TIP3    H229303   6.295   3.621  15.975 -1.1114 -0.9394  3.5970
 2630TIP3   OH229304   0.280   6.610  14.825  0.8636  0.1149 -0.2020
 2630TIP3    H129305   0.257   6.597  14.917  1.5833 -0.2114 -0.0736
 2630TIP3    H229306   0.360   6.560  14.812 -0.1301 -1.1977 -1.4320
 2631TIP3   OH229307   0.315   1.243  16.887  0.1072  1.1353 -0.0719
 2631TIP3    H129308   0.348   1.322  16.931  0.0187  0.2604  1.6072
 2631TIP3    H229309   0.340   1.255  16.795  1.4839  2.3950  0.4364
 2632TIP3   OH229310   6.304   1.463   4.875 -0.3154  0.0949 -0.4962
 2632TIP3    H129311   6.302   1.557   4.854  0.3052  0.7315  2.1919
 2632TIP3    H229312   6.213   1.441   4.895 -0.3310  0.3101 -0.3314
 2633TIP3   OH229313   5.755   6.170   4.828 -0.3827  0.3409  0.1326
 2633TIP3    H129314   5.689   6.227   4.791 -1.3431  1.3442  3.2063
 2633TIP3    H229315   5.802   6.134   4.753 -1.1478  3.5035 -1.9077
 2634TIP3   OH229316   3.019   6.069   2.674  0.3438  0.1229  0.4028
 2634TIP3    H129317   3.085   6.028   2.730 -0.3430 -1.7782 -0.1587
 2634TIP3    H229318   3.063   6.080   2.589  0.9976  1.9323  0.9367
 2635TIP3   OH229319   5.871   1.908   5.668  0.6177 -0.1543 -0.4984
 2635TIP3    H129320   5.956   1.949   5.653  0.1983  1.0987  0.4324
 2635TIP3    H229321   5.851   1.927   5.760 -0.4324 -0.8674 -0.5718
 2636TIP3   OH229322   5.448   5.732  16.935  0.0854 -0.1037 -0.0629
 2636TIP3    H129323   5.369   5.763  16.892  0.1545  0.0914 -0.0496
 2636TIP3    H229324   5.448   5.775  17.021  0.0757 -0.2987  0.0351
 2637TIP3   OH229325   1.576   4.477   4.601 -0.4967 -0.3923  0.2187
 2637TIP3    H129326   1.625   4.495   4.521  0.5342  0.4278  1.0189
 2637TIP3    H229327   1.628   4.518   4.671 -0.7032 -2.2003  1.4722
 2638TIP3   OH229328   5.942   2.696   4.243  0.2145 -0.2682  0.1393
 2638TIP3    H129329   5.917   2.675   4.333  0.6371 -0.4203  0.2233
 2638TIP3    H229330   5.897   2.629   4.190  0.4756 -0.5655  0.2914
 2639TIP3   OH229331   1.240   4.314  16.637 -0.3593  0.3019  0.2100
 2639TIP3    H129332   1.146   4.312  16.656 -0.6825  0.9381 -1.2303
 2639TIP3    H229333   1.248   4.270  16.552  0.7358 -0.3524  0.6404
 2640TIP3   OH229334   2.656   1.072   4.177  0.7381  0.0880  0.4827
 2640TIP3    H129335   2.607   1.118   4.109 -0.5893 -0.8724  0.7811
 2640TIP3    H229336   2.683   1.141   4.238 -0.5510  0.5897  0.5010
 2641TIP3   OH229337   3.353   4.767   2.856 -0.2007  0.7935  0.4276
 2641TIP3    H129338   3.342   4.673   2.871  0.4819  0.6775  0.2079
 2641TIP3    H229339   3.436   4.774   2.809 -0.5482  1.4602 -0.0812
 2642TIP3   OH229340   0.637   2.039  11.458  0.4519 -0.0590  0.1069
 2642TIP3    H129341   0.669   1.972  11.398 -0.9184  1.0641 -1.9261
 2642TIP3    H229342   0.544   2.018  11.470  0.3525  0.6361  0.5921
 2643TIP3   OH229343   5.238   1.744   6.483  1.0387 -0.4805  0.0150
 2643TIP3    H129344   5.163   1.768   6.537  1.4762  0.0426  0.4062
 2643TIP3    H229345   5.288   1.683   6.537  0.8988 -0.8178 -0.2389
 2644TIP3   OH229346   4.105   2.534  14.179 -0.5198 -0.2639 -0.5208
 2644TIP3    H129347   4.151   2.613  14.207 -0.8996  0.1541 -1.0487
 2644TIP3    H229348   4.172   2.481  14.135 -0.3973  0.0503 -0.7160
 2645TIP3   OH229349   3.958   4.211  17.049  0.0646 -0.4846  0.3216
 2645TIP3    H129350   3.885   4.269  17.069  0.3956 -0.3465  1.1290
 2645TIP3    H229351   3.917   4.126  17.029 -0.3760 -0.1351 -0.2630
 2646TIP3   OH229352   5.146   2.064  15.388 -0.2224 -0.5496  0.8068
 2646TIP3    H129353   5.109   2.014  15.316  1.0920 -0.4186  0.0126
 2646TIP3    H229354   5.192   1.999  15.441  1.1164 -0.2620  0.0170
 2647TIP3   OH229355   0.050   6.075  16.625 -0.4169  0.0473  0.3753
 2647TIP3    H129356   0.143   6.093  16.642 -0.6117  2.4156 -0.8585
 2647TIP3    H229357   0.020   6.029  16.704  1.5652  0.1057  1.2063
 2648TIP3   OH229358   3.760   3.054   4.390  0.0300 -1.2045  0.1885
 2648TIP3    H129359   3.834   3.090   4.439 -0.2772 -1.6527  0.9825
 2648TIP3    H229360   3.793   3.044   4.301  0.1541  0.9712 -0.0360
 2649TIP3   OH229361   4.203   5.330   2.773  0.4002 -0.2313 -0.0955
 2649TIP3    H129362   4.255   5.262   2.731 -0.2840 -0.3903 -0.7056
 2649TIP3    H229363   4.156   5.285   2.843  1.5225  0.0286  0.8312
 2650TIP3   OH229364   3.608   5.058   1.870 -0.0801 -0.1096 -0.1143
 2650TIP3    H129365   3.683   5.118   1.875  0.4136 -0.8560  1.8038
 2650TIP3    H229366   3.645   4.977   1.835 -0.6449  0.5012 -2.2021
 2651TIP3   OH229367   5.089   1.642  14.408  0.4828 -0.1557  0.5719
 2651TIP3    H129368   5.043   1.593  14.340  1.7143 -1.2328  0.4968
 2651TIP3    H229369   5.057   1.731  14.399 -0.2750 -0.5350 -0.6211
 2652TIP3   OH229370   1.876   1.780   1.336  0.0146  0.0639 -0.1993
 2652TIP3    H129371   1.908   1.691   1.319 -0.2059  0.2844 -1.8374
 2652TIP3    H229372   1.872   1.821   1.250  1.3802  2.1258  0.6803
 2653TIP3   OH229373   5.456   5.167   3.466  0.5454  0.5679  0.0978
 2653TIP3    H129374   5.421   5.157   3.377  0.3340  2.0524 -0.0048
 2653TIP3    H229375   5.488   5.080   3.489 -1.4725 -0.3958 -0.5513
 2654TIP3   OH229376   2.955   3.051   3.503 -0.2386  0.2977 -0.0939
 2654TIP3    H129377   3.018   3.032   3.573 -3.1200 -0.1787  2.4552
 2654TIP3    H229378   2.925   3.140   3.520 -2.9753 -0.7718  0.9598
 2655TIP3   OH229379   6.681   5.520   6.188 -0.5466  0.1265 -0.3091
 2655TIP3    H129380   6.767   5.545   6.220 -0.5961 -0.1499  0.0465
 2655TIP3    H229381   6.651   5.596   6.138 -0.2220  0.3349 -0.1927
 2656TIP3   OH229382   1.687   5.701   2.466  0.0327  0.6612  0.1570
 2656TIP3    H129383   1.626   5.661   2.528  0.1512  0.9473  0.4598
 2656TIP3    H229384   1.745   5.755   2.521  0.4519  0.5183 -0.1465
 2657TIP3   OH229385   4.022   0.330  11.265  0.1708  0.0687 -0.0106
 2657TIP3    H129386   3.988   0.409  11.309 -0.2403 -0.0846 -0.0462
 2657TIP3    H229387   4.083   0.363  11.200 -1.7071  0.5135 -1.5920
 2658TIP3   OH229388   0.051   2.846  15.400 -0.1203  0.1374  0.2534
 2658TIP3    H129389   0.138   2.863  15.363 -0.3462  1.0902  0.1501
 2658TIP3    H229390   0.046   2.905  15.476 -0.7023  0.1199  0.2256
 2659TIP3   OH229391   6.514   0.649   5.976  0.8032 -0.5603  0.1712
 2659TIP3    H129392   6.492   0.690   6.060 -2.9475 -1.3491 -0.3000
 2659TIP3    H229393   6.524   0.556   5.997  0.2913 -0.6938 -0.1727
 2660TIP3   OH229394   2.584   4.673   4.816 -0.3600 -0.3777 -0.2497
 2660TIP3    H129395   2.499   4.649   4.781 -0.3040  0.8949 -1.2741
 2660TIP3    H229396   2.569   4.684   4.910 -1.8034  1.8983 -0.7152
 2661TIP3   OH229397   1.375   4.918   3.627  0.0352  0.5027  0.0831
 2661TIP3    H129398   1.289   4.897   3.591  1.2064 -1.6219 -1.6166
 2661TIP3    H229399   1.403   4.996   3.579 -0.3960  0.4056 -0.3301
 2662TIP3   OH229400   0.156   2.980  12.534  0.8848  1.1182 -0.2630
 2662TIP3    H129401   0.103   2.939  12.603  1.4829  1.6225  0.5101
 2662TIP3    H229402   0.147   2.921  12.459  0.4264  0.4274  0.3193
 2663TIP3   OH229403   4.019   2.374  14.381  0.1431 -0.0030  0.2598
 2663TIP3    H129404   3.975   2.446  14.426 -0.9978 -0.3448 -0.2867
 2663TIP3    H229405   4.063   2.415  14.306 -0.5417  0.1265 -0.0761
 2664TIP3   OH229406   4.728   6.314   4.795 -0.0306 -0.2415 -0.2091
 2664TIP3    H129407   4.724   6.283   4.704 -1.0754 -3.7135  0.9450
 2664TIP3    H229408   4.822   6.316   4.815  0.2068  0.5200 -1.3568
 2665TIP3   OH229409   6.215   2.600  11.814 -0.5504  0.1950 -0.4219
 2665TIP3    H129410   6.300   2.579  11.853 -0.8630 -1.6749 -0.6873
 2665TIP3    H229411   6.217   2.558  11.728 -1.8027 -0.0092 -0.3621
 2666TIP3   OH229412   2.739   5.254  13.287 -0.2548 -0.2815 -0.4277
 2666TIP3    H129413   2.675   5.270  13.356  1.3587 -1.2743  1.3465
 2666TIP3    H229414   2.824   5.258  13.331  0.7794 -1.8565 -2.1649
 2667TIP3   OH229415   1.777   1.210   2.672 -0.0233  0.7168 -0.2205
 2667TIP3    H129416   1.837   1.136   2.665  2.1899  2.5472 -1.2498
 2667TIP3    H229417   1.764   1.239   2.581 -1.1910  1.3410  0.1293
 2668TIP3   OH229418   2.256   6.459   0.048 -0.1897  0.5497 -0.0258
 2668TIP3    H129419   2.239   6.490  -0.041 -0.7098 -0.0552 -0.1448
 2668TIP3    H229420   2.347   6.432   0.048  0.1072  1.5385 -0.0759
 2669TIP3   OH229421   1.245   6.575  13.540  0.7799  0.3808 -0.5261
 2669TIP3    H129422   1.265   6.649  13.597  2.0634 -1.6552  1.7589
 2669TIP3    H229423   1.315   6.511  13.558 -0.0646 -1.2223 -2.7314
 2670TIP3   OH229424   3.930   6.715  16.648  0.0025 -0.4214  0.0893
 2670TIP3    H129425   3.850   6.739  16.694  0.8214 -0.9700  1.8476
 2670TIP3    H229426   3.928   6.766  16.567 -2.5972 -1.1690 -0.3645
 2671TIP3   OH229427   1.940   4.559  16.370  0.0398 -0.3233 -0.2175
 2671TIP3    H129428   1.933   4.589  16.280  0.6331  0.8474  0.1165
 2671TIP3    H229429   1.948   4.640  16.422 -0.3817 -0.9756  0.8881
 2672TIP3   OH229430   3.563   3.255   0.668  0.0805  0.1224 -0.1262
 2672TIP3    H129431   3.517   3.276   0.586 -1.7545 -0.6615  0.6773
 2672TIP3    H229432   3.507   3.290   0.737  1.9669  1.3946  0.7917
 2673TIP3   OH229433   6.449   5.630  16.494 -0.0990  0.1414  0.5964
 2673TIP3    H129434   6.447   5.591  16.582  2.2072 -1.8933 -0.1934
 2673TIP3    H229435   6.367   5.601  16.453 -0.8311  0.4615  1.8020
 2674TIP3   OH229436   3.875   1.289  12.266  0.0115  0.5161  0.0967
 2674TIP3    H129437   3.792   1.279  12.219  0.7069  0.1775 -1.0887
 2674TIP3    H229438   3.886   1.383  12.276  0.8763  0.7327 -2.3528
 2675TIP3   OH229439   0.768   0.940  11.823 -0.0626 -0.3959  0.1034
 2675TIP3    H129440   0.731   0.876  11.762 -1.7485  0.6293  0.0001
 2675TIP3    H229441   0.692   0.987  11.856  1.0035  0.2992  1.6023
 2676TIP3   OH229442   1.631   3.149   4.800 -0.8039 -0.2738 -0.5709
 2676TIP3    H129443   1.634   3.243   4.818 -2.3171 -0.3042 -0.1213
 2676TIP3    H229444   1.638   3.107   4.886  3.8009 -0.6998 -1.0382
 2677TIP3   OH229445   0.624   1.978  16.186 -0.3523 -0.2163 -0.5489
 2677TIP3    H129446   0.638   1.993  16.092  0.9897  2.0312  0.0019
 2677TIP3    H229447   0.634   1.883  16.196  0.5795 -0.3505 -2.4812
 2678TIP3   OH229448   6.153   1.228   4.499  0.7859 -0.0467 -0.4680
 2678TIP3    H129449   6.165   1.194   4.410  0.4178  0.3773 -0.6845
 2678TIP3    H229450   6.183   1.319   4.493  0.1137  0.1839 -0.3262
 2679TIP3   OH229451   5.092   1.247  15.214  0.3252  0.4916 -0.6229
 2679TIP3    H129452   5.083   1.228  15.121 -1.2788 -0.2043 -0.3355
 2679TIP3    H229453   5.133   1.169  15.251 -1.5500 -0.3589 -0.3010
 2680TIP3   OH229454   1.849   6.187  14.291 -0.5800 -0.3503  0.0615
 2680TIP3    H129455   1.756   6.164  14.297 -0.5268 -0.8419 -0.7945
 2680TIP3    H229456   1.850   6.282  14.282 -1.0169 -0.3692 -0.1897
 2681TIP3   OH229457   6.326   2.783  12.395 -0.2889  0.3595 -0.1085
 2681TIP3    H129458   6.384   2.856  12.371 -0.7851  0.6471 -0.4507
 2681TIP3    H229459   6.240   2.810  12.364 -0.7310  0.2231  0.9626
 2682TIP3   OH229460   3.795   5.659  11.315  0.7562 -0.3066  0.3881
 2682TIP3    H129461   3.812   5.623  11.228  0.8080  1.3777 -0.3223
 2682TIP3    H229462   3.711   5.704  11.306  1.1511  0.5616  0.9904
 2683TIP3   OH229463   1.304   3.865   0.688 -0.1095  0.4691 -0.0005
 2683TIP3    H129464   1.290   3.775   0.715  1.4948 -0.2575 -1.4958
 2683TIP3    H229465   1.233   3.883   0.627  1.4526 -0.9257 -2.2909
 2684TIP3   OH229466   2.617   6.052  11.190  0.2633 -0.3333 -0.2420
 2684TIP3    H129467   2.660   5.967  11.180  1.2034 -0.0222  0.9654
 2684TIP3    H229468   2.604   6.083  11.101  1.6162 -0.9210 -0.6598
 2685TIP3   OH229469   5.792   6.290  13.115 -0.6954  0.4485 -0.6847
 2685TIP3    H129470   5.741   6.257  13.041 -0.3225 -1.4131 -0.1329
 2685TIP3    H229471   5.728   6.334  13.170 -1.0999  1.2132 -1.7384
 2686TIP3   OH229472   4.767   3.290   4.466  0.2785 -0.2521  0.1536
 2686TIP3    H129473   4.785   3.252   4.553  0.2894 -0.1399  0.2014
 2686TIP3    H229474   4.699   3.234   4.429 -1.3998  1.0606  1.1790
 2687TIP3   OH229475   3.699   3.743  16.802 -0.3891  0.4473 -0.1743
 2687TIP3    H129476   3.604   3.759  16.803 -0.9962 -2.7439 -0.0151
 2687TIP3    H229477   3.727   3.768  16.714 -1.4676  1.0196 -0.3595
 2688TIP3   OH229478   3.757   4.840   5.357 -0.2348  0.3756 -0.0001
 2688TIP3    H129479   3.688   4.904   5.342 -0.4654  0.7236  2.3761
 2688TIP3    H229480   3.805   4.873   5.433  0.3860 -1.6411  0.5194
 2689TIP3   OH229481   0.133   2.708  12.810 -0.8427 -0.1865  0.4016
 2689TIP3    H129482   0.176   2.662  12.737 -1.7330 -0.0464 -0.2134
 2689TIP3    H229483   0.059   2.652  12.834  0.9930 -1.6336  3.0336
 2690TIP3   OH229484   4.487   6.181  14.471 -0.3448  0.3569  0.7811
 2690TIP3    H129485   4.451   6.223  14.549  0.0320  1.4437  0.3774
 2690TIP3    H229486   4.419   6.191  14.404 -1.2007 -1.6927  1.2967
 2691TIP3   OH229487   2.640   1.476  16.203 -0.1542  0.0341 -0.1911
 2691TIP3    H129488   2.559   1.525  16.218  1.5159  2.5976  0.9185
 2691TIP3    H229489   2.628   1.436  16.117 -2.2583  1.0426 -0.4110
 2692TIP3   OH229490   1.668   3.828   1.914  0.1512 -0.0006  0.2137
 2692TIP3    H129491   1.701   3.820   2.003  0.5622 -0.4705  0.0242
 2692TIP3    H229492   1.603   3.757   1.906  1.8037 -1.4657 -0.5951
 2693TIP3   OH229493   3.030   4.745  15.934  0.2341 -0.0090 -0.3886
 2693TIP3    H129494   3.122   4.756  15.910  0.9472  0.7150  2.4753
 2693TIP3    H229495   3.001   4.669  15.884  2.9889 -1.5268  0.2244
 2694TIP3   OH229496   2.373   2.268   6.798  0.0622  0.0020  0.0209
 2694TIP3    H129497   2.308   2.261   6.728 -0.3477 -2.0059  0.5644
 2694TIP3    H229498   2.430   2.193   6.785  2.7537  2.0907 -0.8500
 2695TIP3   OH229499   3.592   5.422   0.298 -0.0169  0.1039  0.0523
 2695TIP3    H129500   3.606   5.494   0.236 -1.6784 -1.2019 -1.9038
 2695TIP3    H229501   3.666   5.363   0.283  0.9820  1.0369  1.1824
 2696TIP3   OH229502   0.565   2.722  11.290 -0.2456 -0.3179  0.4565
 2696TIP3    H129503   0.525   2.644  11.251  0.4528  0.2022 -1.3523
 2696TIP3    H229504   0.500   2.791  11.276  0.6809  0.2306 -1.2892
 2697TIP3   OH229505   0.805   1.431  14.437 -0.1396 -0.0025 -0.9017
 2697TIP3    H129506   0.892   1.392  14.434 -0.3306 -0.5986  0.7977
 2697TIP3    H229507   0.819   1.520  14.469 -0.4191 -1.0371  2.2386
 2698TIP3   OH229508   2.936   5.883  11.631  0.1264 -0.2526  0.0716
 2698TIP3    H129509   2.891   5.916  11.708  0.8469 -0.7120  0.7077
 2698TIP3    H229510   2.956   5.792  11.652 -0.7707 -0.7436 -1.1637
 2699TIP3   OH229511   0.079   1.685   6.854 -0.1649  0.1502 -0.5544
 2699TIP3    H129512   0.112   1.686   6.763  2.1786  0.5565  0.2596
 2699TIP3    H229513   0.114   1.765   6.892 -1.1823 -0.0059  0.7061
 2700TIP3   OH229514   0.154   5.521   5.586  0.4448 -0.1239 -0.3728
 2700TIP3    H129515   0.139   5.427   5.588  0.7141 -0.1434  2.7024
 2700TIP3    H229516   0.081   5.556   5.535 -1.4614 -1.6862  1.2312
 2701TIP3   OH229517   4.919   6.544   3.055 -0.0990  0.4840 -0.4944
 2701TIP3    H129518   4.948   6.459   3.089  1.5418  0.2478 -2.3670
 2701TIP3    H229519   4.945   6.606   3.123 -0.8263 -0.4296  0.6494
 2702TIP3   OH229520   0.410   1.835  16.123  0.0486 -0.1338 -0.1160
 2702TIP3    H129521   0.441   1.744  16.123 -0.2134 -0.2354  1.3784
 2702TIP3    H229522   0.320   1.830  16.155  0.8379  0.8922  2.3774
 2703TIP3   OH229523   6.215   3.713  10.848 -0.1052  0.0625  0.3068
 2703TIP3    H129524   6.253   3.717  10.760 -0.7710 -0.4700 -0.0045
 2703TIP3    H229525   6.290   3.715  10.907  0.4805 -2.1293 -0.3299
 2704TIP3   OH229526   4.709   6.390  14.467 -0.0267 -0.0479  0.5709
 2704TIP3    H129527   4.741   6.333  14.397 -1.3388 -0.5799  0.4074
 2704TIP3    H229528   4.746   6.476  14.446  0.4976 -0.4416 -0.1511
 2705TIP3   OH229529   6.274   6.123   6.109 -0.1833 -0.6377  0.2012
 2705TIP3    H129530   6.208   6.192   6.106 -1.0959 -1.5345 -1.2985
 2705TIP3    H229531   6.357   6.169   6.116 -0.9855  0.4997  2.8632
 2706TIP3   OH229532   6.282   0.277   5.248  0.0099 -0.3159 -0.2478
 2706TIP3    H129533   6.348   0.334   5.210 -1.2122  1.3064 -0.0272
 2706TIP3    H229534   6.204   0.333   5.256 -1.3090 -2.0913 -0.2675
 2707TIP3   OH229535   2.580   3.581   0.899  0.0923  0.0020 -0.0157
 2707TIP3    H129536   2.509   3.541   0.950 -0.1222  0.2498 -0.1189
 2707TIP3    H229537   2.607   3.513   0.837  0.7991 -0.5311  0.8654
 2708TIP3   OH229538   5.070   4.694  11.101 -0.9163  0.3930 -0.4028
 2708TIP3    H129539   5.042   4.624  11.043  0.3541 -0.7075  0.2954
 2708TIP3    H229540   5.032   4.773  11.063 -2.1861 -0.6283 -1.3152
 2709TIP3   OH229541   3.716   3.236  17.157 -0.2527 -0.2199  0.3368
 2709TIP3    H129542   3.724   3.161  17.214 -0.3293 -0.9389 -0.5888
 2709TIP3    H229543   3.622   3.252  17.150 -0.3219 -1.0572 -0.7692
 2710TIP3   OH229544   3.740   5.919   3.591 -0.1977 -0.2818 -0.4697
 2710TIP3    H129545   3.655   5.877   3.608 -0.1644 -0.5183 -0.8727
 2710TIP3    H229546   3.721   5.985   3.524 -0.5689  1.5067  1.3713
 2711TIP3   OH229547   2.947   5.965   4.212  0.6471 -0.2297  0.4502
 2711TIP3    H129548   2.955   5.995   4.122  0.6214 -0.0981  0.4923
 2711TIP3    H229549   2.991   5.880   4.212 -0.2056 -0.6701  0.0975
 2712TIP3   OH229550   6.036   3.097  14.858  0.6727  0.3724  0.6574
 2712TIP3    H129551   6.037   3.187  14.827  0.7667  0.3247  0.5223
 2712TIP3    H229552   6.052   3.104  14.953 -0.0340  0.5439  0.7656
 2713TIP3   OH229553   2.466   6.250  14.875 -0.2397  0.1570 -0.4153
 2713TIP3    H129554   2.532   6.221  14.939  0.4469  1.0271 -0.7277
 2713TIP3    H229555   2.436   6.334  14.908  0.3789  0.7833 -1.4365
 2714TIP3   OH229556   4.900   5.791   2.865  0.5568 -0.1529  0.1176
 2714TIP3    H129557   4.857   5.807   2.949  0.7094 -0.0161  0.1710
 2714TIP3    H229558   4.978   5.740   2.887  0.7486  0.1258  0.0941
 2715TIP3   OH229559   6.277   6.666   0.540  0.0932 -0.2194 -0.1416
 2715TIP3    H129560   6.249   6.755   0.562  1.3170  0.3091 -0.6936
 2715TIP3    H229561   6.241   6.612   0.611 -1.2450  0.6019 -0.1724
 2716TIP3   OH229562   6.748   3.263   0.247 -0.0472 -0.1001 -0.1785
 2716TIP3    H129563   6.678   3.317   0.211  1.1823  1.5776 -0.1209
 2716TIP3    H229564   6.784   3.216   0.172 -0.6662 -0.2995 -0.3497
 2717TIP3   OH229565   1.280   2.040  14.808  0.4883 -0.8407 -0.4676
 2717TIP3    H129566   1.363   2.042  14.760  0.8396  0.4067  0.1637
 2717TIP3    H229567   1.235   2.120  14.782  0.8936  0.1106  1.6131
 2718TIP3   OH229568   3.865   6.766   1.921 -0.0776  0.6936 -0.0793
 2718TIP3    H129569   3.900   6.723   1.999  0.1925  2.2355  0.6782
 2718TIP3    H229570   3.918   6.732   1.849 -0.0417 -0.4251  0.4716
 2719TIP3   OH229571   6.160   6.514   5.183 -0.5065  0.2808  0.0284
 2719TIP3    H129572   6.167   6.514   5.279 -1.2888 -1.4316  0.0934
 2719TIP3    H229573   6.250   6.499   5.152 -0.1244  1.5700  0.4574
 2720TIP3   OH229574   1.162   6.254   3.290 -0.4948  0.0365 -0.2453
 2720TIP3    H129575   1.166   6.329   3.349 -0.4045 -2.0193  2.4585
 2720TIP3    H229576   1.068   6.236   3.281 -0.4871  0.0273 -0.3042
 2721TIP3   OH229577   6.775   6.597  13.657  0.3919  0.1272 -0.2905
 2721TIP3    H129578   6.849   6.658  13.650  0.5275  0.0485  0.3977
 2721TIP3    H229579   6.813   6.518  13.697 -0.0741  0.1001  0.0966
 2722TIP3   OH229580   0.054   1.046   3.284 -0.4024  0.1461 -0.6019
 2722TIP3    H129581   0.029   0.966   3.238 -0.0319  0.4365 -1.3055
 2722TIP3    H229582  -0.029   1.080   3.319 -0.3737 -1.3038  0.9418
 2723TIP3   OH229583   5.995   5.733   4.671  0.0191 -0.0427  0.2949
 2723TIP3    H129584   5.976   5.640   4.661  1.4980 -0.2235 -0.9947
 2723TIP3    H229585   6.067   5.737   4.733  0.3699  0.2084 -0.1260
 2724TIP3   OH229586   6.104   6.037   0.610  0.2547  0.1569  0.1605
 2724TIP3    H129587   6.127   6.038   0.703  0.9457  1.5621 -0.0213
 2724TIP3    H229588   6.184   6.063   0.565 -0.5427  1.1053 -0.7218
 2725TIP3   OH229589   6.560   4.699  16.256  0.0982  0.1182  0.6651
 2725TIP3    H129590   6.579   4.687  16.349  1.5017  0.0211  0.3753
 2725TIP3    H229591   6.592   4.619  16.214  0.9667  0.8653 -0.1069
 2726TIP3   OH229592   0.613   5.300  13.217 -0.3373  0.1591 -0.1452
 2726TIP3    H129593   0.547   5.271  13.280 -0.9428 -0.0452 -0.8687
 2726TIP3    H229594   0.609   5.396  13.219 -0.5968  0.1468 -0.1224
 2727TIP3   OH229595   4.003   1.296   2.258 -0.2168  0.0932  0.4070
 2727TIP3    H129596   4.067   1.264   2.322  1.5601  0.0226 -1.3463
 2727TIP3    H229597   4.056   1.317   2.181 -2.0332  2.1861 -0.3054
 2728TIP3   OH229598   0.143   6.595   1.333  0.3340  0.1767 -0.0090
 2728TIP3    H129599   0.112   6.529   1.395  0.9880  0.6449  0.8150
 2728TIP3    H229600   0.064   6.640   1.304  0.0003 -0.2245  0.2742
 2729TIP3   OH229601   0.335   2.602  14.607 -0.4864 -0.6940 -0.5286
 2729TIP3    H129602   0.323   2.571  14.517 -0.1921 -0.0199 -0.8042
 2729TIP3    H229603   0.256   2.574  14.653 -0.6995 -0.9200 -1.0331
 2730TIP3   OH229604   2.146   2.997  14.189 -0.3243 -0.1127  0.0694
 2730TIP3    H129605   2.106   2.950  14.263 -0.4712  0.1608  0.1660
 2730TIP3    H229606   2.211   3.053  14.229 -1.5765  1.2928  0.1769
 2731TIP3   OH229607   3.933   0.961  15.233 -0.2043  0.1356  0.0756
 2731TIP3    H129608   3.958   0.896  15.298  2.5560  1.5935  0.5469
 2731TIP3    H229609   3.993   0.948  15.160 -0.4198  1.3383 -0.3346
 2732TIP3   OH229610   4.653   6.622   1.523  0.3870 -0.3651  0.0061
 2732TIP3    H129611   4.635   6.700   1.576 -0.8646  0.6691 -1.8771
 2732TIP3    H229612   4.586   6.559   1.549 -0.0139  0.0130 -0.1150
 2733TIP3   OH229613   4.784   5.200   4.047 -0.1586  0.5273 -0.7138
 2733TIP3    H129614   4.689   5.216   4.047 -0.3263 -0.4542  1.0345
 2733TIP3    H229615   4.822   5.287   4.056 -0.9208  0.7796  0.1495
 2734TIP3   OH229616   4.210   1.715   5.594 -0.1144 -0.2776 -0.3428
 2734TIP3    H129617   4.120   1.697   5.623 -0.3064  0.6508 -0.3506
 2734TIP3    H229618   4.262   1.712   5.673 -0.0412 -1.4801 -0.4276
 2735TIP3   OH229619   2.720   1.160  16.105 -0.8074 -0.1377 -0.3038
 2735TIP3    H129620   2.755   1.190  16.189 -0.4338  0.3967 -0.6441
 2735TIP3    H229621   2.778   1.089  16.080 -0.0439  0.6481 -0.7954
 2736TIP3   OH229622   2.270   6.592  17.036  1.0757 -0.1284  0.5230
 2736TIP3    H129623   2.337   6.656  17.013  2.6041 -1.6566  0.6152
 2736TIP3    H229624   2.287   6.518  16.978  0.0017 -0.8744  1.1461
 2737TIP3   OH229625   0.198   4.823  16.813 -0.0147  0.2964  0.1501
 2737TIP3    H129626   0.187   4.746  16.869 -1.7048  0.4839  0.1218
 2737TIP3    H229627   0.179   4.792  16.725 -0.4038  0.6559  0.0993
 2738TIP3   OH229628   6.251   1.419  15.500 -0.2557 -0.5439 -0.4190
 2738TIP3    H129629   6.341   1.400  15.476  0.3391  1.3456  0.3232
 2738TIP3    H229630   6.242   1.385  15.589 -0.8588 -2.4743 -1.1853
 2739TIP3   OH229631   2.461   4.028  10.707 -0.0610  0.6267 -0.2918
 2739TIP3    H129632   2.462   4.077  10.625 -0.4408  0.8167 -0.1851
 2739TIP3    H229633   2.387   3.968  10.700  0.1146  0.4004 -0.2295
 2740TIP3   OH229634   4.320   2.425   4.048 -0.2709 -0.6196  0.3741
 2740TIP3    H129635   4.364   2.385   4.123  0.0801 -0.5042  0.2347
 2740TIP3    H229636   4.260   2.488   4.085  0.1047 -0.3616  0.5484
 2741TIP3   OH229637   1.313   2.416  15.672  0.1948 -0.2723 -0.6300
 2741TIP3    H129638   1.388   2.436  15.727 -0.1270  1.6778 -0.8331
 2741TIP3    H229639   1.237   2.435  15.727 -0.1249  0.4829 -1.2992
 2742TIP3   OH229640   4.979   4.002   5.978 -0.2342  0.2267  0.6220
 2742TIP3    H129641   4.885   3.997   5.958 -0.2882 -1.6715  1.2103
 2742TIP3    H229642   4.983   4.039   6.066 -0.5034 -0.6521  1.0133
 2743TIP3   OH229643   2.613   0.014   3.491 -0.0196  0.2007 -0.0977
 2743TIP3    H129644   2.596  -0.031   3.574  0.0956  0.5780  0.1314
 2743TIP3    H229645   2.688   0.070   3.510  2.7763 -2.8454 -1.5924
 2744TIP3   OH229646   6.559   1.355   4.517 -0.1657 -0.1809  0.5375
 2744TIP3    H129647   6.590   1.343   4.427 -0.3838 -0.0640  0.4453
 2744TIP3    H229648   6.477   1.306   4.521 -0.7004  0.6854  0.3612
 2745TIP3   OH229649   0.041   0.219   1.465  0.4267  0.1480 -0.4154
 2745TIP3    H129650  -0.037   0.195   1.515  0.0673  0.8170 -0.6408
 2745TIP3    H229651   0.036   0.314   1.457  0.3105  0.0363 -1.9646
 2746TIP3   OH229652   1.255   3.485  15.944 -0.1645 -0.0550 -0.1319
 2746TIP3    H129653   1.349   3.481  15.957 -0.1948  0.9194  0.4144
 2746TIP3    H229654   1.231   3.575  15.966 -1.2223 -0.3026 -0.2290
 2747TIP3   OH229655   2.079   5.019  13.344 -0.2206  0.1701  0.2210
 2747TIP3    H129656   2.130   5.020  13.425 -0.9177  3.0289  0.6854
 2747TIP3    H229657   2.077   5.110  13.316  0.1151 -0.8040 -3.1084
 2748TIP3   OH229658   0.698   6.241  15.583  0.0840  0.0589  0.0423
 2748TIP3    H129659   0.661   6.327  15.603 -0.2738 -0.0106 -0.3281
 2748TIP3    H229660   0.732   6.249  15.495  2.5234  0.6466  1.0025
 2749TIP3   OH229661   6.718   0.927   4.743  0.7873  0.5243 -0.1333
 2749TIP3    H129662   6.691   0.884   4.824 -0.3463  0.8722 -0.3133
 2749TIP3    H229663   6.642   0.919   4.685  2.1114 -1.0030 -1.6899
 2750TIP3   OH229664   4.678   4.968   5.671  0.1305  0.1058  0.0443
 2750TIP3    H129665   4.749   4.911   5.700  0.4768  0.6646  0.2866
 2750TIP3    H229666   4.692   5.050   5.718  0.2592  0.7688 -1.1492
 2751TIP3   OH229667   5.650   2.471   5.940  0.5450  0.0651 -0.6190
 2751TIP3    H129668   5.680   2.381   5.954  1.0908 -0.2067 -3.2307
 2751TIP3    H229669   5.717   2.510   5.884  0.2861  2.1081  0.4418
 2752TIP3   OH229670   2.809   1.666   0.115  0.4556 -0.8243 -0.3186
 2752TIP3    H129671   2.840   1.754   0.095 -0.2320 -0.4898  0.1028
 2752TIP3    H229672   2.768   1.636   0.033 -0.7204 -0.1467  0.0079
 2753TIP3   OH229673   4.296   3.892   2.975 -0.2206 -0.0800 -0.1233
 2753TIP3    H129674   4.317   3.916   3.065 -0.9983  1.4436 -0.3345
 2753TIP3    H229675   4.264   3.802   2.981 -0.5734  0.1245  1.1517
 2754TIP3   OH229676   3.334   2.446   3.636  0.6781 -0.5025 -0.3300
 2754TIP3    H129677   3.370   2.475   3.552 -0.5451 -0.5896 -0.8895
 2754TIP3    H229678   3.364   2.512   3.699  0.7452  0.1161 -1.0082
 2755TIP3   OH229679   3.646   2.520  11.819 -0.6700 -0.2339 -0.5248
 2755TIP3    H129680   3.722   2.556  11.773  0.0499  0.6661  1.2869
 2755TIP3    H229681   3.679   2.441  11.861 -0.4715  0.6154  0.9669
 2756TIP3   OH229682   0.637   5.666   3.178  0.2001  0.3859  0.4405
 2756TIP3    H129683   0.648   5.571   3.188 -2.0188  0.1141  0.5032
 2756TIP3    H229684   0.659   5.683   3.087 -0.3121 -0.3513  0.1714
 2757TIP3   OH229685   5.476   6.054   4.164 -0.1028 -0.1220 -0.4427
 2757TIP3    H129686   5.549   5.995   4.186  1.7586  1.7760 -1.2887
 2757TIP3    H229687   5.457   6.034   4.072  0.6648  0.6744 -0.7917
 2758TIP3   OH229688   4.032   0.509   6.500 -0.5971 -0.1748  1.1641
 2758TIP3    H129689   3.994   0.532   6.585 -0.0449 -0.0840  1.3887
 2758TIP3    H229690   4.059   0.593   6.462 -1.5331 -0.1391  0.5634
 2759TIP3   OH229691   0.174   1.619  16.957  0.0730 -0.3898 -0.4269
 2759TIP3    H129692   0.261   1.633  16.920 -0.0697 -0.3906 -0.7616
 2759TIP3    H229693   0.114   1.654  16.891 -0.0605  2.9800  1.3588
 2760TIP3   OH229694   2.381   0.889  15.273  0.0289  0.0196 -0.6168
 2760TIP3    H129695   2.294   0.928  15.267  0.2047  0.2424 -1.7037
 2760TIP3    H229696   2.364   0.795  15.285 -0.3672  0.1995  0.2836
 2761TIP3   OH229697   1.143   4.226  13.812  0.1530 -0.1213  0.0910
 2761TIP3    H129698   1.217   4.173  13.781  0.3255 -0.2977  0.8139
 2761TIP3    H229699   1.117   4.276  13.735  0.7667 -0.3579 -0.2779
 2762TIP3   OH229700   5.978   5.388   4.161  0.2786  0.2121 -0.2362
 2762TIP3    H129701   5.917   5.450   4.202  1.2201  1.2349 -0.3491
 2762TIP3    H229702   5.976   5.312   4.219 -2.6296 -0.6094 -1.3304
 2763TIP3   OH229703   1.874   0.384  13.866  0.0093  0.3945  0.6394
 2763TIP3    H129704   1.883   0.291  13.887  2.2106  0.2833 -0.5774
 2763TIP3    H229705   1.780   0.402  13.870 -0.5756 -2.2546 -0.7309
 2764TIP3   OH229706   0.331   5.649   2.960 -0.3702  0.1796 -0.0776
 2764TIP3    H129707   0.393   5.590   2.917  0.8558  0.9058  0.6451
 2764TIP3    H229708   0.306   5.712   2.893 -0.1859 -0.0104 -0.3237
 2765TIP3   OH229709   4.688   6.512   4.413  0.6727 -0.2023 -0.0482
 2765TIP3    H129710   4.643   6.523   4.329 -0.4420  1.2532  0.7244
 2765TIP3    H229711   4.626   6.464   4.468  1.6476 -1.7120 -0.2326
 2766TIP3   OH229712   3.948   3.418  11.804  0.4491  0.2007 -0.3549
 2766TIP3    H129713   3.970   3.502  11.763 -0.6256  0.5294 -0.2639
 2766TIP3    H229714   3.989   3.423  11.891 -0.9980  1.3230  0.2836
 2767TIP3   OH229715   2.302   1.655   0.725  0.2737  0.1915 -0.1395
 2767TIP3    H129716   2.392   1.686   0.728 -0.0228  1.1410 -0.8999
 2767TIP3    H229717   2.249   1.730   0.751 -0.2904 -0.4065  0.4712
 2768TIP3   OH229718   4.742   0.458   0.604  0.3598  0.1323 -0.6565
 2768TIP3    H129719   4.779   0.503   0.528 -0.4342 -0.7585 -1.5775
 2768TIP3    H229720   4.760   0.365   0.588  0.4238 -0.0382  0.3747
 2769TIP3   OH229721   2.872   5.579  14.303 -0.0152  0.1069  0.7521
 2769TIP3    H129722   2.954   5.533  14.322 -1.1213 -2.4895 -0.4396
 2769TIP3    H229723   2.874   5.657  14.359  1.7511 -1.6066  3.1828
 2770TIP3   OH229724   5.672   1.314  11.071 -0.1988  0.2637  0.1213
 2770TIP3    H129725   5.679   1.237  11.128  0.9310  1.4808  1.6704
 2770TIP3    H229726   5.727   1.293  10.996  1.4293  0.1679  1.2874
 2771TIP3   OH229727   3.004   5.454   2.387  0.1918 -0.3290 -0.5274
 2771TIP3    H129728   3.036   5.528   2.438 -0.3219 -0.4246 -0.0661
 2771TIP3    H229729   2.932   5.418   2.439 -0.1048 -0.6402 -1.1504
 2772TIP3   OH229730   5.852   2.056   4.109 -0.4684  0.3899  0.0720
 2772TIP3    H129731   5.834   2.034   4.200 -0.6879  3.0104  0.7211
 2772TIP3    H229732   5.947   2.046   4.100 -0.4153  0.3749  0.6603
 2773TIP3   OH229733   5.216   1.947   0.999  0.6923  0.1800  0.3238
 2773TIP3    H129734   5.152   1.984   0.938 -1.0571 -0.9770  1.4276
 2773TIP3    H229735   5.199   1.992   1.082 -0.4185 -1.9585  1.2818
 2774TIP3   OH229736   1.735   0.541  14.296  0.4458  0.0262  0.6692
 2774TIP3    H129737   1.727   0.457  14.250  0.7302 -0.3555  1.3158
 2774TIP3    H229738   1.648   0.558  14.330 -0.3587  1.4516 -1.9761
 2775TIP3   OH229739   4.110   4.185   1.249 -0.7425 -0.3087 -0.2681
 2775TIP3    H129740   4.164   4.250   1.293 -0.1835 -0.6286 -0.4638
 2775TIP3    H229741   4.038   4.168   1.309 -2.1771  2.1870 -1.2091
 2776TIP3   OH229742   3.662   4.555  15.020 -0.3663 -0.1936  0.4969
 2776TIP3    H129743   3.656   4.486  14.953  2.2032  1.4512 -1.4961
 2776TIP3    H229744   3.604   4.624  14.989  0.0727  0.1680  0.4797
 2777TIP3   OH229745   0.371   3.077  15.389  0.3535  0.3544  0.4746
 2777TIP3    H129746   0.317   3.056  15.313  2.5082  1.0190 -1.2885
 2777TIP3    H229747   0.375   3.173  15.390  0.8839  0.3301  1.0270
 2778TIP3   OH229748   0.169   5.802   5.182 -0.2513 -0.7815 -0.1747
 2778TIP3    H129749   0.083   5.794   5.141  0.7675 -1.9352 -2.2072
 2778TIP3    H229750   0.230   5.813   5.108  1.4711 -1.3247  1.1203
 2779TIP3   OH229751   4.450   3.988  14.873 -0.1676  0.4008 -0.1011
 2779TIP3    H129752   4.511   3.925  14.833 -0.7834  0.1837 -0.7134
 2779TIP3    H229753   4.364   3.959  14.844 -0.4555  1.5933 -0.4699
 2780TIP3   OH229754   5.415   3.309   4.242 -0.4044 -0.3824  0.1048
 2780TIP3    H129755   5.503   3.303   4.204 -0.6006 -1.9163 -0.1645
 2780TIP3    H229756   5.364   3.359   4.179  0.6147  1.7997  0.9455
 2781TIP3   OH229757   4.272   4.583   6.620 -0.7974  0.7501 -0.2881
 2781TIP3    H129758   4.269   4.526   6.696 -0.1454  0.1513 -0.7045
 2781TIP3    H229759   4.180   4.596   6.596 -0.9553  0.0645 -0.0596
 2782TIP3   OH229760   1.658   1.256   5.172 -0.8137 -0.0354  0.1363
 2782TIP3    H129761   1.680   1.214   5.088 -0.7388  1.5822 -0.6746
 2782TIP3    H229762   1.570   1.224   5.192 -0.8622 -0.3878 -0.5879
 2783TIP3   OH229763   4.635   2.865   6.556 -0.0897  0.1965  0.2058
 2783TIP3    H129764   4.668   2.943   6.511  0.0294  0.0112 -0.0282
 2783TIP3    H229765   4.709   2.804   6.554  0.5450  0.8631  2.2830
 2784TIP3   OH229766   2.379   0.921  13.393  0.4704  0.0965 -0.1722
 2784TIP3    H129767   2.344   0.926  13.481 -0.7358  2.0107 -0.7271
 2784TIP3    H229768   2.467   0.884  13.404  0.3550  0.3646  1.8148
 2785TIP3   OH229769   4.364   4.040   5.277  0.3539 -0.4516  0.2263
 2785TIP3    H129770   4.400   4.048   5.189 -0.4409  0.7089 -0.0044
 2785TIP3    H229771   4.281   3.993   5.265  0.4564 -0.6858  0.4175
 2786TIP3   OH229772   5.980   0.574  14.063  0.2739 -0.7060  0.1190
 2786TIP3    H129773   5.894   0.568  14.022  0.0182  0.3177  0.4768
 2786TIP3    H229774   5.989   0.493  14.113 -0.1141 -1.1974 -0.6034
 2787TIP3   OH229775   1.079   1.692  16.908  0.1492  0.0176 -0.6049
 2787TIP3    H129776   0.998   1.644  16.898 -0.6215  1.0619  0.4206
 2787TIP3    H229777   1.116   1.696  16.820 -1.1614 -0.0345 -1.1699
 2788TIP3   OH229778   0.895   1.528  13.266 -1.3089  0.0111  0.0824
 2788TIP3    H129779   0.935   1.450  13.227 -2.5782 -1.4044  1.5498
 2788TIP3    H229780   0.969   1.586  13.285 -0.5194  0.0692 -2.8961
 2789TIP3   OH229781   3.437   0.916   4.860  0.6296 -0.0663  0.0484
 2789TIP3    H129782   3.380   0.865   4.802  0.3431  0.6381 -0.2951
 2789TIP3    H229783   3.525   0.907   4.822  0.7332 -1.0757  0.5246
 2790TIP3   OH229784   1.063   3.336   1.502  0.2517  0.2320  0.0586
 2790TIP3    H129785   1.123   3.273   1.543 -0.2054 -0.2020  0.0742
 2790TIP3    H229786   1.113   3.374   1.430 -0.1430 -1.6913 -1.2806
 2791TIP3   OH229787   3.992   0.047  10.221  0.4152 -0.0302 -0.2883
 2791TIP3    H129788   3.980   0.112  10.152  2.9479 -0.3464 -1.0467
 2791TIP3    H229789   4.010   0.098  10.299 -1.2732  0.2814 -0.0722
 2792TIP3   OH229790   5.347   2.605   0.171  0.2635  0.1134  0.8379
 2792TIP3    H129791   5.441   2.624   0.175  0.4074 -0.2587 -0.4216
 2792TIP3    H229792   5.338   2.522   0.218  0.3871  0.7268  1.9569
 2793TIP3   OH229793   6.743   4.427   2.090  0.4574  0.4057  0.0970
 2793TIP3    H129794   6.794   4.486   2.146  0.1249  0.6730  0.1228
 2793TIP3    H229795   6.738   4.473   2.006 -0.9506  1.0532  0.5072
 2794TIP3   OH229796   2.952   4.868   4.332 -0.1482 -0.3615  0.2708
 2794TIP3    H129797   3.005   4.813   4.391  2.9278  1.3531 -0.7737
 2794TIP3    H229798   2.929   4.810   4.260  1.0874 -0.9123  0.3074
 2795TIP3   OH229799   2.120   1.262   4.316  0.1962  0.1767 -0.1059
 2795TIP3    H129800   2.205   1.232   4.283  0.0562 -0.4591  0.0960
 2795TIP3    H229801   2.116   1.354   4.291  0.5681 -0.0084 -0.8979
 2796TIP3   OH229802   6.146   1.312  16.702 -0.1206 -0.4166 -0.1649
 2796TIP3    H129803   6.169   1.219  16.694  0.7857 -0.3876  1.7002
 2796TIP3    H229804   6.147   1.329  16.796 -1.3257  1.2448 -0.4195
 2797TIP3   OH229805   5.047   0.323   2.584 -0.0765 -0.3925  0.2389
 2797TIP3    H129806   5.047   0.248   2.524  1.6267 -2.0618  2.1942
 2797TIP3    H229807   5.140   0.343   2.596 -0.5410  2.6807 -0.9527
 2798TIP3   OH229808   0.487   4.202   0.437  0.0491 -0.0364 -0.2324
 2798TIP3    H129809   0.410   4.180   0.384  0.1433 -0.2815 -0.2711
 2798TIP3    H229810   0.457   4.193   0.527 -0.8645  2.9653 -0.1821
 2799TIP3   OH229811   4.042   2.335   1.080 -0.3284  0.3634  0.2710
 2799TIP3    H129812   4.135   2.352   1.099 -0.6945  0.8036  1.7979
 2799TIP3    H229813   4.012   2.414   1.035  0.7234 -0.9644 -2.8718
 2800TIP3   OH229814   1.257   1.399  15.618 -0.5870 -0.7997  0.7144
 2800TIP3    H129815   1.194   1.449  15.669  0.2446  0.2281  0.7354
 2800TIP3    H229816   1.292   1.461  15.554 -0.0772 -1.5298  0.2742
 2801TIP3   OH229817   4.384   1.110  11.678  0.3339  0.1862 -0.2286
 2801TIP3    H129818   4.332   1.115  11.597 -1.4053 -1.7583  0.6982
 2801TIP3    H229819   4.463   1.062  11.652  0.0925  0.1507 -0.9249
 2802TIP3   OH229820   2.361   3.825   2.506  0.2638  0.2361  0.5382
 2802TIP3    H129821   2.439   3.876   2.526  1.4289 -1.4221  0.3427
 2802TIP3    H229822   2.352   3.766   2.581 -0.8336  0.4503  0.5812
 2803TIP3   OH229823   6.612   0.380  15.737  0.6048  0.4236  0.6507
 2803TIP3    H129824   6.625   0.421  15.651 -0.1950  0.8793  0.7402
 2803TIP3    H229825   6.644   0.446  15.799 -0.7252  0.9345  0.7959
 2804TIP3   OH229826   6.222   6.592   0.816 -0.0959  0.2829 -0.0739
 2804TIP3    H129827   6.294   6.643   0.853  0.6778 -0.0318 -1.1285
 2804TIP3    H229828   6.148   6.653   0.815 -0.2134  0.2375  2.1684
 2805TIP3   OH229829   3.740   4.613  14.456 -0.1031  0.2282  0.2779
 2805TIP3    H129830   3.802   4.609  14.384 -1.7426 -0.2066 -1.1263
 2805TIP3    H229831   3.779   4.676  14.517  1.8233 -0.2023 -0.4511
 2806TIP3   OH229832   1.255   4.674  14.832 -0.1609 -0.4727 -0.8019
 2806TIP3    H129833   1.255   4.689  14.927  0.2280 -1.7371 -0.5822
 2806TIP3    H229834   1.330   4.725  14.800 -0.1038 -0.2889 -0.3825
 2807TIP3   OH229835   0.514   0.974  14.482 -0.6657  0.1029  0.2062
 2807TIP3    H129836   0.509   1.065  14.452 -1.3563 -0.1575 -0.4996
 2807TIP3    H229837   0.436   0.962  14.535 -1.0038 -0.3189 -0.3853
 2808TIP3   OH229838   3.481   3.957   4.342 -0.7399 -0.1346 -0.3588
 2808TIP3    H129839   3.507   3.972   4.251 -1.9556 -2.9551 -1.2422
 2808TIP3    H229840   3.445   3.868   4.342  0.5857 -0.7473  3.1918
 2809TIP3   OH229841   3.033   1.337  15.060 -1.0956  0.4517  0.3472
 2809TIP3    H129842   2.999   1.330  14.971  0.6687  0.2838 -0.3310
 2809TIP3    H229843   2.979   1.276  15.111 -2.2455  0.6964 -0.5411
 2810TIP3   OH229844   4.977   1.780   3.737  0.2237 -0.3566  0.1287
 2810TIP3    H129845   5.036   1.838   3.787  0.7420 -1.5099  0.8779
 2810TIP3    H229846   5.035   1.733   3.677 -0.0021 -1.0656  0.4585
 2811TIP3   OH229847   1.988   5.353  12.804 -0.3896 -0.2598 -0.2567
 2811TIP3    H129848   1.905   5.325  12.764 -0.7863  0.3744  0.1293
 2811TIP3    H229849   2.055   5.315  12.747 -0.9374 -0.9112 -0.4815
 2812TIP3   OH229850   0.921   0.933   5.939  0.2976  0.7040  0.3908
 2812TIP3    H129851   0.997   0.902   5.891 -0.2928 -0.4580  0.1710
 2812TIP3    H229852   0.939   0.910   6.030  0.2728  0.5512  0.3576
 2813TIP3   OH229853   6.696   6.276   2.575 -0.0336 -0.4252 -0.0647
 2813TIP3    H129854   6.757   6.219   2.621 -0.5546 -0.7565  0.2228
 2813TIP3    H229855   6.665   6.224   2.501 -0.4941 -0.5164  0.1872
 2814TIP3   OH229856   5.633   1.042   2.648 -0.1349 -0.6983 -0.3835
 2814TIP3    H129857   5.661   1.124   2.608 -1.6378 -0.2869 -0.6310
 2814TIP3    H229858   5.713   0.992   2.660  0.6878  0.4473 -1.0611
 2815TIP3   OH229859   5.846   5.389  15.863 -0.2629 -0.5681  0.0219
 2815TIP3    H129860   5.847   5.390  15.959 -0.8718  1.5799  0.0232
 2815TIP3    H229861   5.910   5.454  15.837 -0.7484 -0.5007 -1.0313
 2816TIP3   OH229862   6.516   5.622  10.255 -0.3513  0.0919 -0.3308
 2816TIP3    H129863   6.586   5.668  10.209  0.4664  0.7241  1.4935
 2816TIP3    H229864   6.558   5.545  10.293 -0.4023  1.0248  1.6514
 2817TIP3   OH229865   3.712   4.416   6.279 -0.0136  0.1384 -0.1854
 2817TIP3    H129866   3.797   4.377   6.297  0.1806  0.6028 -0.0785
 2817TIP3    H229867   3.651   4.370   6.337  0.5008  1.1803  1.1973
 2818TIP3   OH229868   4.026   0.662   1.163  0.2744  0.4474  0.1216
 2818TIP3    H129869   3.931   0.656   1.149  0.8211 -0.7274 -3.6129
 2818TIP3    H229870   4.042   0.609   1.241 -1.9471 -0.7145 -0.1695
 2819TIP3   OH229871   0.073   4.674   1.696 -0.0412  0.2267  0.3445
 2819TIP3    H129872   0.072   4.728   1.774  1.1600  0.3641  0.2733
 2819TIP3    H229873   0.063   4.736   1.623  0.3831  0.2621  0.3137
 2820TIP3   OH229874   2.989   4.096   4.693  0.5813  0.0165 -0.3528
 2820TIP3    H129875   3.076   4.058   4.684  1.0406  0.7977  0.7249
 2820TIP3    H229876   2.933   4.021   4.713  0.9809 -0.4970 -1.1014
 2821TIP3   OH229877   5.389   5.630  13.214 -0.4997  0.6470  0.1129
 2821TIP3    H129878   5.301   5.603  13.185 -0.2498  1.3974 -1.4109
 2821TIP3    H229879   5.414   5.700  13.153  1.0533  0.6122  0.6862
 2822TIP3   OH229880   2.637   3.907  13.895  0.3554 -0.3257 -0.1657
 2822TIP3    H129881   2.614   3.992  13.858  0.5675  0.8371  2.2767
 2822TIP3    H229882   2.688   3.927  13.974  0.0625 -2.6989  0.6881
 2823TIP3   OH229883   0.431   3.421  11.301  0.2680 -0.0892  0.0148
 2823TIP3    H129884   0.486   3.484  11.348  0.4097  0.4176 -0.8300
 2823TIP3    H229885   0.480   3.402  11.221 -0.7170  0.2655 -0.6843
 2824TIP3   OH229886   6.446   2.082   3.676  0.5285  0.1092  0.8157
 2824TIP3    H129887   6.441   2.152   3.611  0.9776  0.1631  0.8410
 2824TIP3    H229888   6.381   2.106   3.742  0.0556  0.0425  0.3767
 2825TIP3   OH229889   4.967   1.902  15.850 -0.0081  0.2781  0.2320
 2825TIP3    H129890   4.876   1.892  15.822 -0.4713  2.9693  0.6201
 2825TIP3    H229891   5.011   1.941  15.774 -0.6856  5.1058  2.1558
 2826TIP3   OH229892   6.521   1.412  15.430 -0.0129 -0.1682  0.5834
 2826TIP3    H129893   6.558   1.334  15.471 -0.5729 -0.3711  0.6958
 2826TIP3    H229894   6.559   1.413  15.342  1.1768  0.2602  1.0886
 2827TIP3   OH229895   5.054   3.199   5.741  0.3988 -0.1224 -0.3903
 2827TIP3    H129896   5.144   3.170   5.729  0.9673  0.5494  1.9636
 2827TIP3    H229897   5.015   3.134   5.800  0.2687  1.1919  1.0330
 2828TIP3   OH229898   6.045   3.586   2.921 -0.5481  0.0835  0.0404
 2828TIP3    H129899   6.074   3.495   2.925  0.0994  0.2471 -0.7975
 2828TIP3    H229900   6.014   3.605   3.010  0.8407 -0.4479  0.6579
 2829TIP3   OH229901   4.467   0.871  11.297  0.4238  0.2999  0.4890
 2829TIP3    H129902   4.509   0.829  11.373  1.7054 -1.6599 -1.2284
 2829TIP3    H229903   4.491   0.963  11.304  1.0023  0.0369  2.1527
 2830TIP3   OH229904   2.606   1.544   3.120 -0.1434  0.2275  0.1998
 2830TIP3    H129905   2.516   1.553   3.090 -0.2420  0.3341  0.5275
 2830TIP3    H229906   2.611   1.454   3.154  0.5285 -0.5977 -2.0123
 2831TIP3   OH229907   5.743   0.013  16.239  0.1230  0.3727 -0.0240
 2831TIP3    H129908   5.711   0.046  16.155  0.4802  1.5131  0.2698
 2831TIP3    H229909   5.774   0.092  16.285  1.2558 -0.4166  0.5949
 2832TIP3   OH229910   1.539   2.648   4.509  0.1369 -0.1765  0.3911
 2832TIP3    H129911   1.499   2.678   4.428  0.7340 -0.1864  0.0876
 2832TIP3    H229912   1.607   2.587   4.482  0.3644 -0.1557  0.8947
 2833TIP3   OH229913   3.209   1.630  12.793  0.2281  0.2795  0.3484
 2833TIP3    H129914   3.143   1.655  12.858  0.6776  0.1304  0.8658
 2833TIP3    H229915   3.160   1.578  12.729 -0.1879  0.2856  0.6582
 2834TIP3   OH229916   3.561   2.170   6.152  0.1958 -0.5326  0.5179
 2834TIP3    H129917   3.648   2.176   6.189  0.6937 -1.4914 -0.4605
 2834TIP3    H229918   3.504   2.150   6.226  1.1094 -1.9730  0.8654
 2835TIP3   OH229919   6.168   4.805  16.947  0.1794  0.0189  0.2432
 2835TIP3    H129920   6.229   4.774  17.014  0.4828 -0.0364 -0.0556
 2835TIP3    H229921   6.101   4.737  16.942  1.1827 -0.9035 -0.8641
 2836TIP3   OH229922   5.355   4.071   2.719 -0.0022 -0.4021 -0.0355
 2836TIP3    H129923   5.414   4.120   2.661 -1.2245  0.4377 -0.6054
 2836TIP3    H229924   5.357   4.120   2.801 -0.5082  0.0903 -0.3100
 2837TIP3   OH229925   4.670   1.943  13.609 -0.6502 -0.0731 -0.1572
 2837TIP3    H129926   4.664   1.914  13.518  0.6110 -1.4336  0.1661
 2837TIP3    H229927   4.764   1.955  13.624 -0.8572  0.2583  0.9248
 2838TIP3   OH229928   0.067   5.464   2.262 -0.0627 -0.5976 -0.1673
 2838TIP3    H129929   0.117   5.443   2.183 -0.4207  3.2307 -1.5018
 2838TIP3    H229930   0.133   5.485   2.327  0.2028 -2.7504  0.2960
 2839TIP3   OH229931   4.359   4.089  11.706  0.0662 -0.6842  0.0464
 2839TIP3    H129932   4.413   4.138  11.644 -0.7911 -0.5976 -0.6422
 2839TIP3    H229933   4.293   4.045  11.651 -1.8048  0.7971  1.0313
 2840TIP3   OH229934   2.689   5.755   1.917  0.1588 -0.1082  0.6450
 2840TIP3    H129935   2.705   5.749   2.012 -0.7369 -0.7525  0.7620
 2840TIP3    H229936   2.609   5.705   1.903  0.9816 -1.0897 -0.6495
 2841TIP3   OH229937   4.276   2.285   5.247  0.1647 -0.5198 -0.0098
 2841TIP3    H129938   4.243   2.348   5.311  2.3687 -0.8530  1.4870
 2841TIP3    H229939   4.277   2.334   5.164  0.3421  0.9170  0.8209
 2842TIP3   OH229940   1.004   0.146   2.299 -0.4480  0.3571  0.0529
 2842TIP3    H129941   1.029   0.187   2.382 -1.5553 -1.0867  1.1173
 2842TIP3    H229942   0.971   0.219   2.246  0.6454  1.3517  0.7194
 2843TIP3   OH229943   0.170   0.320  17.175  0.7065  0.0165 -0.1162
 2843TIP3    H129944   0.220   0.349  17.252  1.7943 -1.5880 -0.1900
 2843TIP3    H229945   0.111   0.393  17.156  0.2725  0.3577  2.3563
 2844TIP3   OH229946   3.736   0.680   2.323  0.1550 -0.6146  0.4112
 2844TIP3    H129947   3.770   0.652   2.238 -0.2197 -2.6226  0.9023
 2844TIP3    H229948   3.643   0.698   2.308  0.5026  0.8397 -0.0118
 2845TIP3   OH229949   1.004   2.080  12.980  0.0942 -0.1850  0.4447
 2845TIP3    H129950   0.919   2.112  13.011 -0.7599 -1.7654 -0.2265
 2845TIP3    H229951   1.063   2.155  12.991 -1.5609  1.1812  0.1567
 2846TIP3   OH229952   0.964   0.462   1.049  0.2605  0.2379  0.3602
 2846TIP3    H129953   0.965   0.381   0.997  1.0693 -2.0601  3.7630
 2846TIP3    H229954   0.878   0.501   1.030 -0.8533 -2.3122 -0.0627
 2847TIP3   OH229955   0.376   6.311   1.388 -0.5796 -0.0519 -0.1834
 2847TIP3    H129956   0.390   6.390   1.336 -0.7151  0.5879  0.7357
 2847TIP3    H229957   0.436   6.320   1.462 -0.7328 -0.7118  0.0243
 2848TIP3   OH229958   3.577   0.190  16.451  0.1579 -0.4716 -0.0246
 2848TIP3    H129959   3.507   0.204  16.514  0.3176 -0.1503  0.0833
 2848TIP3    H229960   3.647   0.146  16.501  0.0737 -0.7022 -0.1076
 2849TIP3   OH229961   2.482   6.571  13.671  0.3857  0.1870  0.3642
 2849TIP3    H129962   2.476   6.593  13.763  1.4189 -1.3677  0.8308
 2849TIP3    H229963   2.412   6.621  13.629 -0.5591  0.3390  2.0923
 2850TIP3   OH229964   6.190   0.909   1.906 -0.3145  0.0548 -0.2213
 2850TIP3    H129965   6.137   0.899   1.827  0.9103 -2.4159 -0.7587
 2850TIP3    H229966   6.151   0.849   1.969 -0.2274  0.7547  0.5146
 2851TIP3   OH229967   2.565   4.831   2.358 -0.1501 -0.4408 -0.9043
 2851TIP3    H129968   2.629   4.873   2.301 -0.5580  0.1638 -0.9175
 2851TIP3    H229969   2.483   4.877   2.340 -0.5472 -1.0843 -0.7484
 2852TIP3   OH229970   5.224   5.820  16.816 -0.0454  0.2985 -0.3379
 2852TIP3    H129971   5.247   5.913  16.819 -0.6241  0.4763 -1.1676
 2852TIP3    H229972   5.129   5.818  16.829  0.0759 -0.2367  0.4644
 2853TIP3   OH229973   1.636   4.694   6.240 -0.5614  0.0322 -0.1295
 2853TIP3    H129974   1.607   4.657   6.157 -0.0449  0.6746 -0.5983
 2853TIP3    H229975   1.604   4.784   6.240 -3.3886 -0.9081  1.8064
 2854TIP3   OH229976   2.474   1.331  13.838  0.1369  0.0713  0.6631
 2854TIP3    H129977   2.471   1.427  13.834 -1.3029  0.0209 -0.0375
 2854TIP3    H229978   2.489   1.304  13.748 -0.0539 -0.3636  0.7619
 2855TIP3   OH229979   2.070   2.676  12.853 -0.4154  0.3465 -0.1116
 2855TIP3    H129980   2.070   2.714  12.941 -0.9251 -0.9906  0.4674
 2855TIP3    H229981   2.099   2.586  12.866 -0.8253  0.0478 -1.2809
 2856TIP3   OH229982   6.769   3.654   4.828 -0.0515 -0.2191  0.1711
 2856TIP3    H129983   6.834   3.584   4.822  0.1608  0.0745 -1.2200
 2856TIP3    H229984   6.686   3.609   4.842  0.4398 -0.5979  1.8847
 2857TIP3   OH229985   3.073   1.808   3.101 -0.3541  0.1993 -0.0063
 2857TIP3    H129986   3.032   1.807   3.188  0.2253 -0.8100  0.2702
 2857TIP3    H229987   3.063   1.718   3.069  0.3002  0.3180 -0.5679
 2858TIP3   OH229988   3.129   6.383   2.132  0.0704  0.3505 -0.9929
 2858TIP3    H129989   3.199   6.444   2.157 -0.6899  0.9000 -0.1413
 2858TIP3    H229990   3.155   6.299   2.170  0.1116  0.6280 -0.4059
 2859TIP3   OH229991   4.567   1.086   2.324  0.4079  0.1176 -0.1393
 2859TIP3    H129992   4.518   1.164   2.351  0.5967 -0.7550  2.8419
 2859TIP3    H229993   4.501   1.019   2.312  0.3180  0.5153 -2.0179
 2860TIP3   OH229994   5.552   4.217   2.622  0.6149 -0.4219 -0.4165
 2860TIP3    H129995   5.560   4.266   2.540 -0.3776  2.7299  1.2944
 2860TIP3    H229996   5.642   4.210   2.654  0.7845  0.2128 -0.7373
 2861TIP3   OH229997   4.986   1.673  14.735 -0.5576 -0.4013 -0.2176
 2861TIP3    H129998   4.996   1.764  14.706 -0.4256 -0.2518  0.2868
 2861TIP3    H229999   5.046   1.624  14.679  0.5224  0.0375  0.5140
 2862TIP3   OH230000   4.228   3.053   2.967  0.4142 -0.6861 -0.2276
 2862TIP3    H130001   4.322   3.070   2.978  0.0070  1.5608 -0.1052
 2862TIP3    H230002   4.206   2.993   3.038  1.4417 -0.0116  0.6764
 2863TIP3   OH230003   5.237   1.806  13.540  0.1713 -0.1149  0.4749
 2863TIP3    H130004   5.173   1.752  13.585 -1.4614  0.6395 -0.8883
 2863TIP3    H230005   5.229   1.893  13.580  2.0098 -0.5654  1.8978
 2864TIP3   OH230006   5.116   2.098   1.188 -0.3576  0.3138  0.3573
 2864TIP3    H130007   5.156   2.087   1.274 -2.2427  0.9947  1.3704
 2864TIP3    H230008   5.054   2.171   1.200 -1.4437 -0.3050 -1.2829
 2865TIP3   OH230009   0.511   6.270   4.010  0.2588  0.2853 -0.0369
 2865TIP3    H130010   0.429   6.223   3.992  0.1826 -0.7722  2.8098
 2865TIP3    H230011   0.580   6.207   3.990  0.2860  0.3238 -0.0644
 2866TIP3   OH230012   3.889   4.498  13.873 -1.1203 -0.0365  0.4275
 2866TIP3    H130013   3.906   4.458  13.788 -1.4215 -0.2097  0.4441
 2866TIP3    H230014   3.826   4.568  13.854  0.5292  1.3944  0.1827
 2867TIP3   OH230015   0.312   3.484  15.121  0.0166 -0.5159  0.0561
 2867TIP3    H130016   0.376   3.529  15.066 -0.2326  0.1962  0.3414
 2867TIP3    H230017   0.254   3.440  15.060 -2.3016  3.0320 -0.4084
 2868TIP3   OH230018   1.892   4.275   0.210 -0.7226  0.4338 -0.1282
 2868TIP3    H130019   1.896   4.296   0.303  0.0215  1.1945 -0.3178
 2868TIP3    H230020   1.974   4.230   0.192 -0.4670  1.0792 -0.5972
 2869TIP3   OH230021   1.042   6.328  16.636  0.3895 -0.2006  0.1605
 2869TIP3    H130022   1.120   6.272  16.627  0.2986 -0.2634 -0.2448
 2869TIP3    H230023   1.016   6.348  16.546 -0.2949 -0.5056  0.2850
 2870TIP3   OH230024   4.434   3.078  15.860 -0.3741 -0.6592 -0.3775
 2870TIP3    H130025   4.347   3.046  15.839 -0.1964 -0.7725 -0.9600
 2870TIP3    H230026   4.474   3.097  15.775  0.5831 -1.7164 -0.1829
 2871TIP3   OH230027   1.683   1.989   6.570 -0.4438 -0.0016 -0.1020
 2871TIP3    H130028   1.757   2.026   6.619  0.3543 -0.1878 -1.1534
 2871TIP3    H230029   1.644   1.926   6.630  1.2204 -1.0668 -0.0880
 2872TIP3   OH230030   0.415   2.830   2.140  0.0381 -0.3345 -0.0408
 2872TIP3    H130031   0.413   2.923   2.117 -2.5801 -0.5730 -1.0653
 2872TIP3    H230032   0.351   2.821   2.210  1.7587 -1.0586  1.4736
 2873TIP3   OH230033   3.922   2.515  14.613 -0.2116 -0.0505 -0.0584
 2873TIP3    H130034   3.962   2.526  14.699  1.6016 -0.9581 -0.7673
 2873TIP3    H230035   3.841   2.467  14.630  0.4413 -0.7709  1.0622
 2874TIP3   OH230036   1.741   5.351   3.191  0.0803 -0.1534 -0.0142
 2874TIP3    H130037   1.766   5.442   3.206 -1.4005  0.2291  0.2522
 2874TIP3    H230038   1.708   5.321   3.276  1.4961 -1.2603  0.1651
 2875TIP3   OH230039   6.635   6.322  12.292 -0.2049 -0.1973 -0.1126
 2875TIP3    H130040   6.675   6.327  12.379 -1.4320 -2.9332  0.6714
 2875TIP3    H230041   6.559   6.379  12.296  1.5452  2.2129 -0.4554
 2876TIP3   OH230042   3.717   3.939   6.083  0.1100  0.2669 -0.3062
 2876TIP3    H130043   3.750   4.022   6.049 -0.9529  0.6004 -0.5343
 2876TIP3    H230044   3.680   3.962   6.168  2.5272 -0.5171  1.0144
 2877TIP3   OH230045   5.551   1.643   0.083  0.2537  0.4440  0.2591
 2877TIP3    H130046   5.485   1.573   0.084  1.0656 -0.3306  0.4621
 2877TIP3    H230047   5.577   1.653   0.174  1.3534 -0.1621  0.0189
 2878TIP3   OH230048   1.492   1.228   4.876 -0.4363  0.3983 -0.0179
 2878TIP3    H130049   1.512   1.317   4.849 -1.1396  0.8724  1.0231
 2878TIP3    H230050   1.576   1.192   4.904  0.0927  0.2761 -1.7429
 2879TIP3   OH230051   1.199   6.258  15.955  0.0766 -0.4733 -0.3007
 2879TIP3    H130052   1.259   6.185  15.969  0.8546  0.4881  1.5833
 2879TIP3    H230053   1.250   6.322  15.906 -0.4795 -1.0229 -1.6048
 2880TIP3   OH230054   2.075   5.749  13.227  0.2284  0.4191 -0.6923
 2880TIP3    H130055   2.100   5.671  13.178 -0.9189 -0.4972  0.1491
 2880TIP3    H230056   2.052   5.813  13.160 -1.5725 -0.9021 -1.3688
 2881TIP3   OH230057   0.838   2.234   2.337  1.5066 -0.1231  0.1515
 2881TIP3    H130058   0.862   2.159   2.391 -0.5465  0.4406  1.8810
 2881TIP3    H230059   0.846   2.309   2.395  0.7632  0.6792 -0.7725
 2882TIP3   OH230060   2.937   2.842  10.986  0.7328  0.0489  0.0191
 2882TIP3    H130061   2.998   2.810  10.919 -0.4706  0.5957 -1.3494
 2882TIP3    H230062   2.949   2.937  10.986 -0.3643  0.1975 -0.5218
 2883TIP3   OH230063   4.643   3.568  14.697 -0.0222 -0.6529 -0.1312
 2883TIP3    H130064   4.706   3.500  14.718  0.4645  0.0342  0.6681
 2883TIP3    H230065   4.630   3.561  14.603  2.2981  0.0943 -0.5420
 2884TIP3   OH230066   2.193   0.050  13.702 -0.1883 -0.3117 -0.1441
 2884TIP3    H130067   2.127   0.113  13.672 -0.9664 -0.9332  0.2465
 2884TIP3    H230068   2.218   0.002  13.624  0.5025  0.5757 -0.4689
 2885TIP3   OH230069   6.457   4.626   0.831 -0.1413 -0.5382 -1.0827
 2885TIP3    H130070   6.454   4.578   0.748 -1.3547 -3.7819  0.7648
 2885TIP3    H230071   6.549   4.652   0.840 -0.5447  2.6117 -4.8819
 2886TIP3   OH230072   4.651   3.855  11.835 -0.2526  0.2957 -0.4026
 2886TIP3    H130073   4.728   3.896  11.874  1.3631 -1.7525 -1.3955
 2886TIP3    H230074   4.627   3.786  11.896  1.1485 -1.6877 -2.0470
 2887TIP3   OH230075   3.795   4.269   3.179 -0.1918 -0.3314 -0.2354
 2887TIP3    H130076   3.752   4.272   3.094 -1.2245 -0.8101  0.2550
 2887TIP3    H230077   3.889   4.266   3.159 -0.3589  1.0044 -1.3206
 2888TIP3   OH230078   6.376   4.441   1.862  0.3403  0.5554 -0.3056
 2888TIP3    H130079   6.304   4.380   1.878  0.4474  0.5393  0.1167
 2888TIP3    H230080   6.351   4.520   1.909  1.4334 -0.0554  1.3255
 2889TIP3   OH230081   2.572   6.623   4.791  0.1438  0.5033  0.4931
 2889TIP3    H130082   2.477   6.633   4.801  0.0249  0.0004 -0.1276
 2889TIP3    H230083   2.600   6.702   4.744 -0.2571 -0.2664 -1.0778
 2890TIP3   OH230084   3.845   2.684  16.286 -0.4736 -0.0122  0.1498
 2890TIP3    H130085   3.850   2.757  16.348  2.2056 -0.6214  0.6767
 2890TIP3    H230086   3.761   2.642  16.306  0.5486 -0.4896  3.7193
 2891TIP3   OH230087   3.744   5.647   2.042  0.2482 -0.1632  0.4891
 2891TIP3    H130088   3.824   5.665   1.993  0.7979 -1.2264  0.9756
 2891TIP3    H230089   3.733   5.724   2.098 -0.2389  0.9381 -1.0852
 2892TIP3   OH230090   3.688   0.279  16.922 -0.9165 -0.3117  0.0029
 2892TIP3    H130091   3.648   0.300  16.837  0.7801 -1.8588 -1.2335
 2892TIP3    H230092   3.777   0.251  16.900  0.0360  0.6581  2.4624
 2893TIP3   OH230093   0.845   0.731   2.946  0.2224  0.4401 -0.4810
 2893TIP3    H130094   0.827   0.672   2.872 -3.4578  1.6204 -0.5952
 2893TIP3    H230095   0.835   0.675   3.024  1.4205 -0.1541 -0.7331
 2894TIP3   OH230096   1.009   0.838  13.812  0.5568 -0.1861  0.2108
 2894TIP3    H130097   1.018   0.831  13.717 -0.3338 -1.0348  0.1789
 2894TIP3    H230098   1.016   0.931  13.830  2.1881 -0.1518 -0.5275
 2895TIP3   OH230099   0.562   6.570  12.726  0.3674 -0.2003 -0.2166
 2895TIP3    H130100   0.578   6.553  12.819  1.5873  1.0119 -0.1849
 2895TIP3    H230101   0.591   6.661  12.713  0.9246 -0.6091 -1.9356
 2896TIP3   OH230102   0.510   3.698   2.787 -0.2168  0.0636  0.1200
 2896TIP3    H130103   0.507   3.625   2.849  1.7319  0.8178  1.1572
 2896TIP3    H230104   0.596   3.739   2.802  0.0327  0.6735 -2.6190
 2897TIP3   OH230105   0.552   2.611   5.993  0.2721 -0.5148  0.4383
 2897TIP3    H130106   0.607   2.533   5.986  1.8895  0.4988  1.4544
 2897TIP3    H230107   0.510   2.602   6.079 -0.7663 -1.0424 -0.1245
 2898TIP3   OH230108   1.734   1.097   4.926  0.4230  0.4490  0.1240
 2898TIP3    H130109   1.715   1.006   4.903  0.1204 -0.0975  2.3896
 2898TIP3    H230110   1.775   1.133   4.848 -0.4264 -1.3250 -1.1949
 2899TIP3   OH230111   3.395   2.078  13.935  0.4462  0.1715  0.1370
 2899TIP3    H130112   3.409   1.983  13.936 -0.4483  0.0245 -0.6552
 2899TIP3    H230113   3.459   2.111  13.872  1.5914  0.2416  1.3192
 2900TIP3   OH230114   1.653   3.957   3.716  0.5091  0.0227  0.0221
 2900TIP3    H130115   1.589   4.028   3.727  1.4155  0.7222  0.8411
 2900TIP3    H230116   1.687   3.941   3.804  2.6695  0.7930 -0.6382
 2901TIP3   OH230117   1.575   6.603  11.373  0.0886  0.7684 -0.0529
 2901TIP3    H130118   1.500   6.545  11.358 -1.7556  3.2093 -0.5263
 2901TIP3    H230119   1.543   6.669  11.434  2.2862  1.0957  0.7852
 2902TIP3   OH230120   6.735   4.616  12.897 -0.1307  0.2011  0.0658
 2902TIP3    H130121   6.713   4.554  12.828 -2.8975  1.8141 -0.5358
 2902TIP3    H230122   6.669   4.602  12.964  0.8676  0.6125  1.1662
 2903TIP3   OH230123   0.338   5.921  14.025  0.8538  0.0425  0.1257
 2903TIP3    H130124   0.296   5.974  14.093  0.8288 -1.1203  1.0266
 2903TIP3    H230125   0.394   5.983  13.978  1.8981  0.6053  2.0485
 2904TIP3   OH230126   1.958   1.120  15.761  0.0222  0.1644 -0.3258
 2904TIP3    H130127   1.970   1.061  15.836 -0.1458 -0.7198 -0.9773
 2904TIP3    H230128   2.027   1.185  15.770  3.1992 -2.7779 -2.1080
 2905TIP3   OH230129   5.873   4.344  12.972 -0.5548 -0.0295  0.5658
 2905TIP3    H130130   5.797   4.389  13.009 -0.1971 -0.4071  1.7901
 2905TIP3    H230131   5.866   4.255  13.005  0.5300 -0.0148  0.8545
 2906TIP3   OH230132   1.633   4.034  12.770 -0.1101  0.0422 -0.0294
 2906TIP3    H130133   1.587   4.031  12.854  0.7063 -0.3652  0.4079
 2906TIP3    H230134   1.714   3.987  12.786  0.5284  0.8920 -0.7593
 2907TIP3   OH230135   0.582   5.956   0.047 -0.6421 -0.2523 -0.8709
 2907TIP3    H130136   0.489   5.935   0.049 -0.4928 -1.0000 -1.2883
 2907TIP3    H230137   0.611   5.928  -0.040  0.0917 -0.5723 -0.5329
 2908TIP3   OH230138   1.717   0.149   4.707  0.3323  0.0421  0.1728
 2908TIP3    H130139   1.664   0.069   4.709  1.4346 -0.7766 -1.4034
 2908TIP3    H230140   1.716   0.175   4.615  1.8897  0.5250  0.2782
 2909TIP3   OH230141   0.365   3.092  13.082 -0.4192  0.0546 -0.8515
 2909TIP3    H130142   0.286   3.095  13.137  0.0284  0.5773 -0.2400
 2909TIP3    H230143   0.359   3.008  13.037 -0.7113 -0.4465  0.1135
 2910TIP3   OH230144   2.232   5.095   3.968 -0.0632 -0.2116 -0.2749
 2910TIP3    H130145   2.173   5.067   4.039 -0.9370 -2.3364 -1.7847
 2910TIP3    H230146   2.220   5.190   3.964 -0.4756 -0.1207  1.9972
 2911TIP3   OH230147   0.686   3.252  11.250  0.0212  0.5480  0.2340
 2911TIP3    H130148   0.696   3.277  11.158  0.3939 -0.4456 -0.0009
 2911TIP3    H230149   0.756   3.299  11.295 -1.1736  2.3173  0.2598
 2912TIP3   OH230150   5.331   5.410   2.716  0.1179 -0.0522  0.5448
 2912TIP3    H130151   5.297   5.456   2.792 -1.3987  0.0092 -0.1665
 2912TIP3    H230152   5.316   5.469   2.643  2.3644  0.2628  0.2900
 2913TIP3   OH230153   3.032   3.525  16.620 -0.0119 -0.5155  0.4778
 2913TIP3    H130154   2.939   3.540  16.637  0.2713  0.0730  1.5023
 2913TIP3    H230155   3.035   3.503  16.527 -1.0967  0.1699  0.2666
 2914TIP3   OH230156   2.173   5.845  10.849  0.0156 -0.0229  0.2729
 2914TIP3    H130157   2.089   5.886  10.826  0.5002  0.3855 -0.8110
 2914TIP3    H230158   2.152   5.787  10.922 -1.3664 -0.5240 -0.4990
 2915TIP3   OH230159   1.088   3.875   5.547  0.0219  0.2271  0.2577
 2915TIP3    H130160   1.038   3.795   5.532  0.4719 -0.5142  2.4893
 2915TIP3    H230161   1.023   3.942   5.566 -0.2929  0.1081 -0.3974
 2916TIP3   OH230162   4.032   3.805  16.698  0.5510 -0.1826 -0.0118
 2916TIP3    H130163   4.068   3.848  16.621 -1.1476  0.1990 -0.6225
 2916TIP3    H230164   3.989   3.727  16.664 -3.7604  2.0627 -0.0630
 2917TIP3   OH230165   2.707   3.973   1.321 -0.0263 -0.4140  0.1714
 2917TIP3    H130166   2.685   3.963   1.229 -0.7548 -2.1013  0.5174
 2917TIP3    H230167   2.635   3.930   1.368 -0.5375  1.8776  1.5815
 2918TIP3   OH230168   2.096   5.109  15.942  0.0449  0.4516  0.2359
 2918TIP3    H130169   2.157   5.038  15.924  0.0554  0.7941 -1.1648
 2918TIP3    H230170   2.012   5.080  15.906  0.1328  1.2750 -0.6763
 2919TIP3   OH230171   0.324   5.212   5.379 -0.1440 -0.5099  0.2713
 2919TIP3    H130172   0.356   5.279   5.318  1.2208 -1.6120 -0.2513
 2919TIP3    H230173   0.229   5.222   5.378 -0.0980 -0.0189 -1.4804
 2920TIP3   OH230174   4.817   3.263   6.207 -0.2904 -0.2080  0.1863
 2920TIP3    H130175   4.725   3.287   6.212 -0.7088 -2.0542  1.9456
 2920TIP3    H230176   4.861   3.321   6.269 -0.2388  0.6675 -0.6479
 2921TIP3   OH230177   1.338   6.520  14.307 -0.3449  0.0968 -0.1034
 2921TIP3    H130178   1.432   6.533  14.320 -0.2945  0.2429 -0.5849
 2921TIP3    H230179   1.298   6.603  14.330 -0.3605  0.0203  0.1448
 2922TIP3   OH230180   6.599   3.903  13.514 -0.1266  0.2656  0.2340
 2922TIP3    H130181   6.543   3.953  13.573  1.1518  0.7396  1.0594
 2922TIP3    H230182   6.585   3.944  13.428 -0.3400  0.9785  0.6007
 2923TIP3   OH230183   2.205   0.024   1.594  0.3826  0.3527  0.0268
 2923TIP3    H130184   2.252   0.003   1.675 -0.1554 -1.1477 -0.0480
 2923TIP3    H230185   2.274   0.037   1.529  0.7440 -0.3831  0.2644
 2924TIP3   OH230186   1.737   4.671   0.618 -0.3150  0.0158  0.1915
 2924TIP3    H130187   1.788   4.662   0.698 -0.0689 -1.5178 -0.1374
 2924TIP3    H230188   1.794   4.640   0.548 -0.8969  0.3731 -0.4540
 2925TIP3   OH230189   6.560   0.545  13.273  0.1971  1.1528  0.1761
 2925TIP3    H130190   6.648   0.565  13.304  1.3032 -0.7824 -1.6255
 2925TIP3    H230191   6.546   0.453  13.298 -1.5685  1.6051  0.9717
 2926TIP3   OH230192   4.835   1.636  13.026 -0.2678 -0.2459  0.3695
 2926TIP3    H130193   4.840   1.651  12.932  1.4051  1.4922  0.6901
 2926TIP3    H230194   4.892   1.704  13.064 -1.0256 -0.8213  2.6281
 2927TIP3   OH230195   3.806   1.074  16.127  0.1171 -0.1750  0.5095
 2927TIP3    H130196   3.826   1.127  16.049 -0.3248 -0.3105  0.2993
 2927TIP3    H230197   3.883   1.019  16.140  0.4486  0.2907  0.5348
 2928TIP3   OH230198   0.715   4.536  16.668  0.1156  0.1319  0.2813
 2928TIP3    H130199   0.775   4.477  16.712 -0.2366  0.8067  1.6778
 2928TIP3    H230200   0.724   4.619  16.714 -2.1899  0.1203  0.8149
 2929TIP3   OH230201   2.088   0.399   5.128 -0.0099  1.1013  0.1105
 2929TIP3    H130202   2.044   0.371   5.047  1.6623  1.0361 -0.7994
 2929TIP3    H230203   2.020   0.395   5.195 -1.7833  2.4742 -1.5555
 2930TIP3   OH230204   1.989   3.941  13.514 -0.0403  0.1782 -0.5304
 2930TIP3    H130205   1.957   3.971  13.429 -2.7507 -0.4070  0.2464
 2930TIP3    H230206   1.929   3.871  13.539  1.6763 -0.7328  1.1534
 2931TIP3   OH230207   2.623   6.272   1.860 -0.3219  0.3405  0.4454
 2931TIP3    H130208   2.561   6.199   1.853 -1.0035  0.9480  0.1594
 2931TIP3    H230209   2.705   6.236   1.825 -1.4867  0.6944 -2.7910
 2932TIP3   OH230210   5.486   0.158  10.800  0.4216 -0.3942  0.2271
 2932TIP3    H130211   5.479   0.064  10.815  1.1986 -0.4835  0.0490
 2932TIP3    H230212   5.576   0.180  10.824  0.8291 -0.0377 -1.5478
 2933TIP3   OH230213   4.325   6.503  16.475  0.2353  0.0928 -0.8884
 2933TIP3    H130214   4.380   6.511  16.554 -0.8827  0.2529 -0.1094
 2933TIP3    H230215   4.321   6.409  16.458 -0.4558 -0.0279 -0.0759
 2934TIP3   OH230216   0.816   6.077  15.324 -0.3338  0.6134 -0.9196
 2934TIP3    H130217   0.899   6.083  15.370 -1.1469  1.0269  0.5128
 2934TIP3    H230218   0.828   6.004  15.263  1.4972  1.4911 -1.6382
 2935TIP3   OH230219   1.684   2.023   3.516 -0.3443 -0.2811 -0.8090
 2935TIP3    H130220   1.708   1.931   3.501  2.4176  0.4133 -0.8674
 2935TIP3    H230221   1.744   2.072   3.460 -1.1379  1.6308 -0.0032
 2936TIP3   OH230222   6.615   0.185  16.269 -0.1949  0.4467 -0.2082
 2936TIP3    H130223   6.598   0.122  16.339 -3.4838  0.2554 -1.1285
 2936TIP3    H230224   6.636   0.131  16.192 -0.0402  0.5555 -0.2415
 2937TIP3   OH230225   1.188   2.543  16.937 -0.2201 -0.9694 -0.4985
 2937TIP3    H130226   1.096   2.565  16.951 -0.2918 -1.8342  0.3777
 2937TIP3    H230227   1.209   2.582  16.852 -0.8907  0.8109  0.1286
 2938TIP3   OH230228   0.251   0.818   1.628  0.5283  0.1470  0.3398
 2938TIP3    H130229   0.165   0.793   1.660  0.2094 -0.0464 -0.6587
 2938TIP3    H230230   0.312   0.768   1.683  0.0314  0.6007  1.3222
 2939TIP3   OH230231   1.670   2.529  16.072 -0.5867  0.2049 -0.2761
 2939TIP3    H130232   1.611   2.502  16.142 -1.7415  1.6712 -0.6545
 2939TIP3    H230233   1.757   2.524  16.110 -1.2200  1.1698  1.3564
 2940TIP3   OH230234   1.533   4.619   3.360 -0.1168  0.2107  0.4181
 2940TIP3    H130235   1.461   4.571   3.318  0.9962  1.7422 -3.4659
 2940TIP3    H230236   1.610   4.564   3.347  0.4940  1.3258 -0.8510
 2941TIP3   OH230237   0.476   0.093   1.914  0.6348  0.1394 -0.8783
 2941TIP3    H130238   0.505   0.158   1.978  0.8903  1.8143 -2.6627
 2941TIP3    H230239   0.458   0.015   1.966 -2.2889  2.4191  1.6507
 2942TIP3   OH230240   5.449   4.538  13.327  0.5044 -0.0635  0.1972
 2942TIP3    H130241   5.428   4.525  13.234  1.2599 -1.3424  0.1948
 2942TIP3    H230242   5.374   4.500  13.374  1.4755 -2.0950  0.1451
 2943TIP3   OH230243   4.168   2.996   4.588  0.1497 -0.4917 -0.2135
 2943TIP3    H130244   4.097   2.933   4.604 -0.5225  0.2745 -0.1699
 2943TIP3    H230245   4.245   2.953   4.625 -0.4659 -0.9235  0.6102
 2944TIP3   OH230246   5.417   3.160  16.453 -0.7146  0.2333  0.0362
 2944TIP3    H130247   5.460   3.074  16.460  0.6259  0.6050 -2.9168
 2944TIP3    H230248   5.376   3.159  16.367  1.4138  3.4606 -1.1022
 2945TIP3   OH230249   2.946   0.891  15.601  0.6499 -0.4500  0.0596
 2945TIP3    H130250   2.935   0.816  15.659 -0.7642 -2.1480 -2.3228
 2945TIP3    H230251   2.933   0.856  15.513  3.2510  1.9684 -1.3636
 2946TIP3   OH230252   5.896   0.684   2.500 -0.4059 -0.1368 -0.4585
 2946TIP3    H130253   5.943   0.601   2.490  1.0841  0.6641 -0.2205
 2946TIP3    H230254   5.837   0.687   2.425 -0.0149 -1.1108 -0.8182
 2947TIP3   OH230255   0.045   4.385   2.758 -0.1278 -0.3614  0.1523
 2947TIP3    H130256   0.109   4.336   2.809 -1.3467 -1.8076  0.3186
 2947TIP3    H230257  -0.006   4.434   2.824 -0.7016 -1.0347  0.2172
 2948TIP3   OH230258   1.631   4.629   3.848  0.0367  0.3531  0.0555
 2948TIP3    H130259   1.628   4.579   3.767 -3.7333 -3.1194  2.1342
 2948TIP3    H230260   1.551   4.682   3.846  0.1959  0.6525  1.2259
 2949TIP3   OH230261   4.962   0.241   4.177 -0.1312 -0.1304 -0.2803
 2949TIP3    H130262   5.033   0.267   4.235 -0.2396 -1.6511  0.5698
 2949TIP3    H230263   5.003   0.230   4.091  0.0517  2.0191 -0.4835
 2950TIP3   OH230264   4.511   5.996   4.635  0.1578  0.1740  0.2075
 2950TIP3    H130265   4.454   5.945   4.578 -0.7429 -0.7095  1.8760
 2950TIP3    H230266   4.555   5.931   4.689  0.8750  1.0143  0.6457
 2951TIP3   OH230267   1.509   3.936  12.350  0.6740  0.8168 -0.2976
 2951TIP3    H130268   1.539   4.002  12.288 -1.5954  0.1406 -2.1926
 2951TIP3    H230269   1.440   3.889  12.303  0.0547 -0.8083  2.1596
 2952TIP3   OH230270   2.993   2.615  16.835  0.9135  0.1008  0.5297
 2952TIP3    H130271   2.992   2.633  16.929  1.1824 -0.5239  0.6544
 2952TIP3    H230272   2.915   2.658  16.801  0.9803  0.5900  0.9895
 2953TIP3   OH230273   0.894   4.174  15.638  0.3068  0.2189  0.8409
 2953TIP3    H130274   0.859   4.133  15.717  0.5067  0.3003  0.9708
 2953TIP3    H230275   0.987   4.153  15.640  0.0604 -0.9767 -0.1101
 2954TIP3   OH230276   2.655   5.358  11.987 -0.0410 -0.3625 -0.1192
 2954TIP3    H130277   2.673   5.363  12.081 -0.4059  2.9516 -0.1731
 2954TIP3    H230278   2.739   5.336  11.948  0.8743  1.4323  0.7614
 2955TIP3   OH230279   5.940   2.628  12.389  0.3083  0.2226  0.3494
 2955TIP3    H130280   5.904   2.572  12.457 -1.7197  1.4131  0.2968
 2955TIP3    H230281   5.968   2.568  12.320  0.5275 -0.8611  1.3856
 2956TIP3   OH230282   5.974   5.148   0.590 -0.8721 -0.2139  0.2070
 2956TIP3    H130283   5.953   5.241   0.587 -0.8552 -0.2443 -0.8911
 2956TIP3    H230284   5.933   5.111   0.512 -0.0010 -0.9418  0.0847
 2957TIP3   OH230285   4.835   2.971   0.239  0.2454 -0.5525 -0.2388
 2957TIP3    H130286   4.878   3.030   0.178  1.6355 -0.9955  0.2961
 2957TIP3    H230287   4.905   2.943   0.298 -0.8595 -0.9640  0.8919
 2958TIP3   OH230288   0.491   1.032  11.878 -0.2037 -0.1606  0.4377
 2958TIP3    H130289   0.509   0.976  11.802  0.2018 -0.2097  0.5706
 2958TIP3    H230290   0.443   0.975  11.939  0.4447 -0.4460  0.6874
 2959TIP3   OH230291   5.029   2.816  10.654 -0.1220 -0.3134 -0.3053
 2959TIP3    H130292   4.934   2.804  10.644 -0.5367  2.8110 -0.6001
 2959TIP3    H230293   5.054   2.868  10.578  1.4677  0.6938  0.8903
 2960TIP3   OH230294   4.009   1.803   3.134 -0.2665 -0.3040  0.1176
 2960TIP3    H130295   4.098   1.774   3.111  0.1983 -1.1992  2.8400
 2960TIP3    H230296   3.952   1.750   3.079  0.7799 -2.4428  1.0311
 2961TIP3   OH230297   2.676   5.801  13.754 -0.5303 -0.8252  0.3130
 2961TIP3    H130298   2.656   5.713  13.789 -1.3560 -0.9716 -0.5074
 2961TIP3    H230299   2.771   5.807  13.759 -0.5516 -1.2952  1.5221
 2962TIP3   OH230300   6.771   3.433   0.815  0.1337  0.5877 -0.3656
 2962TIP3    H130301   6.739   3.490   0.885  1.0365  1.5936 -0.7664
 2962TIP3    H230302   6.796   3.352   0.860 -1.6283  0.2924  0.1353
 2963TIP3   OH230303   1.584   0.318  13.984 -0.2630 -0.2762  0.0205
 2963TIP3    H130304   1.534   0.347  13.909 -1.0155 -1.1638  0.1688
 2963TIP3    H230305   1.550   0.368  14.058  1.0784  1.2362 -0.3623
 2964TIP3   OH230306   2.471   6.145   2.825 -0.8885  0.4266  0.4423
 2964TIP3    H130307   2.553   6.158   2.778  1.0448 -0.9500  3.2725
 2964TIP3    H230308   2.425   6.078   2.774  1.4822 -1.5657  0.7916
 2965TIP3   OH230309   2.227   0.857   1.173 -0.7298  0.5671 -0.0284
 2965TIP3    H130310   2.215   0.941   1.216  0.8856  0.4787  0.6150
 2965TIP3    H230311   2.319   0.835   1.188 -1.1833 -1.4040 -0.0080
 2966TIP3   OH230312   0.987   4.641   2.133 -0.0713  0.1701  0.3581
 2966TIP3    H130313   0.917   4.606   2.077  0.8740  0.4579 -1.0230
 2966TIP3    H230314   1.030   4.563   2.169 -1.5255 -0.0087  1.7909
 2967TIP3   OH230315   4.913   0.983   1.096  0.0351 -0.7047  0.7340
 2967TIP3    H130316   4.819   0.992   1.114  0.5094  0.4314  2.7131
 2967TIP3    H230317   4.943   1.072   1.079  1.1293 -0.8268  1.9818
 2968TIP3   OH230318   3.173   5.806  13.517  0.0663 -0.3612  0.4816
 2968TIP3    H130319   3.227   5.799  13.596  0.8509  0.6018  0.0292
 2968TIP3    H230320   3.169   5.900  13.499  1.6193 -0.7161 -1.8336
 2969TIP3   OH230321   0.897   4.659  12.007  0.3689  1.0748 -0.0485
 2969TIP3    H130322   0.902   4.563  12.006  0.5282  1.0795  0.2802
 2969TIP3    H230323   0.815   4.679  11.962 -0.0481  0.7601  0.5634
 2970TIP3   OH230324   5.704   1.684  15.107  0.2114 -0.3684 -0.2706
 2970TIP3    H130325   5.766   1.673  15.180  1.2942  0.1718 -1.0854
 2970TIP3    H230326   5.677   1.595  15.086 -0.5642 -0.4926  1.1586
 2971TIP3   OH230327   3.858   5.996   2.620  0.4717 -0.5209 -0.4719
 2971TIP3    H130328   3.925   6.029   2.561  2.7164  1.5460  3.0785
 2971TIP3    H230329   3.784   6.057   2.608  1.4395  0.7447 -0.1467
 2972TIP3   OH230330   5.415   4.271   4.904  0.3231 -0.4769  0.0688
 2972TIP3    H130331   5.321   4.282   4.918  0.4549 -0.3848  0.8876
 2972TIP3    H230332   5.444   4.216   4.977  0.9682 -0.2059  0.0188
 2973TIP3   OH230333   4.284   1.967  13.379 -0.6614  0.2261 -0.2734
 2973TIP3    H130334   4.335   1.957  13.299 -0.2733  0.3691 -0.0423
 2973TIP3    H230335   4.313   2.050  13.416 -0.7354  0.0875  0.0949
 2974TIP3   OH230336   6.341   1.585  16.883  0.4601 -0.2747 -0.4265
 2974TIP3    H130337   6.279   1.621  16.946 -0.9656 -0.8827 -1.4587
 2974TIP3    H230338   6.418   1.642  16.890  0.0996  0.0289  1.4048
 2975TIP3   OH230339   6.204   2.793   1.727  0.1142  0.0377  0.2031
 2975TIP3    H130340   6.247   2.878   1.737 -1.9310  1.3111 -1.3928
 2975TIP3    H230341   6.155   2.781   1.809 -1.2923  1.4329 -0.4096
 2976TIP3   OH230342   5.391   6.283  13.760 -0.2299  0.0812 -0.4189
 2976TIP3    H130343   5.378   6.246  13.673  0.0252  0.1404 -0.4828
 2976TIP3    H230344   5.365   6.212  13.820  1.2596 -0.5931 -0.5425
 2977TIP3   OH230345   3.360   2.810   5.847  0.9468  0.0392 -0.0105
 2977TIP3    H130346   3.336   2.800   5.939  0.5418  1.1485  0.0137
 2977TIP3    H230347   3.400   2.896   5.841 -2.1278  1.4625 -1.4666
 2978TIP3   OH230348   4.607   1.272  12.464  0.4591  0.0399  0.1065
 2978TIP3    H130349   4.532   1.291  12.408  1.5962 -1.0632 -1.8470
 2978TIP3    H230350   4.614   1.177  12.465  2.1630  0.1379 -0.2068
 2979TIP3   OH230351   4.770   1.049   0.116  0.1366 -0.6110 -0.5795
 2979TIP3    H130352   4.807   0.995   0.186 -0.4369 -1.5581 -0.9824
 2979TIP3    H230353   4.801   1.008   0.036 -1.1700 -0.9989 -0.9062
 2980TIP3   OH230354   0.594   2.709  11.565  0.6246 -0.8188 -0.7758
 2980TIP3    H130355   0.585   2.719  11.470 -0.5082  0.3103 -0.5657
 2980TIP3    H230356   0.510   2.739  11.600  1.7485  0.6374  0.7172
 2981TIP3   OH230357   5.225   4.329  13.184 -0.7195  0.2764  0.1154
 2981TIP3    H130358   5.255   4.305  13.096 -0.8724  0.0677  0.1213
 2981TIP3    H230359   5.161   4.398  13.169 -2.3836 -1.2886 -0.0688
 2982TIP3   OH230360   2.533   1.797   0.708  0.6681 -0.2393 -0.5514
 2982TIP3    H130361   2.580   1.859   0.764  0.6168 -0.9687  0.3054
 2982TIP3    H230362   2.601   1.746   0.664  0.6962 -0.7260  0.0481
 2983TIP3   OH230363   1.838   4.198  12.361 -0.1778  0.2474  0.9635
 2983TIP3    H130364   1.838   4.115  12.409 -0.3678  0.2828  1.0239
 2983TIP3    H230365   1.770   4.187  12.294 -0.8693  0.7135  1.5895
 2984TIP3   OH230366   3.930   0.861   3.085 -0.0236  0.1291 -0.4855
 2984TIP3    H130367   3.928   0.885   3.177 -3.1527 -0.1323 -0.4392
 2984TIP3    H230368   3.886   0.933   3.040  0.2986 -0.3591 -1.6144
 2985TIP3   OH230369   2.576   3.967  16.998 -0.0834 -0.1159 -0.0158
 2985TIP3    H130370   2.511   3.935  17.060 -0.5844 -2.5881 -1.7629
 2985TIP3    H230371   2.651   3.909  17.009  0.4989  0.5265 -0.4974
 2986TIP3   OH230372   1.657   0.294   2.954  0.1350 -1.1307  0.6541
 2986TIP3    H130373   1.743   0.254   2.964  1.0464  0.7749  0.7314
 2986TIP3    H230374   1.675   0.380   2.917 -1.5461  0.1066  2.5998
 2987TIP3   OH230375   5.369   4.050  12.762 -0.8481  0.0953 -0.0249
 2987TIP3    H130376   5.416   4.024  12.842  1.0672 -0.7874 -1.3943
 2987TIP3    H230377   5.333   3.969  12.727 -0.1475  0.1925 -1.0052
 2988TIP3   OH230378   5.537   3.915  15.949  0.5960  0.3375  0.0324
 2988TIP3    H130379   5.460   3.858  15.941  1.7725 -1.2218 -0.4376
 2988TIP3    H230380   5.531   3.951  16.038 -1.4292  1.3748 -0.4942
 2989TIP3   OH230381   3.818   5.833  15.249  0.4662 -0.0221  0.1764
 2989TIP3    H130382   3.824   5.871  15.162  0.5208  1.0749  0.6434
 2989TIP3    H230383   3.809   5.739  15.234 -0.6770  0.2736 -1.0331
 2990TIP3   OH230384   6.116   0.073   5.375  0.0923  0.0756  0.0730
 2990TIP3    H130385   6.184   0.123   5.329 -0.6571 -0.6788 -1.8960
 2990TIP3    H230386   6.127  -0.017   5.343 -2.2800  0.0801 -0.8442
 2991TIP3   OH230387   3.123   0.712  11.383  0.0291 -0.1995  0.2470
 2991TIP3    H130388   3.155   0.639  11.330  1.7246 -0.5096  1.6277
 2991TIP3    H230389   3.033   0.725  11.354  0.1667 -1.8900 -1.0409
 2992TIP3   OH230390   1.093   0.178   3.578  0.0392 -0.4272  0.4216
 2992TIP3    H130391   1.011   0.127   3.574  0.4436 -0.9788 -1.0886
 2992TIP3    H230392   1.101   0.203   3.670 -1.6091 -0.7396  0.6623
 2993TIP3   OH230393   0.832   4.755   0.945 -0.3553  0.4486 -0.4147
 2993TIP3    H130394   0.796   4.706   0.871 -1.2093  0.1455  0.1905
 2993TIP3    H230395   0.926   4.740   0.941 -0.5848 -0.9953 -0.4191
 2994TIP3   OH230396   4.248   2.089  13.029  0.0954  0.3764  0.2155
 2994TIP3    H130397   4.318   2.115  12.969 -0.1855 -0.2001 -0.3660
 2994TIP3    H230398   4.169   2.130  12.994  0.0264  0.4769  0.4893
 2995TIP3   OH230399   4.150   4.873   3.457 -0.4611  0.3318 -0.1357
 2995TIP3    H130400   4.155   4.863   3.362  0.6602  1.4009 -0.1981
 2995TIP3    H230401   4.096   4.799   3.486 -1.3976  0.3937 -1.6651
 2996TIP3   OH230402   3.574   4.684   3.457  0.0552  0.1660 -0.1212
 2996TIP3    H130403   3.557   4.630   3.379  1.1559  1.0653 -0.9853
 2996TIP3    H230404   3.555   4.625   3.531  1.4093 -1.4712 -1.0461
 2997TIP3   OH230405   4.962   3.139  13.279  0.6135  0.0444  0.3513
 2997TIP3    H130406   5.036   3.179  13.233  0.1087  0.1995 -0.3348
 2997TIP3    H230407   4.954   3.190  13.360  1.6494 -0.3729  0.7271
 2998TIP3   OH230408   3.719   4.939   4.477  0.0809 -0.0735  0.1686
 2998TIP3    H130409   3.719   4.869   4.542 -2.6911 -0.4624 -0.1969
 2998TIP3    H230410   3.641   4.991   4.498 -0.1889  0.4780 -2.1159
 2999TIP3   OH230411   5.857   4.927   2.913 -0.2095  0.1691 -0.4206
 2999TIP3    H130412   5.932   4.967   2.958  0.3013  0.8664 -1.8569
 2999TIP3    H230413   5.865   4.834   2.933 -0.0930  0.4891  1.0640
 3000TIP3   OH230414   6.653   3.408  16.140 -0.0484 -0.1090 -0.2880
 3000TIP3    H130415   6.723   3.350  16.168 -0.4251 -1.5497 -2.2262
 3000TIP3    H230416   6.581   3.389  16.200  0.2269 -0.7729 -0.1646
 3001TIP3   OH230417   0.518   6.099   3.248  0.2636  0.1107 -0.2339
 3001TIP3    H130418   0.518   6.123   3.156  0.6332  1.8147  0.1942
 3001TIP3    H230419   0.448   6.151   3.287 -0.0061 -0.7250  0.4157
 3002TIP3   OH230420   2.889   0.994  15.962  0.1296  0.1236  0.4852
 3002TIP3    H130421   2.936   1.018  15.882  0.9866  2.2693  1.5936
 3002TIP3    H230422   2.955   0.956  16.019  0.3101  2.0450  1.5867
 3003TIP3   OH230423   6.718   5.242  15.887  0.2046 -0.5345  0.3352
 3003TIP3    H130424   6.687   5.255  15.977  0.4287 -1.5834  0.5710
 3003TIP3    H230425   6.679   5.159  15.860 -2.0362  0.9921 -1.4795
 3004TIP3   OH230426   2.149   1.490  15.498  0.2764 -0.2106  0.5080
 3004TIP3    H130427   2.113   1.481  15.587  0.8253  0.7718  0.8297
 3004TIP3    H230428   2.242   1.471  15.508  0.2615 -0.5312  0.0587
 3005TIP3   OH230429   0.411   1.779  17.101  0.1271  0.0860 -0.0055
 3005TIP3    H130430   0.456   1.742  17.025  0.6211  1.1656 -0.2453
 3005TIP3    H230431   0.447   1.732  17.175 -0.3051 -0.9294 -0.4368
 3006TIP3   OH230432   2.398   6.317   1.279 -0.4978 -0.3609  0.0594
 3006TIP3    H130433   2.370   6.407   1.295  0.5847 -0.1951  1.1022
 3006TIP3    H230434   2.365   6.297   1.192  0.7819  1.6571 -0.9237
 3007TIP3   OH230435   2.013   0.660  12.913 -0.1120 -0.7246 -0.0004
 3007TIP3    H130436   2.063   0.658  12.832 -2.1092  1.6386 -1.3736
 3007TIP3    H230437   2.051   0.732  12.964  0.0538 -1.1011  0.4087
 3008TIP3   OH230438   5.484   0.132   0.432 -0.5756 -0.6924 -0.1711
 3008TIP3    H130439   5.504   0.129   0.526  1.1623 -0.7954 -0.5263
 3008TIP3    H230440   5.562   0.169   0.392 -1.1180 -1.1021 -1.6374
 3009TIP3   OH230441   1.954   4.051  13.916  0.0306 -0.1400  0.4727
 3009TIP3    H130442   1.993   4.010  13.993 -0.0494  1.1830  1.2398
 3009TIP3    H230443   1.866   4.077  13.945  0.8083  2.4175  0.6649
 3010TIP3   OH230444   2.001   2.951   3.063 -0.2084 -0.3533  0.3280
 3010TIP3    H130445   1.969   2.880   3.008  0.5829 -0.7120  0.3264
 3010TIP3    H230446   1.962   2.935   3.149 -0.0234 -0.8057  0.3315
 3011TIP3   OH230447   1.579   3.580  13.834 -0.0323  0.7511 -0.0618
 3011TIP3    H130448   1.657   3.635  13.831 -0.0051  0.6404 -1.3261
 3011TIP3    H230449   1.599   3.505  13.778 -0.8060  0.4020  0.1172
 3012TIP3   OH230450   0.373   2.153   4.482  0.6600 -0.3582  0.4348
 3012TIP3    H130451   0.332   2.067   4.477 -1.3983  0.5632  0.7365
 3012TIP3    H230452   0.369   2.187   4.393  0.1660  0.0044  0.5943
 3013TIP3   OH230453   5.377   1.186   0.459  0.2633  0.0690 -0.1181
 3013TIP3    H130454   5.468   1.206   0.481  0.4322  0.0973 -0.8575
 3013TIP3    H230455   5.359   1.104   0.505  0.7827 -0.1459 -0.2905
 3014TIP3   OH230456   1.057   1.803   3.580 -0.6836 -0.3380  0.3860
 3014TIP3    H130457   0.996   1.760   3.639  0.4651 -0.6215  1.3957
 3014TIP3    H230458   1.006   1.873   3.538 -0.9917  1.2598  3.2959
 3015TIP3   OH230459   6.074   1.302   0.861 -0.2019  0.3702  0.2833
 3015TIP3    H130460   6.007   1.365   0.836 -0.7071  0.6925  2.3348
 3015TIP3    H230461   6.034   1.216   0.847 -0.1890  0.5299 -0.7303
 3016TIP3   OH230462   3.000   1.674  12.406  0.1081 -0.2319  0.2764
 3016TIP3    H130463   3.094   1.659  12.401 -0.1567 -1.9048  0.0350
 3016TIP3    H230464   2.976   1.647  12.495 -0.3124 -0.8868 -0.0310
 3017TIP3   OH230465   0.651   5.420   1.218  0.4912  0.4629 -0.2872
 3017TIP3    H130466   0.565   5.414   1.260  0.2515  0.9264 -0.6992
 3017TIP3    H230467   0.713   5.394   1.286  0.1101  1.2694  0.3840
 3018TIP3   OH230468   3.728   5.442   4.859 -0.1541  0.0016 -0.4618
 3018TIP3    H130469   3.810   5.435   4.809  0.2872  0.0074  0.2497
 3018TIP3    H230470   3.751   5.497   4.934 -1.1235  1.0191 -0.8899
 3019TIP3   OH230471   3.796   4.507  11.008  0.4034  0.7231  1.2242
 3019TIP3    H130472   3.727   4.557  11.052  0.0515 -0.0867  1.6122
 3019TIP3    H230473   3.856   4.573  10.974 -0.0042  1.4000  1.8107
 3020TIP3   OH230474   3.963   4.812   5.134  0.1719  0.2702  0.5324
 3020TIP3    H130475   4.007   4.895   5.145  0.2855  0.3799 -0.6674
 3020TIP3    H230476   3.874   4.827   5.167  1.0871 -0.0463  3.2366
 3021TIP3   OH230477   1.917   2.064   4.264 -0.0048  0.3245 -0.1818
 3021TIP3    H130478   1.934   2.078   4.358 -0.9685  1.2518 -0.1413
 3021TIP3    H230479   1.977   2.125   4.221 -2.0783  2.4827 -0.0732
 3022TIP3   OH230480   3.007   5.211   6.287  0.4447  0.7114  0.2306
 3022TIP3    H130481   2.999   5.185   6.196  0.4702  0.0168  0.4240
 3022TIP3    H230482   3.048   5.298   6.284  3.0014 -0.4917 -0.2980
 3023TIP3   OH230483   1.318   3.679  15.024  0.2415 -0.1125 -0.4434
 3023TIP3    H130484   1.318   3.675  15.119  1.1861 -1.3043 -0.4819
 3023TIP3    H230485   1.226   3.689  15.000 -0.3393 -2.6929  0.5066
 3024TIP3   OH230486   0.284   4.615   3.352  0.0456 -0.4935  0.1264
 3024TIP3    H130487   0.287   4.689   3.413  0.5790 -0.6370  0.2829
 3024TIP3    H230488   0.214   4.559   3.386  0.0998 -0.3970  0.4047
 3025TIP3   OH230489   1.510   3.713   5.686  0.8544  0.4765  0.4546
 3025TIP3    H130490   1.590   3.735   5.734  0.1517  1.9936  0.9632
 3025TIP3    H230491   1.448   3.782   5.709 -0.5281 -0.5345 -0.1452
 3026TIP3   OH230492   0.183   2.995   5.143 -0.1732  0.1715 -0.1299
 3026TIP3    H130493   0.175   2.916   5.196  1.5593  0.3799  0.4981
 3026TIP3    H230494   0.180   2.964   5.053 -0.1613 -0.5481  0.1171
 3027TIP3   OH230495   3.292   0.950   4.301  0.2528  0.1122 -0.2023
 3027TIP3    H130496   3.200   0.925   4.311  0.2104 -0.6044 -2.1335
 3027TIP3    H230497   3.327   0.949   4.390 -2.0426  2.1295  0.7952
 3028TIP3   OH230498   0.964   1.395  16.312 -0.4921  0.3011 -0.6281
 3028TIP3    H130499   0.917   1.369  16.232 -1.0879 -0.1679 -0.1331
 3028TIP3    H230500   0.914   1.354  16.383  1.1994 -1.0025 -0.1549
 3029TIP3   OH230501   6.319   2.508   5.212  0.2091  0.7698  0.1050
 3029TIP3    H130502   6.237   2.553   5.190  0.2359  1.2199  0.9124
 3029TIP3    H230503   6.305   2.476   5.301  0.0818 -1.0689 -0.5628
 3030TIP3   OH230504   2.836   5.736  17.003 -0.0913 -0.3556  0.4008
 3030TIP3    H130505   2.803   5.820  16.971 -0.1788 -0.6614 -0.3347
 3030TIP3    H230506   2.757   5.687  17.026 -0.0186 -0.0541  1.3076
 3031TIP3   OH230507   2.224   0.001  14.633 -0.3101 -0.5530  0.4331
 3031TIP3    H130508   2.227   0.017  14.539  1.0775 -1.7850  0.2372
 3031TIP3    H230509   2.149   0.050  14.664 -0.2748  0.5457 -1.1889
 3032TIP3   OH230510   1.079   0.191  12.342 -0.1201  1.3690  0.5734
 3032TIP3    H130511   1.159   0.167  12.389 -0.3680  0.8511  0.7255
 3032TIP3    H230512   1.010   0.184  12.407 -0.6941 -0.8305 -0.2491
 3033TIP3   OH230513   0.474   6.216  16.198  0.4142 -0.0649 -0.0019
 3033TIP3    H130514   0.397   6.183  16.153 -0.9984  1.1252  1.4982
 3033TIP3    H230515   0.530   6.139  16.210 -0.5746 -0.9525 -0.9776
 3034TIP3   OH230516   0.177   2.978   0.455  0.4443  0.2043 -0.0860
 3034TIP3    H130517   0.146   3.067   0.471 -1.1757 -0.4307  0.4122
 3034TIP3    H230518   0.097   2.927   0.443  1.3653 -1.1602 -0.4855
 3035TIP3   OH230519   6.717   4.092  15.720  0.0084  0.1808  0.3131
 3035TIP3    H130520   6.795   4.037  15.710  0.8153  1.4088 -0.2760
 3035TIP3    H230521   6.648   4.031  15.745  0.6777 -1.2358 -1.2202
 3036TIP3   OH230522   4.776   1.363   3.937 -0.1399  0.2287 -0.3368
 3036TIP3    H130523   4.771   1.437   3.876  0.2842  0.8646  0.3981
 3036TIP3    H230524   4.862   1.326   3.921  0.9376  1.8471  1.5349
 3037TIP3   OH230525   2.067   6.778  13.328 -0.5986  0.0839 -0.1322
 3037TIP3    H130526   2.005   6.714  13.293 -1.3531 -0.7179  2.5875
 3037TIP3    H230527   2.012   6.844  13.370  0.3228  0.4993  0.4262
 3038TIP3   OH230528   4.218   5.626  16.710  0.2293 -0.6917  0.4253
 3038TIP3    H130529   4.278   5.552  16.707 -0.6485 -1.3278 -1.9474
 3038TIP3    H230530   4.131   5.587  16.716 -0.1594  0.1602  0.4803
 3039TIP3   OH230531   4.638   6.686  14.130  0.8719 -0.0647 -0.5239
 3039TIP3    H130532   4.593   6.691  14.046  2.3108  0.7555 -1.2660
 3039TIP3    H230533   4.568   6.687  14.195 -0.1709  1.6557 -1.6341
 3040TIP3   OH230534   4.522   4.198   5.474 -0.0219  0.2242  0.5303
 3040TIP3    H130535   4.582   4.261   5.434 -1.7096  1.5004 -0.0534
 3040TIP3    H230536   4.475   4.160   5.400 -1.6272  1.0100  1.1279
 3041TIP3   OH230537   6.579   4.335  12.895 -0.1869  0.0999  0.8601
 3041TIP3    H130538   6.626   4.368  12.818 -1.2533  0.6344  0.4259
 3041TIP3    H230539   6.488   4.360  12.879 -0.2989  0.8971  2.6636
 3042TIP3   OH230540   5.736   0.094   0.051  0.2912  0.2015 -0.6943
 3042TIP3    H130541   5.702   0.141  -0.025 -2.1597 -1.2251 -0.5437
 3042TIP3    H230542   5.682   0.015   0.056  2.4353 -1.2132  0.7420
 3043TIP3   OH230543   4.320   1.698   5.880 -0.0796 -0.1055  0.5924
 3043TIP3    H130544   4.334   1.679   5.973 -0.6124 -1.6171  0.3722
 3043TIP3    H230545   4.271   1.623   5.847  2.6791 -1.0185 -1.6146
 3044TIP3   OH230546   2.339   6.150   2.424 -0.2882 -0.0882 -0.2259
 3044TIP3    H130547   2.367   6.067   2.384  0.0538 -0.1134  0.0528
 3044TIP3    H230548   2.419   6.203   2.426  0.0069 -0.5424  1.5351
 3045TIP3   OH230549   2.379   1.787  12.790  0.2871 -0.0820 -0.6058
 3045TIP3    H130550   2.424   1.800  12.707  0.7335  1.5570 -0.1143
 3045TIP3    H230551   2.328   1.867  12.803  0.7017 -0.0644  0.9887
 3046TIP3   OH230552   3.459   3.920  15.539 -0.7754  0.3602  0.1120
 3046TIP3    H130553   3.365   3.926  15.520 -0.6757  0.6519 -0.3071
 3046TIP3    H230554   3.468   3.955  15.627 -0.9326  1.2492 -0.2186
 3047TIP3   OH230555   4.695   1.165  15.453 -0.2097 -0.2921 -0.1366
 3047TIP3    H130556   4.706   1.145  15.360 -0.1126 -0.9934  0.0212
 3047TIP3    H230557   4.770   1.123  15.495  0.7380  1.5531  0.0536
 3048TIP3   OH230558   0.846   3.637  10.720  0.2754  0.1394  0.6804
 3048TIP3    H130559   0.754   3.648  10.695 -0.2553  1.8290  3.1634
 3048TIP3    H230560   0.881   3.725  10.724  1.6564 -0.4170  1.0361
 3049TIP3   OH230561   6.534   0.192  11.922 -0.5403 -0.5796  1.0438
 3049TIP3    H130562   6.441   0.170  11.929 -0.9018  0.9237  1.1066
 3049TIP3    H230563   6.561   0.214  12.012 -0.0691 -1.2104  1.0623
 3050TIP3   OH230564   1.894   4.387  14.561 -0.1045 -0.4070  0.1044
 3050TIP3    H130565   1.891   4.301  14.603  2.2506 -0.1757  0.7792
 3050TIP3    H230566   1.924   4.446  14.629  0.4882  0.5583 -0.9763
 3051TIP3   OH230567   0.959   2.511  16.681  0.0768 -0.5829 -0.4115
 3051TIP3    H130568   0.921   2.545  16.762  0.4653 -1.8212  0.3198
 3051TIP3    H230569   1.039   2.562  16.668  1.1651 -1.8393  1.1953
 3052TIP3   OH230570   1.062   6.316   4.003 -0.2971 -0.4317  0.5226
 3052TIP3    H130571   0.979   6.346   4.040 -0.4219 -0.7907  0.5337
 3052TIP3    H230572   1.122   6.390   4.015 -0.3816 -0.4827  1.2850
 3053TIP3   OH230573   4.034   3.613   3.331 -0.6070 -0.5729 -0.2493
 3053TIP3    H130574   4.011   3.692   3.380  0.5397  0.1148 -0.7909
 3053TIP3    H230575   4.010   3.541   3.389  1.1076  0.2219  1.5129
 3054TIP3   OH230576   1.415   0.017   1.147  0.0551  0.4523 -0.4557
 3054TIP3    H130577   1.370   0.093   1.184  2.1638  1.7004 -0.4041
 3054TIP3    H230578   1.481  -0.006   1.212  0.6906 -0.2275 -1.3336
 3055TIP3   OH230579   6.300   1.801  12.096  0.2435  0.2785 -0.4191
 3055TIP3    H130580   6.312   1.896  12.094 -0.4682  0.4120  0.8931
 3055TIP3    H230581   6.389   1.765  12.092  0.4388  0.9597 -2.3224
 3056TIP3   OH230582   1.333   3.234  12.975  0.3082  0.1093 -0.0075
 3056TIP3    H130583   1.304   3.277  12.894  1.0376  1.4263  0.4291
 3056TIP3    H230584   1.411   3.185  12.949  1.6597  2.0423  0.2700
 3057TIP3   OH230585   6.227   4.313   1.334 -0.0218 -0.4914 -0.2771
 3057TIP3    H130586   6.263   4.284   1.417 -1.6161  0.0484  0.6305
 3057TIP3    H230587   6.245   4.406   1.330 -0.6571 -0.3557 -0.1413
 3058TIP3   OH230588   2.712   0.154   6.075  0.5814 -0.3202  0.3826
 3058TIP3    H130589   2.774   0.141   6.003 -0.7828  0.6222 -1.0077
 3058TIP3    H230590   2.691   0.066   6.105  2.6311 -0.6590  0.9477
 3059TIP3   OH230591   4.640   1.779  15.308  0.4849  0.3921  0.2791
 3059TIP3    H130592   4.689   1.786  15.390 -0.7273 -2.4358  1.3187
 3059TIP3    H230593   4.551   1.754  15.335  0.2300 -1.1749 -1.8940
 3060TIP3   OH230594   2.432   1.667   4.309 -0.5267  0.3940 -0.0921
 3060TIP3    H130595   2.382   1.743   4.279  0.6844  1.7204  1.1854
 3060TIP3    H230596   2.453   1.686   4.400  1.3331 -0.6538 -0.2762
 3061TIP3   OH230597   1.408   3.730  17.186  0.3269 -0.7845  0.4208
 3061TIP3    H130598   1.429   3.731  17.093 -0.5286 -0.2113  0.2233
 3061TIP3    H230599   1.442   3.813  17.219 -1.9450  0.3358  0.0167
 3062TIP3   OH230600   2.205   4.566  14.861 -0.1245 -0.5256 -0.3011
 3062TIP3    H130601   2.118   4.586  14.826  0.7830  4.8854  0.1712
 3062TIP3    H230602   2.194   4.570  14.956  0.2823 -1.7289 -0.1927
 3063TIP3   OH230603   1.607   0.718   1.309  0.0229 -0.1835  0.1568
 3063TIP3    H130604   1.540   0.742   1.245 -1.4905 -2.6045  0.7598
 3063TIP3    H230605   1.642   0.635   1.276  1.3128  0.0483  0.9243
 3064TIP3   OH230606   3.144   3.246   2.721  0.1035  0.1630 -0.3147
 3064TIP3    H130607   3.100   3.323   2.759  0.7094  0.7671 -0.8259
 3064TIP3    H230608   3.236   3.271   2.717  0.6813 -1.4788  1.7258
 3065TIP3   OH230609   0.155   5.344  12.697 -0.1147 -0.4081  0.0720
 3065TIP3    H130610   0.164   5.306  12.610  0.6060 -0.7591  0.2962
 3065TIP3    H230611   0.103   5.423  12.683 -2.4293 -1.9353 -0.2563
 3066TIP3   OH230612   4.958   4.475   0.848  0.0747 -0.0959  0.0945
 3066TIP3    H130613   4.995   4.387   0.849  0.1218 -0.1400 -2.4492
 3066TIP3    H230614   4.866   4.463   0.870  0.2110 -0.7153  0.3292
 3067TIP3   OH230615   1.547   4.562   5.990  0.5990  0.5188  0.5773
 3067TIP3    H130616   1.459   4.539   6.019 -0.0825  0.4078 -1.5221
 3067TIP3    H230617   1.572   4.490   5.932  2.5273 -0.0208  2.0323
 3068TIP3   OH230618   0.107   6.501  12.873 -0.2246 -0.2006  0.1600
 3068TIP3    H130619   0.160   6.424  12.893  1.4560  0.9535  0.2127
 3068TIP3    H230620   0.164   6.557  12.821 -1.5101  0.9151 -0.0780
 3069TIP3   OH230621   0.712   1.551   5.884  0.4906 -0.2527 -0.2490
 3069TIP3    H130622   0.623   1.570   5.913  0.4658  1.3759 -1.3274
 3069TIP3    H230623   0.715   1.584   5.794  1.7945 -1.4788 -0.6732
 3070TIP3   OH230624   1.531   4.048   0.954 -0.2544 -0.6131 -0.1935
 3070TIP3    H130625   1.558   3.976   0.898 -1.3581 -1.0941 -0.1055
 3070TIP3    H230626   1.438   4.061   0.935 -1.2940 -2.4031  3.2571
 3071TIP3   OH230627   6.260   1.179   0.643  0.3421  0.4393  0.2460
 3071TIP3    H130628   6.203   1.181   0.720 -0.3734  0.3704 -0.2754
 3071TIP3    H230629   6.276   1.271   0.622 -0.9908  0.4844 -0.6328
 3072TIP3   OH230630   5.434   2.113  13.525  0.4735  1.2605  0.4722
 3072TIP3    H130631   5.508   2.054  13.538  0.4149  1.3556  1.2405
 3072TIP3    H230632   5.373   2.092  13.596 -0.0411  1.4873  0.1068
 3073TIP3   OH230633   4.765   1.423  14.719  0.0564  0.2949 -0.3384
 3073TIP3    H130634   4.837   1.485  14.733  0.9342 -0.5467 -1.0174
 3073TIP3    H230635   4.809   1.338  14.709 -1.0736 -0.2967 -0.2656
 3074TIP3   OH230636   0.208   3.650   0.481  0.2540 -0.6301  0.0951
 3074TIP3    H130637   0.290   3.681   0.443 -0.1134 -0.4700 -0.5683
 3074TIP3    H230638   0.228   3.561   0.511  0.3030 -1.1228 -1.3327
 3075TIP3   OH230639   1.994   6.022  11.767 -0.6216  0.1154 -0.0546
 3075TIP3    H130640   1.932   5.950  11.757  0.5445 -0.6164 -2.1415
 3075TIP3    H230641   1.957   6.093  11.714 -0.1420 -0.0093 -0.5524
 3076TIP3   OH230642   2.538   5.847   0.686  0.2279  0.5472  0.2823
 3076TIP3    H130643   2.514   5.759   0.658 -0.5955  0.2688  1.7786
 3076TIP3    H230644   2.455   5.892   0.699  0.6381  1.4524 -0.1669
 3077TIP3   OH230645   0.469   5.482   1.840 -1.0835 -0.1034  0.2910
 3077TIP3    H130646   0.504   5.524   1.762 -2.6299 -0.4967 -0.6211
 3077TIP3    H230647   0.535   5.416   1.864 -0.0596  0.8052  0.0182
 3078TIP3   OH230648   5.170   1.597  11.347 -1.0251  0.2943 -0.4422
 3078TIP3    H130649   5.165   1.606  11.443 -0.3855 -1.6819 -0.2084
 3078TIP3    H230650   5.232   1.665  11.320 -0.9586  0.6519  0.5972
 3079TIP3   OH230651   3.198   2.323   4.822 -0.4546  0.1716 -0.4840
 3079TIP3    H130652   3.157   2.273   4.751 -1.5771  0.7362 -0.2444
 3079TIP3    H230653   3.172   2.279   4.902  0.0130  0.1087 -0.3624
 3080TIP3   OH230654   5.311   5.577   3.569  0.1416  0.2546  0.4474
 3080TIP3    H130655   5.257   5.566   3.647 -1.5406 -2.2147 -0.9956
 3080TIP3    H230656   5.377   5.508   3.575  1.7572  1.8099  1.0391
 3081TIP3   OH230657   1.313   3.911  13.980 -0.5812 -0.6551 -0.6817
 3081TIP3    H130658   1.229   3.953  13.997 -1.5395 -2.0580 -1.8901
 3081TIP3    H230659   1.334   3.934  13.890  0.8149  0.4677 -0.1037
 3082TIP3   OH230660   5.282   1.014   0.947 -0.1991 -0.6895 -0.3289
 3082TIP3    H130661   5.368   1.003   0.907  0.0997 -0.0916  0.1421
 3082TIP3    H230662   5.287   0.962   1.028  0.6980  1.6086  1.1361
 3083TIP3   OH230663   1.554   2.248  16.500  0.0598  0.6639  0.2281
 3083TIP3    H130664   1.517   2.162  16.478  1.8457 -0.3054  0.9131
 3083TIP3    H230665   1.533   2.260  16.592  0.7124  0.4856  0.4021
 3084TIP3   OH230666   0.140   5.903   1.876 -0.8321  0.1187 -0.1940
 3084TIP3    H130667   0.061   5.881   1.825 -0.6568  1.0805 -0.8901
 3084TIP3    H230668   0.212   5.870   1.822 -0.6724  0.6724 -0.3117
 3085TIP3   OH230669   4.591   6.718   5.188 -0.1772  0.2413 -0.1045
 3085TIP3    H130670   4.660   6.774   5.224 -1.9664  1.5519  1.3901
 3085TIP3    H230671   4.606   6.632   5.227  3.0830 -0.6116 -3.0378
 3086TIP3   OH230672   5.675   2.720   1.497 -0.3440 -0.4685  0.1432
 3086TIP3    H130673   5.758   2.720   1.546  0.1751 -5.7719 -0.3975
 3086TIP3    H230674   5.692   2.775   1.421  2.8685 -1.7911 -0.1643
 3087TIP3   OH230675   0.833   5.312   1.714 -0.0231 -0.3023 -0.2526
 3087TIP3    H130676   0.921   5.302   1.749 -0.7258 -0.1509  1.6228
 3087TIP3    H230677   0.790   5.374   1.774 -0.7666  1.2712 -2.3280
 3088TIP3   OH230678   1.658   1.652   3.978  0.8799  0.5440 -0.4501
 3088TIP3    H130679   1.667   1.710   4.053  1.1596 -1.2018  0.8967
 3088TIP3    H230680   1.714   1.577   3.998 -0.7552 -0.9769 -1.3765
 3089TIP3   OH230681   2.163   1.604  11.286  0.5816 -0.1425  0.3522
 3089TIP3    H130682   2.139   1.675  11.346  1.7657 -0.9437  1.7860
 3089TIP3    H230683   2.125   1.631  11.202  3.0017  3.3794  0.2729
 3090TIP3   OH230684   6.164   0.837  11.654 -0.6617  0.4544  0.4009
 3090TIP3    H130685   6.235   0.826  11.717  0.9315 -1.0137 -1.5917
 3090TIP3    H230686   6.145   0.931  11.657  1.3585  0.8825  0.9714
 3091TIP3   OH230687   6.741   6.120  11.016  0.2037 -0.2541 -0.4994
 3091TIP3    H130688   6.822   6.121  11.069  1.2499  2.1657 -2.0644
 3091TIP3    H230689   6.768   6.081  10.933 -0.1621  0.7868 -1.1119
 3092TIP3   OH230690   2.337   0.611   2.020 -0.1124 -0.0182  0.9223
 3092TIP3    H130691   2.381   0.635   2.102  1.0658  0.0124  0.2926
 3092TIP3    H230692   2.385   0.659   1.952 -2.0449  1.1615  0.3671
 3093TIP3   OH230693   5.621   3.258  15.531 -0.0755  0.3120 -0.4542
 3093TIP3    H130694   5.554   3.225  15.472 -0.5220 -2.6127  1.5773
 3093TIP3    H230695   5.573   3.310  15.596 -0.0766  0.3420 -0.4786
 3094TIP3   OH230696   1.847   5.151  11.935  0.0339  0.0294 -0.4585
 3094TIP3    H130697   1.827   5.058  11.945 -0.3756  0.1387 -0.2624
 3094TIP3    H230698   1.832   5.169  11.842  3.1847 -0.8337 -1.1833
 3095TIP3   OH230699   3.534   2.603   4.571 -0.0643  0.0306  0.1078
 3095TIP3    H130700   3.448   2.586   4.533  1.0657 -0.8101 -2.1937
 3095TIP3    H230701   3.559   2.689   4.538 -0.2673  0.5441  1.2665
 3096TIP3   OH230702   4.152   2.492  13.796 -0.0336 -0.0013 -0.2406
 3096TIP3    H130703   4.151   2.471  13.890 -0.2704  2.0372  0.2236
 3096TIP3    H230704   4.225   2.440  13.761 -0.1052 -0.9767  1.0197
 3097TIP3   OH230705   0.590   3.528  10.885  0.3234  0.1498 -0.0738
 3097TIP3    H130706   0.574   3.434  10.887 -0.1458  0.2281 -0.0995
 3097TIP3    H230707   0.595   3.549  10.791  0.4735  0.1433 -0.0682
 3098TIP3   OH230708   0.667   2.223  14.756  0.3183  0.5789 -0.0831
 3098TIP3    H130709   0.757   2.211  14.785 -0.4224 -1.3290  1.5498
 3098TIP3    H230710   0.628   2.136  14.763 -1.3374  1.1458 -1.8927
 3099TIP3   OH230711   2.863   0.460  16.913  0.1122  0.1718 -1.0043
 3099TIP3    H130712   2.807   0.482  16.988  0.0708  0.5569 -1.1500
 3099TIP3    H230713   2.922   0.392  16.946 -0.2679 -0.0459 -0.7787
 3100TIP3   OH230714   1.767   0.472   1.455  0.6559 -0.1178  0.1360
 3100TIP3    H130715   1.696   0.411   1.475  0.0282  0.6726  0.3648
 3100TIP3    H230716   1.755   0.544   1.517  1.4934  0.1556 -0.0096
 3101TIP3   OH230717   5.266   5.047   3.980  0.2016  0.3782 -0.4166
 3101TIP3    H130718   5.327   4.988   4.024  1.6031  0.4850 -2.1345
 3101TIP3    H230719   5.230   4.995   3.908 -1.1654  0.5556  0.1275
 3102TIP3   OH230720   6.445   4.778  15.665 -0.3411  0.2918  0.3792
 3102TIP3    H130721   6.528   4.744  15.696 -0.3236  1.2551  1.4211
 3102TIP3    H230722   6.384   4.704  15.673  0.4637 -0.4869 -0.6436
 3103TIP3   OH230723   1.679   1.123   4.300 -0.3721 -0.2399  0.4300
 3103TIP3    H130724   1.751   1.154   4.244 -1.0374 -0.7925 -0.7581
 3103TIP3    H230725   1.674   1.187   4.370  1.9911 -0.7603  1.1262
 3104TIP3   OH230726   1.692   2.696   2.643  0.2159 -0.6099  0.0234
 3104TIP3    H130727   1.775   2.649   2.656  0.9633  1.6889  4.6652
 3104TIP3    H230728   1.718   2.786   2.624 -1.1819  0.3037  2.2986
 3105TIP3   OH230729   6.105   0.372  16.352  0.3931 -0.0960  0.6789
 3105TIP3    H130730   6.201   0.376  16.343  0.3963  0.1832  0.8086
 3105TIP3    H230731   6.083   0.454  16.396  0.0950 -0.1734  0.6705
 3106TIP3   OH230732   6.211   0.992  11.268 -0.0230 -0.1996  0.0628
 3106TIP3    H130733   6.143   0.955  11.325  1.4452 -0.2533  1.8299
 3106TIP3    H230734   6.206   1.086  11.283 -1.5553  0.0783 -1.9466
 3107TIP3   OH230735   5.800   3.312  11.139  0.7559 -0.2045 -0.6210
 3107TIP3    H130736   5.854   3.365  11.198  0.8565 -1.4204  0.4206
 3107TIP3    H230737   5.849   3.230  11.130 -1.8929 -2.1742  2.0495
 3108TIP3   OH230738   4.342   4.541   0.052 -0.1723 -0.2802  0.5907
 3108TIP3    H130739   4.434   4.515   0.063 -0.1310 -0.4137 -0.0507
 3108TIP3    H230740   4.318   4.580   0.136  0.3273 -0.6895  0.9270
 3109TIP3   OH230741   3.179   4.798  12.240 -0.0954 -0.1677  0.2847
 3109TIP3    H130742   3.192   4.767  12.151  0.0927  2.5692 -0.6889
 3109TIP3    H230743   3.224   4.883  12.243 -1.3973  0.4946  2.5228
 3110TIP3   OH230744   5.325   1.756  14.709 -0.3832  0.5643  0.1436
 3110TIP3    H130745   5.411   1.732  14.745 -0.0441  2.1180  0.4007
 3110TIP3    H230746   5.345   1.810  14.633 -1.1303 -1.2425 -1.3828
 3111TIP3   OH230747   2.173   4.053  10.903  0.7913  0.4706 -0.4167
 3111TIP3    H130748   2.259   4.041  10.942  0.1864 -2.3728  0.1650
 3111TIP3    H230749   2.180   4.011  10.817 -0.3653 -0.9451  0.1636
 3112TIP3   OH230750   3.440   2.113  15.563 -0.0293  0.9304  0.2052
 3112TIP3    H130751   3.429   2.031  15.516  1.0185 -0.0844  1.6909
 3112TIP3    H230752   3.370   2.114  15.628 -0.1469  1.2849  0.0763
 3113TIP3   OH230753   6.166   3.362   5.761 -0.2471  0.1477 -0.0021
 3113TIP3    H130754   6.214   3.444   5.755 -1.1581  0.5973 -1.3071
 3113TIP3    H230755   6.234   3.296   5.776  0.6436  0.9427 -0.4869
 3114TIP3   OH230756   6.594   6.115   5.801  0.5459  0.2969  0.3914
 3114TIP3    H130757   6.605   6.203   5.836  3.3517 -0.2894  1.0856
 3114TIP3    H230758   6.612   6.057   5.875  2.6977 -0.8979 -1.0392
 3115TIP3   OH230759   6.415   3.887   1.197  0.2009 -0.2205  0.2021
 3115TIP3    H130760   6.451   3.971   1.171  1.0551 -0.9895 -1.1678
 3115TIP3    H230761   6.401   3.894   1.291 -0.9723  1.9007 -0.1034
 3116TIP3   OH230762   2.623   4.975  16.696 -0.0796  0.2396  0.4906
 3116TIP3    H130763   2.625   5.068  16.720  0.5201  0.3949 -0.1407
 3116TIP3    H230764   2.621   4.976  16.601 -0.1784 -0.4034  0.4904
 3117TIP3   OH230765   2.595   0.519   5.622  0.4532 -0.0267  0.1698
 3117TIP3    H130766   2.542   0.441   5.641 -2.4289  1.3239 -1.8600
 3117TIP3    H230767   2.677   0.485   5.588 -0.0668 -2.1938  0.9981
 3118TIP3   OH230768   5.252   0.415   4.795 -0.0992  0.2221 -0.5178
 3118TIP3    H130769   5.218   0.366   4.870  1.0210  1.3820  0.7471
 3118TIP3    H230770   5.206   0.499   4.798  0.4372  0.5252 -0.7505
 3119TIP3   OH230771   2.627   5.028  12.506 -0.2512 -0.1358 -0.1272
 3119TIP3    H130772   2.716   5.063  12.500  0.0147 -0.7749  0.0674
 3119TIP3    H230773   2.616   5.007  12.599  0.6097 -3.2148 -0.6795
 3120TIP3   OH230774   2.514   6.123   6.427  0.1407  0.0360  1.1427
 3120TIP3    H130775   2.531   6.193   6.364 -0.8401 -0.5895  0.1733
 3120TIP3    H230776   2.419   6.111   6.425  0.2930 -1.2549  1.3837
 3121TIP3   OH230777   3.419   0.907  17.053  0.6971 -0.1220 -0.1026
 3121TIP3    H130778   3.416   0.920  17.148  1.1441  0.3208 -0.1462
 3121TIP3    H230779   3.355   0.970  17.018 -0.2354 -1.0046 -0.0361
 3122TIP3   OH230780   5.146   2.710   3.145 -0.9079  0.1910 -0.2118
 3122TIP3    H130781   5.238   2.714   3.171 -0.5090 -0.8980 -1.4157
 3122TIP3    H230782   5.100   2.755   3.216  0.6654  1.9214 -0.2560
 3123TIP3   OH230783   3.886   4.252  14.486  0.0949 -0.3567 -0.0249
 3123TIP3    H130784   3.946   4.319  14.452  0.6974 -0.1701  1.3757
 3123TIP3    H230785   3.829   4.299  14.546  0.8937 -1.1955  1.4095
 3124TIP3   OH230786   5.856   6.127   4.262  0.2164 -0.2328 -0.1777
 3124TIP3    H130787   5.901   6.125   4.347 -0.8484 -0.5488  0.3847
 3124TIP3    H230788   5.774   6.080   4.277  0.3041 -0.8606 -1.5534
 3125TIP3   OH230789   3.051   5.052  13.496 -0.0772  0.7106  0.4635
 3125TIP3    H130790   3.068   5.146  13.503  0.4441  0.7187 -0.7959
 3125TIP3    H230791   2.964   5.040  13.534  0.3003  1.5391  1.6117
 3126TIP3   OH230792   4.920   5.016   4.229  0.4588 -0.1145 -0.9593
 3126TIP3    H130793   4.999   4.969   4.202 -0.1369 -0.9248 -1.3409
 3126TIP3    H230794   4.882   5.047   4.146  0.3265  0.1859 -0.7861
 3127TIP3   OH230795   1.332   3.704   1.647 -0.1111 -0.0958  0.2398
 3127TIP3    H130796   1.330   3.613   1.677 -0.4548 -0.6251 -1.3582
 3127TIP3    H230797   1.257   3.712   1.588  0.8569  0.7727 -0.8975
 3128TIP3   OH230798   3.651   0.491  17.229 -0.3213  0.1683 -0.3413
 3128TIP3    H130799   3.568   0.454  17.197 -0.0919 -1.0714  0.4895
 3128TIP3    H230800   3.703   0.415  17.254  0.9220  0.9702 -0.4777
 3129TIP3   OH230801   6.724   2.993   3.693 -0.3305  0.0081  0.0356
 3129TIP3    H130802   6.664   2.960   3.761  0.1685 -0.8744  0.0515
 3129TIP3    H230803   6.715   2.931   3.621  0.2948  0.0768 -0.1046
 3130TIP3   OH230804   4.910   3.282   3.595 -0.6144  0.6645 -0.2663
 3130TIP3    H130805   4.977   3.345   3.570 -2.1450  1.9880 -1.0778
 3130TIP3    H230806   4.924   3.207   3.537  0.5792  0.6319  0.0431
 3131TIP3   OH230807   5.863   2.280  11.809  0.3061 -0.7816 -0.0954
 3131TIP3    H130808   5.857   2.194  11.851 -0.5266 -0.7532 -0.1437
 3131TIP3    H230809   5.928   2.328  11.861 -0.9327 -0.6389  1.3786
 3132TIP3   OH230810   3.870   0.575  11.064  0.2497  0.1367 -0.1788
 3132TIP3    H130811   3.813   0.609  10.995 -0.0373  1.6662  0.7867
 3132TIP3    H230812   3.875   0.481  11.046 -1.9291  0.0879 -0.7583
 3133TIP3   OH230813   6.648   5.242  16.430  0.9974  0.3323  0.2141
 3133TIP3    H130814   6.694   5.292  16.498  0.7778  0.4205  0.3005
 3133TIP3    H230815   6.592   5.181  16.479  0.5450  0.6632  0.1180
 3134TIP3   OH230816   2.808   1.618  11.384  0.0990 -0.2711  0.1948
 3134TIP3    H130817   2.752   1.609  11.460  0.7790 -0.6331  0.6643
 3134TIP3    H230818   2.792   1.707  11.352  2.2430  1.0992  2.7321
 3135TIP3   OH230819   4.094   2.211  11.332  0.0416 -0.0703  0.6221
 3135TIP3    H130820   4.153   2.280  11.361  0.5001  0.2513 -1.0079
 3135TIP3    H230821   4.118   2.195  11.241 -1.9414 -0.4154  0.1233
 3136TIP3   OH230822   0.044   2.592   3.097 -0.1004 -0.0370  0.1466
 3136TIP3    H130823   0.022   2.602   3.190  0.4838  0.7047  0.2112
 3136TIP3    H230824   0.084   2.505   3.091  0.1524  0.0413  0.6539
 3137TIP3   OH230825   3.147   6.187   0.906 -0.1924 -0.0162  0.6754
 3137TIP3    H130826   3.202   6.263   0.886 -0.9289 -0.0503 -1.6268
 3137TIP3    H230827   3.205   6.112   0.895 -0.0041  0.0980  0.8886
 3138TIP3   OH230828   4.661   2.813   1.428 -0.8569  0.3143 -0.2532
 3138TIP3    H130829   4.747   2.843   1.458 -0.1846 -1.5016 -0.3096
 3138TIP3    H230830   4.608   2.892   1.424  0.2291  1.1781  1.7537
 3139TIP3   OH230831   2.051   6.215   3.885  0.3365  0.1834  0.1769
 3139TIP3    H130832   2.002   6.136   3.863  1.0239 -0.4266  0.8043
 3139TIP3    H230833   2.038   6.273   3.810 -1.2135 -0.0205  0.2774
 3140TIP3   OH230834   4.184   4.606   4.945  0.4790 -0.3741 -0.0356
 3140TIP3    H130835   4.253   4.571   4.890  1.0390  0.8567 -0.1365
 3140TIP3    H230836   4.228   4.673   4.999 -1.1883  2.7229 -2.3257
 3141TIP3   OH230837   6.137   2.268  11.396  0.3709  0.6159  0.8006
 3141TIP3    H130838   6.087   2.347  11.378  1.5283  1.5160  1.4243
 3141TIP3    H230839   6.144   2.223  11.312 -2.2941 -0.0323  0.8913
 3142TIP3   OH230840   6.189   0.182   4.203  0.3412  0.2695 -0.3620
 3142TIP3    H130841   6.114   0.132   4.233  0.7069 -0.4022 -0.5557
 3142TIP3    H230842   6.214   0.237   4.278  1.0611 -1.1692  0.4641
 3143TIP3   OH230843   2.064   4.927  14.598 -0.0363  0.2201  0.8517
 3143TIP3    H130844   2.035   4.849  14.550 -0.0896  0.3639  0.6485
 3143TIP3    H230845   2.157   4.934  14.576 -0.4627  1.3351 -0.7098
 3144TIP3   OH230846   5.335   0.900  11.545 -0.1311  0.0973 -0.1507
 3144TIP3    H130847   5.345   0.976  11.603  1.6742 -0.4192  0.2360
 3144TIP3    H230848   5.240   0.886  11.541 -0.3513  0.7933  1.8566
 3145TIP3   OH230849   0.786   2.458  13.219 -0.4433 -0.0262 -0.1863
 3145TIP3    H130850   0.808   2.441  13.311  0.9590  3.0546  0.1295
 3145TIP3    H230851   0.691   2.453  13.216 -0.4401 -1.3039  1.1684
 3146TIP3   OH230852   1.498   6.032   5.760 -0.5612 -0.0726  0.6177
 3146TIP3    H130853   1.432   6.059   5.696  1.1358 -1.0422 -1.6118
 3146TIP3    H230854   1.524   6.114   5.804 -2.4337  0.4642  0.7589
 3147TIP3   OH230855   4.029   1.402   3.905 -0.0827 -0.0306 -0.0931
 3147TIP3    H130856   4.103   1.342   3.896 -1.9783 -2.4151  0.0726
 3147TIP3    H230857   3.952   1.347   3.905 -1.8558  2.3479  0.8176
 3148TIP3   OH230858   3.657   1.689  13.647  0.0658 -0.5881  0.2675
 3148TIP3    H130859   3.576   1.736  13.628 -0.1647 -0.0114  2.5776
 3148TIP3    H230860   3.628   1.603  13.677  0.3838 -0.9379 -0.4013
 3149TIP3   OH230861   0.905   5.126  15.417 -0.3407 -0.0098  0.0034
 3149TIP3    H130862   0.809   5.127  15.418 -0.3862 -2.3310  0.2975
 3149TIP3    H230863   0.929   5.038  15.445  1.8752  0.2402 -0.9635
 3150TIP3   OH230864   4.017   3.471   5.790 -0.0888  0.3188  0.5094
 3150TIP3    H130865   3.992   3.385   5.755  0.7112  0.1874  0.2539
 3150TIP3    H230866   3.961   3.533   5.745 -0.3013 -0.0223  0.3036
 3151TIP3   OH230867   5.075   0.442  10.882  0.0573  0.6726 -0.3686
 3151TIP3    H130868   4.989   0.402  10.896 -0.2137  1.6179  0.6728
 3151TIP3    H230869   5.072   0.524  10.931  1.6270  0.6168 -0.1563
 3152TIP3   OH230870   5.881   3.108  14.229  0.4113  0.1759 -1.0751
 3152TIP3    H130871   5.974   3.120  14.213  0.3921  1.0040 -0.6032
 3152TIP3    H230872   5.845   3.197  14.233 -0.4300 -0.1379 -1.4666
 3153TIP3   OH230873   0.252   4.482  12.277 -0.5546  0.5453 -0.1611
 3153TIP3    H130874   0.344   4.487  12.251  0.5004  1.1236  3.4836
 3153TIP3    H230875   0.233   4.388  12.279  1.2068  0.1964  3.0346
 3154TIP3   OH230876   6.450   6.197   5.370 -0.1486 -0.2446 -0.2197
 3154TIP3    H130877   6.487   6.281   5.343 -0.0917  0.5342  2.1675
 3154TIP3    H230878   6.524   6.149   5.407 -0.1441 -1.4607 -1.7309
 3155TIP3   OH230879   6.468   1.250   4.112  0.0948  0.2583 -0.3224
 3155TIP3    H130880   6.557   1.271   4.139  0.9255 -3.4703  0.0589
 3155TIP3    H230881   6.461   1.285   4.023  2.2531 -0.1824 -0.6976
 3156TIP3   OH230882   4.778   0.999   5.036  0.7119 -0.1458 -0.5900
 3156TIP3    H130883   4.731   0.916   5.046  1.1768 -0.0511  2.8430
 3156TIP3    H230884   4.710   1.064   5.022  0.1233 -0.6776 -0.2233
 3157TIP3   OH230885   3.681   1.008  14.789 -0.3324 -0.4338  0.6147
 3157TIP3    H130886   3.660   1.059  14.712 -1.9857 -2.0687 -0.0625
 3157TIP3    H230887   3.609   1.025  14.850  0.2110 -0.2869  1.2238
 3158TIP3   OH230888   0.836   5.485   4.778  0.1130 -0.3263 -0.0886
 3158TIP3    H130889   0.755   5.474   4.728  0.5320 -0.4564 -0.7424
 3158TIP3    H230890   0.857   5.578   4.768  0.7192 -0.5506 -0.9708
 3159TIP3   OH230891   0.827   1.691  12.971  0.2544 -0.2370 -0.1663
 3159TIP3    H130892   0.835   1.615  13.028  0.9842 -0.1508 -0.1506
 3159TIP3    H230893   0.891   1.753  13.005  0.1847  0.0955 -0.6360
 3160TIP3   OH230894   1.504   2.752  14.529 -0.0389 -0.1284 -0.2156
 3160TIP3    H130895   1.436   2.690  14.554 -1.1031 -0.6172 -4.0671
 3160TIP3    H230896   1.570   2.698  14.485  0.8652  0.9164 -0.1577
 3161TIP3   OH230897   2.290   6.354   0.399  0.5055 -0.7364  0.0874
 3161TIP3    H130898   2.240   6.376   0.477  0.0480  3.0137 -1.1963
 3161TIP3    H230899   2.225   6.347   0.329  1.2818 -0.2921 -0.6974
 3162TIP3   OH230900   6.696   6.130   0.912 -0.4099 -0.0816 -0.1144
 3162TIP3    H130901   6.789   6.132   0.890 -0.8120  0.5170 -1.8383
 3162TIP3    H230902   6.651   6.133   0.828 -1.9979 -0.2274  0.7035
 3163TIP3   OH230903   4.351   1.268   4.624  0.2980  0.6140  0.2146
 3163TIP3    H130904   4.371   1.360   4.608  2.8292  0.3089  1.4418
 3163TIP3    H230905   4.275   1.270   4.682 -0.2499  1.9152 -0.5380
 3164TIP3   OH230906   4.668   0.994  12.520 -0.8200  0.1285 -0.1520
 3164TIP3    H130907   4.598   0.952  12.470 -0.2403 -0.6059 -0.3515
 3164TIP3    H230908   4.735   0.927  12.529 -1.5501 -0.2736  2.9361
 3165TIP3   OH230909   6.096   4.963   6.195 -0.8325 -0.3447  0.8829
 3165TIP3    H130910   6.188   4.987   6.205  0.1806 -2.4184 -2.4158
 3165TIP3    H230911   6.050   5.046   6.184  0.7517  0.6880  1.9055
 3166TIP3   OH230912   5.546   4.252   2.167  0.0762  0.5266 -0.0113
 3166TIP3    H130913   5.576   4.307   2.240 -0.3224  0.0796  0.5031
 3166TIP3    H230914   5.622   4.201   2.142  0.1257  0.4416  0.3159
 3167TIP3   OH230915   1.552   1.535   2.543  0.1342 -0.3771  0.1680
 3167TIP3    H130916   1.526   1.483   2.467  1.5459 -0.8596  0.0196
 3167TIP3    H230917   1.647   1.545   2.536 -0.2154  3.4916 -0.6309
 3168TIP3   OH230918   5.322   5.177  14.925 -0.3031 -0.6395 -0.1817
 3168TIP3    H130919   5.357   5.093  14.953  0.0662 -0.4344 -0.0239
 3168TIP3    H230920   5.227   5.165  14.926 -0.2185 -1.6251 -1.9237
 3169TIP3   OH230921   5.720   2.601  11.898  0.4609  0.0252  0.2847
 3169TIP3    H130922   5.687   2.549  11.972 -0.5248 -0.3202 -0.3867
 3169TIP3    H230923   5.660   2.582  11.827  1.9498 -0.3807 -0.8923
 3170TIP3   OH230924   0.758   3.120   1.275 -0.3093  0.7390  0.2385
 3170TIP3    H130925   0.765   3.046   1.334 -0.7056 -0.7743 -1.5646
 3170TIP3    H230926   0.665   3.142   1.275 -0.3551  0.5495 -0.0377
 3171TIP3   OH230927   3.342   6.744   1.326 -0.4437  0.4773  0.0521
 3171TIP3    H130928   3.399   6.811   1.288  0.3215 -0.3983 -0.3493
 3171TIP3    H230929   3.340   6.674   1.261 -0.7241 -0.1705  0.7482
 3172TIP3   OH230930   6.684   4.631  11.942  0.2577 -0.6214  0.0847
 3172TIP3    H130931   6.770   4.608  11.906  0.0962 -0.0172 -0.7267
 3172TIP3    H230932   6.702   4.702  12.004  0.3639 -0.5820  0.0088
 3173TIP3   OH230933   1.495   3.328   6.108  0.6342 -0.3639 -0.1036
 3173TIP3    H130934   1.562   3.289   6.165 -0.0380  0.4763  1.2901
 3173TIP3    H230935   1.543   3.360   6.032  1.5250 -1.6737 -0.1047
 3174TIP3   OH230936   2.301   0.810  10.627 -0.5083 -0.2975 -0.0945
 3174TIP3    H130937   2.337   0.880  10.573 -0.7050  1.3092  1.8040
 3174TIP3    H230938   2.369   0.742  10.626  0.3698  0.5749 -0.6690
 3175TIP3   OH230939   2.885   2.778   1.031 -0.1283 -0.1343 -0.3410
 3175TIP3    H130940   2.812   2.835   1.057  1.0926  1.4494 -0.3434
 3175TIP3    H230941   2.899   2.722   1.107 -0.7308  0.1925  0.0166
 3176TIP3   OH230942   3.842   1.928   2.055 -0.4255  0.6060 -0.6357
 3176TIP3    H130943   3.808   1.951   2.141  0.5290 -0.8388  0.1431
 3176TIP3    H230944   3.779   1.866   2.020  0.3961 -0.6024  0.0083
 3177TIP3   OH230945   5.990   1.710  13.201 -1.0250 -0.2312 -0.0034
 3177TIP3    H130946   5.970   1.692  13.109  1.3251  0.3332 -0.6420
 3177TIP3    H230947   5.994   1.805  13.207 -0.4852 -0.2824  0.5332
 3178TIP3   OH230948   4.095   1.263   4.761 -0.3538 -0.4366  0.1046
 3178TIP3    H130949   4.096   1.169   4.742  0.4998 -0.2540 -0.7658
 3178TIP3    H230950   4.060   1.269   4.850  0.1106 -1.6206  0.3756
 3179TIP3   OH230951   6.346   3.009  12.243 -0.2601  0.0463  0.3309
 3179TIP3    H130952   6.258   3.004  12.206 -0.5271 -1.3020  1.1202
 3179TIP3    H230953   6.405   2.993  12.170 -0.7735 -2.3416  0.3920
 3180TIP3   OH230954   0.516   2.112  12.254 -0.5459 -0.1648 -0.0514
 3180TIP3    H130955   0.529   2.194  12.301  1.5204  0.2253 -1.2052
 3180TIP3    H230956   0.522   2.044  12.321 -1.7245  0.5803  0.8296
 3181TIP3   OH230957   0.444   2.449  16.647 -0.2026  0.5558  0.2207
 3181TIP3    H130958   0.386   2.484  16.579  0.9822  0.5134 -0.8367
 3181TIP3    H230959   0.489   2.526  16.682 -0.7187  0.5624  0.8574
 3182TIP3   OH230960   2.561   2.861  11.918  0.0131  0.4121 -0.1203
 3182TIP3    H130961   2.637   2.918  11.927 -0.7958  1.4037  0.4503
 3182TIP3    H230962   2.597   2.772  11.927  0.9288  0.9119  1.2913
 3183TIP3   OH230963   6.277   3.362  15.219  0.0494  0.0010 -0.0524
 3183TIP3    H130964   6.201   3.333  15.269 -0.4282  1.5044  0.0982
 3183TIP3    H230965   6.265   3.323  15.132 -0.6443 -0.1574  0.1117
 3184TIP3   OH230966   2.958   2.805   0.302 -0.9086 -0.2778  0.1242
 3184TIP3    H130967   2.986   2.888   0.265  0.5046 -0.5327  0.5949
 3184TIP3    H230968   2.954   2.821   0.397  0.9168 -1.1784  0.3694
 3185TIP3   OH230969   3.273   3.333   2.034 -0.5574 -0.2462 -0.4407
 3185TIP3    H130970   3.260   3.249   1.989  0.4600 -0.0832 -1.0659
 3185TIP3    H230971   3.356   3.322   2.081 -1.6856 -0.4634  1.5446
 3186TIP3   OH230972   6.564   3.533  15.085 -0.1859 -0.4165  0.4725
 3186TIP3    H130973   6.486   3.535  15.141  1.2045 -0.8958  2.4871
 3186TIP3    H230974   6.531   3.554  14.998 -2.6337 -0.9707  1.2127
 3187TIP3   OH230975   3.973   2.618   0.241  0.3246  0.2205  0.6796
 3187TIP3    H130976   4.052   2.634   0.189 -0.0386 -1.8403 -0.5728
 3187TIP3    H230977   3.927   2.549   0.193 -2.4215  1.6276  1.1926
 3188TIP3   OH230978   0.532   4.063   2.319 -0.7535 -0.2446 -0.4065
 3188TIP3    H130979   0.534   4.007   2.396 -2.9769 -0.7242 -0.6709
 3188TIP3    H230980   0.577   4.144   2.346 -0.3609 -0.9124  0.9590
 3189TIP3   OH230981   1.890   4.942  15.803 -0.6979  0.2794  0.6137
 3189TIP3    H130982   1.840   4.934  15.884 -0.6965  2.2436  0.8473
 3189TIP3    H230983   1.847   5.014  15.756 -1.1078 -1.2377 -1.4429
 3190TIP3   OH230984   0.592   3.746   6.216  0.6529 -0.1191  0.1868
 3190TIP3    H130985   0.599   3.830   6.170 -0.4535 -0.4121 -0.5466
 3190TIP3    H230986   0.500   3.720   6.204 -0.1610  0.6467  4.0846
 3191TIP3   OH230987   1.552   2.161   0.460  0.4297  0.4302 -0.3280
 3191TIP3    H130988   1.589   2.230   0.404  0.4722 -0.1506 -1.0197
 3191TIP3    H230989   1.499   2.108   0.402 -1.8879  1.5012  0.7472
 3192TIP3   OH230990   1.989   3.483   2.691 -1.0422  0.3637 -0.4227
 3192TIP3    H130991   2.024   3.559   2.738 -2.6589 -1.2702  3.6878
 3192TIP3    H230992   1.951   3.428   2.760 -1.2338 -3.4825 -3.4487
 3193TIP3   OH230993   4.211   5.707  14.945 -0.1043  0.1885 -0.2561
 3193TIP3    H130994   4.174   5.789  14.911 -0.3968 -0.3893 -1.3568
 3193TIP3    H230995   4.145   5.641  14.925  1.0610 -0.6808 -1.2747
 3194TIP3   OH230996   3.739   5.629  13.182  0.0205  0.4310 -0.5276
 3194TIP3    H130997   3.823   5.673  13.194 -0.1298  0.6540 -0.2860
 3194TIP3    H230998   3.721   5.639  13.088 -0.1000  1.0522 -0.4426
 3195TIP3   OH230999   3.636   1.194  13.351  0.8766 -0.2890  0.0286
 3195TIP3    H131000   3.650   1.192  13.446 -1.3965  0.8718  0.4087
 3195TIP3    H231001   3.722   1.217  13.315  1.2924  1.2784  1.9523
 3196TIP3   OH231002   0.490   1.664  11.365  0.2814 -0.3383  0.2656
 3196TIP3    H131003   0.455   1.719  11.434  0.6069 -1.5144  1.3859
 3196TIP3    H231004   0.470   1.711  11.284 -0.6506  0.7442  1.1147
 3197TIP3   OH231005   1.928   2.968   5.003 -0.1792  0.0845 -0.0862
 3197TIP3    H131006   1.933   2.978   4.908  0.0922  1.0265  0.0230
 3197TIP3    H231007   2.007   2.921   5.027  1.0973  2.1808 -0.0333
 3198TIP3   OH231008   3.317   1.294  13.901  0.4674 -0.3193  0.2139
 3198TIP3    H131009   3.275   1.375  13.930 -0.5692 -0.8947  0.3491
 3198TIP3    H231010   3.406   1.300  13.934  0.3181  0.6511  0.4467
 3199TIP3   OH231011   1.503   6.325  11.801 -0.3657  0.1361  0.0684
 3199TIP3    H131012   1.597   6.329  11.820 -0.3042 -0.1850 -0.1789
 3199TIP3    H231013   1.475   6.239  11.833 -0.6402  0.3530  0.4245
 3200TIP3   OH231014   0.718   1.365   4.886  0.2428  0.1669 -0.6910
 3200TIP3    H131015   0.653   1.301   4.914  0.7016 -1.1028 -2.4302
 3200TIP3    H231016   0.675   1.450   4.894 -1.3979 -0.6080 -1.1814
 3201TIP3   OH231017   0.502   1.454  13.806  0.2021  0.6289 -0.1913
 3201TIP3    H131018   0.446   1.427  13.880  0.7734 -1.0155 -0.3522
 3201TIP3    H231019   0.448   1.439  13.729  0.2211  0.7579 -0.2297
 3202TIP3   OH231020   5.654   3.695   3.112 -0.2548  0.2514 -0.0930
 3202TIP3    H131021   5.641   3.601   3.110  0.0869  0.0868  2.8864
 3202TIP3    H231022   5.669   3.720   3.021 -0.8649 -2.4753 -0.9705
 3203TIP3   OH231023   1.632   3.005   0.683 -0.3259  0.0112 -0.2889
 3203TIP3    H131024   1.629   3.060   0.605 -0.4749 -0.7936 -0.8555
 3203TIP3    H231025   1.542   2.973   0.693 -1.3015  3.2804  2.5341
 3204TIP3   OH231026   6.479   4.722  14.761 -0.1945  0.3503 -0.3097
 3204TIP3    H131027   6.431   4.715  14.843 -1.0239 -0.0460 -0.8156
 3204TIP3    H231028   6.509   4.813  14.759 -0.6468  0.5180  0.1762
 3205TIP3   OH231029   3.333   5.522  11.613 -0.0226  0.4577 -0.1425
 3205TIP3    H131030   3.384   5.600  11.593  1.0108  0.2828  1.7353
 3205TIP3    H231031   3.389   5.471  11.671 -1.4499 -0.7797  0.1734
 3206TIP3   OH231032   0.098   2.813  14.320 -0.4945  0.1168  0.9146
 3206TIP3    H131033   0.163   2.802  14.390 -0.2035 -1.3070  0.4382
 3206TIP3    H231034   0.051   2.893  14.343 -0.2155 -0.1887  2.6087
 3207TIP3   OH231035   3.831   6.639   3.798  0.1433  1.1340  0.3226
 3207TIP3    H131036   3.762   6.588   3.756  1.5033 -0.0884 -0.4851
 3207TIP3    H231037   3.875   6.578   3.856  0.3707  1.9749  1.0449
 3208TIP3   OH231038   4.076   5.219  13.046  0.2370  0.2306  0.5009
 3208TIP3    H131039   4.150   5.159  13.051 -0.1219 -0.2626  0.0078
 3208TIP3    H231040   4.059   5.227  12.952  1.0446  2.0530  0.4815
 3209TIP3   OH231041   1.370   1.980   0.325 -0.2402 -0.4458  0.6015
 3209TIP3    H131042   1.281   1.953   0.302 -0.5454 -1.1332  2.5156
 3209TIP3    H231043   1.413   1.997   0.241 -2.8861  2.3053 -0.2606
 3210TIP3   OH231044   1.921   1.653  15.177  0.0420 -0.1725 -0.0170
 3210TIP3    H131045   1.902   1.574  15.229 -2.7870 -0.1413 -0.9149
 3210TIP3    H231046   1.982   1.703  15.231 -1.0745 -1.2054  2.2889
 3211TIP3   OH231047   5.089   4.112  16.474  0.2836  0.0637  0.5763
 3211TIP3    H131048   5.026   4.168  16.428  3.6483  0.7040 -3.4969
 3211TIP3    H231049   5.133   4.170  16.536 -1.4229  0.1179  1.7870
 3212TIP3   OH231050   5.102   4.473  14.049 -0.0708 -0.0843  0.0173
 3212TIP3    H131051   5.053   4.480  14.131 -1.0605  0.2657 -0.5912
 3212TIP3    H231052   5.038   4.440  13.986  0.9397 -1.2851 -0.3914
 3213TIP3   OH231053   1.449   1.508   5.263 -0.2155  0.2043 -0.1775
 3213TIP3    H131054   1.407   1.581   5.309 -1.9535 -0.5170 -0.5636
 3213TIP3    H231055   1.507   1.549   5.200  1.8591  1.2218  2.2920
 3214TIP3   OH231056   2.203   3.796  14.710  0.2449  0.4585  0.1346
 3214TIP3    H131057   2.146   3.825  14.781 -0.2930 -2.0606  0.7661
 3214TIP3    H231058   2.147   3.741  14.656  1.6846 -0.8065 -0.0841
 3215TIP3   OH231059   0.754   1.395  13.568  0.5124  0.0428  0.3085
 3215TIP3    H131060   0.725   1.360  13.652 -0.1983  2.2148  0.9873
 3215TIP3    H231061   0.828   1.340  13.543  1.3789  0.0270  2.8406
 3216TIP3   OH231062   6.717   4.189   5.405  0.5255  0.6977 -0.2399
 3216TIP3    H131063   6.773   4.261   5.377 -1.1232  1.7875 -0.8549
 3216TIP3    H231064   6.711   4.132   5.328  1.0746  0.4084 -0.0640
 3217TIP3   OH231065   0.031   0.768   1.751 -0.0625 -0.0033  0.2372
 3217TIP3    H131066   0.023   0.813   1.835 -0.9944 -0.1129  0.2177
 3217TIP3    H231067   0.024   0.675   1.773 -0.8698 -0.0064 -0.0192
 3218TIP3   OH231068   2.102   6.399   3.379 -0.1599 -0.2098  0.1334
 3218TIP3    H131069   2.173   6.436   3.327  0.5731  0.4819  1.5764
 3218TIP3    H231070   2.076   6.319   3.333  0.7188  0.1885 -1.0603
 3219TIP3   OH231071   3.325   0.356   3.322 -0.5697 -0.1797  0.1450
 3219TIP3    H131072   3.358   0.267   3.338  0.6454  0.3012  0.3829
 3219TIP3    H231073   3.346   0.372   3.230 -2.1521 -0.6924 -0.3244
 3220TIP3   OH231074   1.029   0.040   0.061 -0.2955  0.2456  0.4082
 3220TIP3    H131075   1.066   0.026   0.149 -2.4350 -1.0981  1.1104
 3220TIP3    H231076   0.991   0.128   0.066  0.6662  0.6702  0.4287
 3221TIP3   OH231077   3.570   1.553  14.718 -0.1132  0.3013  0.2568
 3221TIP3    H131078   3.666   1.561  14.717 -0.1372  0.5559 -0.3846
 3221TIP3    H231079   3.540   1.618  14.655 -0.6393 -0.7122 -0.5553
 3222TIP3   OH231080   2.594   4.510  15.670  0.4793 -0.0231 -0.0562
 3222TIP3    H131081   2.688   4.507  15.657  0.7755 -1.0782  2.1383
 3222TIP3    H231082   2.578   4.452  15.744 -1.4654  2.8641  1.9233
 3223TIP3   OH231083   2.392   2.464  12.310  0.3072  0.3022  0.2075
 3223TIP3    H131084   2.350   2.530  12.255  1.6406  0.5985 -0.4669
 3223TIP3    H231085   2.365   2.486  12.399  2.6451  3.2274  0.2683
 3224TIP3   OH231086   6.112   3.994   5.593 -0.0612  0.3249  0.2021
 3224TIP3    H131087   6.151   3.932   5.531 -1.0595  0.5748 -0.6979
 3224TIP3    H231088   6.141   3.963   5.679 -1.4926 -2.1323 -0.1304
 3225TIP3   OH231089   0.136   5.969  10.304  0.0532  0.3826 -0.6509
 3225TIP3    H131090   0.189   6.041  10.271  1.2231 -0.6924 -1.1736
 3225TIP3    H231091   0.104   5.999  10.389  2.4938  0.6108  0.2227
 3226TIP3   OH231092   2.448   5.795   3.137  0.5545 -0.1439 -0.7118
 3226TIP3    H131093   2.470   5.760   3.051 -1.5295 -0.8684 -0.9968
 3226TIP3    H231094   2.383   5.863   3.119  0.7850  0.3195  0.2097
 3227TIP3   OH231095   5.607   5.891  13.575 -0.4523 -0.2537  0.2979
 3227TIP3    H131096   5.701   5.899  13.590 -0.5017 -0.1372  0.5427
 3227TIP3    H231097   5.597   5.900  13.480 -0.4345  2.0394  0.4890
 3228TIP3   OH231098   6.419   4.707  13.477  0.4092 -0.3561  0.0268
 3228TIP3    H131099   6.388   4.708  13.567  0.3552  1.4307  0.0221
 3228TIP3    H231100   6.348   4.668  13.427 -0.5767  0.8490  0.4544
 3229TIP3   OH231101   5.074   2.931  15.092  0.4204  0.2076  0.4598
 3229TIP3    H131102   5.168   2.916  15.103  0.8525  0.7945 -2.0875
 3229TIP3    H231103   5.048   2.872  15.021 -0.7586  1.2970 -0.0353
 3230TIP3   OH231104   5.056   1.793  16.850 -0.2182 -0.6780 -0.4272
 3230TIP3    H131105   5.006   1.711  16.860 -3.3694  0.9322 -2.2757
 3230TIP3    H231106   5.037   1.842  16.930  1.2702 -1.4803  0.4509
 3231TIP3   OH231107   2.098   0.409  11.312  0.4945  0.3578  0.3835
 3231TIP3    H131108   2.080   0.501  11.292 -1.3764 -0.5827 -2.4769
 3231TIP3    H231109   2.188   0.395  11.282  0.4159  0.9735 -0.1358
 3232TIP3   OH231110   0.994   4.044  12.796 -0.1752  0.6278  0.3795
 3232TIP3    H131111   0.987   4.093  12.878 -1.5463 -1.1630  1.3838
 3232TIP3    H231112   1.044   3.965  12.820 -0.2254  0.2969 -0.5931
 3233TIP3   OH231113   2.194   3.412  12.071  0.2015 -0.3512  0.1485
 3233TIP3    H131114   2.113   3.453  12.039  0.1043 -1.4897 -1.1195
 3233TIP3    H231115   2.256   3.422  11.999  0.6812 -0.9492  0.4695
 3234TIP3   OH231116   1.521   3.653  16.149  0.4011  0.4454  0.0345
 3234TIP3    H131117   1.473   3.724  16.106  0.4145  0.6381  0.3364
 3234TIP3    H231118   1.609   3.687  16.163  0.6920  0.0070 -0.7277
 3235TIP3   OH231119   1.647   3.411   1.706 -0.1132  0.2097  0.1620
 3235TIP3    H131120   1.605   3.399   1.621  0.9473 -1.5404 -0.1546
 3235TIP3    H231121   1.676   3.502   1.707 -1.7306  0.7439 -0.5942
 3236TIP3   OH231122   1.633   2.486   2.111 -0.1406  0.5834 -0.3770
 3236TIP3    H131123   1.660   2.541   2.037 -1.0085 -0.7413 -1.7191
 3236TIP3    H231124   1.588   2.412   2.070  1.0552 -1.1611  1.3631
 3237TIP3   OH231125   6.374   6.232  14.804 -0.2142 -0.5419 -0.4051
 3237TIP3    H131126   6.448   6.230  14.743 -0.3291 -1.6842 -0.5177
 3237TIP3    H231127   6.353   6.325  14.813  1.4802 -0.1891 -0.0699
 3238TIP3   OH231128   0.760   3.709   4.399  0.1320  0.1582  0.1596
 3238TIP3    H131129   0.729   3.675   4.483  1.1949  0.4701  0.6904
 3238TIP3    H231130   0.682   3.746   4.358 -0.5953 -0.8696  0.5719
 3239TIP3   OH231131   1.793   6.005   2.056 -0.5422  0.4642 -0.7309
 3239TIP3    H131132   1.802   6.019   2.151  1.0269 -1.8786 -0.4806
 3239TIP3    H231133   1.858   6.063   2.017 -1.9835  2.2968 -0.4763
 3240TIP3   OH231134   4.026   2.707  13.629  0.2416  0.1757 -0.3905
 3240TIP3    H131135   4.069   2.726  13.546  2.7816 -1.1743  0.5734
 3240TIP3    H231136   4.035   2.612  13.639 -0.3364  0.2849  1.2756
 3241TIP3   OH231137   4.669   5.558  12.069  0.1466  0.4532 -0.0386
 3241TIP3    H131138   4.708   5.485  12.019 -1.4028  0.9886 -2.1162
 3241TIP3    H231139   4.744   5.603  12.107  1.1066 -2.5939  1.8472
 3242TIP3   OH231140   5.262   1.252   3.714  0.3546 -0.3212  0.4140
 3242TIP3    H131141   5.266   1.157   3.704 -1.0300 -0.3896  0.4926
 3242TIP3    H231142   5.280   1.266   3.807 -2.5779 -0.7413  1.0998
 3243TIP3   OH231143   4.423   5.276   1.284  0.2924  0.3912 -0.5752
 3243TIP3    H131144   4.483   5.214   1.242  1.8010  1.7600 -0.4834
 3243TIP3    H231145   4.357   5.220   1.325  2.9888 -1.3792  1.6528
 3244TIP3   OH231146   3.337   1.806  16.891 -0.6601  0.3571  0.3121
 3244TIP3    H131147   3.389   1.879  16.926  2.3863 -1.3467 -0.4641
 3244TIP3    H231148   3.308   1.837  16.805  2.8496 -0.1888 -1.1900
 3245TIP3   OH231149   0.523   3.891  15.340  0.1296 -0.2727  0.1264
 3245TIP3    H131150   0.547   3.806  15.303  0.0463 -0.5791  0.7741
 3245TIP3    H231151   0.428   3.892  15.338  0.1437  0.4769 -1.3801
 3246TIP3   OH231152   2.793   4.261  17.083  0.5669  0.0849 -0.7255
 3246TIP3    H131153   2.795   4.309  17.001  0.5295 -1.3966 -1.6207
 3246TIP3    H231154   2.885   4.255  17.110  0.3421  3.1629  0.9397
 3247TIP3   OH231155   1.540   3.058   2.117  0.1774  0.3350  0.0743
 3247TIP3    H131156   1.526   3.087   2.027  0.3424  1.5960  0.4550
 3247TIP3    H231157   1.634   3.064   2.130  0.3157 -1.1387 -0.0876
 3248TIP3   OH231158   4.809   0.614   2.391 -0.3487  0.1575  0.0292
 3248TIP3    H131159   4.791   0.551   2.321  1.4595 -0.4771  0.1240
 3248TIP3    H231160   4.740   0.597   2.455 -2.2041  0.9450 -1.6924
 3249TIP3   OH231161   6.576   1.788  14.809 -0.1594 -0.1605  0.5404
 3249TIP3    H131162   6.510   1.738  14.858  1.1348 -1.0012  1.4697
 3249TIP3    H231163   6.529   1.821  14.733 -1.4307 -1.5450  0.6912
 3250TIP3   OH231164   4.501   1.910   5.874 -0.1247 -0.2844 -0.5068
 3250TIP3    H131165   4.577   1.860   5.844  0.3402  0.6971 -0.9669
 3250TIP3    H231166   4.429   1.846   5.872  0.8755 -1.4729  0.9110
 3251TIP3   OH231167   3.438   4.872  13.186  0.0606  0.3004 -0.0856
 3251TIP3    H131168   3.516   4.816  13.186  1.2002  1.8846  0.6870
 3251TIP3    H231169   3.366   4.812  13.209  1.4524 -0.5994  2.0540
 3252TIP3   OH231170   6.293   5.283   0.699 -0.1841  0.0091  0.3989
 3252TIP3    H131171   6.278   5.262   0.607  0.3362  1.1957  0.0349
 3252TIP3    H231172   6.251   5.212   0.747 -0.7307 -0.4486 -0.7458
 3253TIP3   OH231173   0.701   3.487  13.602 -0.5147 -0.3328 -0.8741
 3253TIP3    H131174   0.658   3.561  13.559  3.2133  4.1276  2.5463
 3253TIP3    H231175   0.665   3.486  13.691  0.3095 -1.9314 -0.5360
 3254TIP3   OH231176   2.355   1.264   2.502  0.3600 -0.6744 -0.6572
 3254TIP3    H131177   2.262   1.285   2.500  0.6740  0.7831 -0.3006
 3254TIP3    H231178   2.359   1.175   2.538 -0.6470  0.8520  3.4938
 3255TIP3   OH231179   3.930   4.262   2.716  0.1201  0.3203  0.2390
 3255TIP3    H131180   3.972   4.281   2.632  0.5910 -0.2792  0.3317
 3255TIP3    H231181   3.971   4.181   2.745 -0.8577 -0.0879  0.5059
 3256TIP3   OH231182   1.444   0.461   1.315  0.0018 -1.0581 -0.4216
 3256TIP3    H131183   1.424   0.388   1.256 -1.2565 -1.7156  0.8039
 3256TIP3    H231184   1.425   0.539   1.262 -0.2940 -1.6299 -1.1789
 3257TIP3   OH231185   5.987   3.900  10.322  0.1412 -0.2719 -0.1498
 3257TIP3    H131186   5.983   3.991  10.349 -3.1828 -0.5979  0.5962
 3257TIP3    H231187   5.982   3.903  10.226 -1.9023  0.2429 -0.0343
 3258TIP3   OH231188   0.831   4.540   3.807 -0.1926 -0.1334 -0.4782
 3258TIP3    H131189   0.810   4.467   3.749  0.0289 -0.2251 -0.4447
 3258TIP3    H231190   0.748   4.562   3.849 -0.8934  1.5273 -2.6400
 3259TIP3   OH231191   6.772   0.229  14.953  0.0609  1.1141  0.3895
 3259TIP3    H131192   6.848   0.233  15.012  0.1571 -1.5397  0.5094
 3259TIP3    H231193   6.696   0.239  15.011  0.2323  0.7682  0.6768
 3260TIP3   OH231194   0.120   2.466   1.519 -0.4965  0.5473  0.0351
 3260TIP3    H131195   0.198   2.411   1.511  0.8762  2.5640 -0.8855
 3260TIP3    H231196   0.114   2.485   1.612 -0.0158  0.1883  0.1439
 3261TIP3   OH231197   3.665   4.656  16.958  0.8670 -0.2239 -0.1160
 3261TIP3    H131198   3.674   4.573  16.912  0.0469 -0.4663  0.1423
 3261TIP3    H231199   3.600   4.638  17.027 -1.0705  1.2103 -1.5008
 3262TIP3   OH231200   6.730   3.668  11.959  0.2383 -0.1695  0.3886
 3262TIP3    H131201   6.648   3.634  11.923 -1.7575  3.3733  1.2916
 3262TIP3    H231202   6.729   3.641  12.050  0.1327 -0.2731  0.3561
 3263TIP3   OH231203   2.900   5.027   1.393 -0.3193  0.2219 -0.0452
 3263TIP3    H131204   2.915   5.015   1.299  1.2538 -1.2452  0.3818
 3263TIP3    H231205   2.856   4.946   1.420 -1.9655  1.1943  0.2472
 3264TIP3   OH231206   2.290   6.448  14.475 -0.3782 -0.2063  0.5327
 3264TIP3    H131207   2.219   6.462  14.538 -0.1286 -1.5123  1.1110
 3264TIP3    H231208   2.245   6.433  14.392 -0.7194  1.0231  0.4865
 3265TIP3   OH231209   1.431   4.376   3.131  0.0673 -1.1575  0.3223
 3265TIP3    H131210   1.377   4.409   3.059  3.5297  0.0696 -1.8514
 3265TIP3    H231211   1.457   4.288   3.102 -1.2634 -2.0332  1.6912
 3266TIP3   OH231212   3.809   1.814  14.988  0.3181  0.1177  0.3590
 3266TIP3    H131213   3.734   1.758  14.968 -1.1424  1.7893  1.0106
 3266TIP3    H231214   3.827   1.798  15.080  1.2956 -0.8688  0.0120
 3267TIP3   OH231215   0.150   5.781   6.436  0.7098  0.2845 -0.4613
 3267TIP3    H131216   0.112   5.783   6.523  1.5210  1.4879 -0.1039
 3267TIP3    H231217   0.100   5.846   6.386 -0.4600 -1.1837 -1.2060
 3268TIP3   OH231218   4.527   5.480   3.832 -0.4445  0.0902  0.3377
 3268TIP3    H131219   4.464   5.549   3.810 -0.2592  0.6468  1.5274
 3268TIP3    H231220   4.485   5.399   3.802 -0.7827  0.6820 -0.8131
 3269TIP3   OH231221   6.105   1.037   2.925 -0.3199  0.0756  0.5125
 3269TIP3    H131222   6.032   1.091   2.954  0.2023  0.9963  0.1174
 3269TIP3    H231223   6.183   1.080   2.961 -0.0124 -1.3339  1.6050
 3270TIP3   OH231224   3.135   1.938   6.537 -0.0040 -0.4692 -0.0651
 3270TIP3    H131225   3.199   1.884   6.492 -0.4546 -0.0070 -1.2596
 3270TIP3    H231226   3.100   1.881   6.607  0.2020 -1.3997 -0.7181
 3271TIP3   OH231227   4.654   6.154   5.355 -0.3682 -0.0330  0.4858
 3271TIP3    H131228   4.640   6.171   5.262  1.0737 -0.1615  0.2301
 3271TIP3    H231229   4.748   6.139   5.362 -0.4867 -0.1053  1.9569
 3272TIP3   OH231230   0.869   1.375   5.587  0.1690  0.3554 -0.0045
 3272TIP3    H131231   0.964   1.383   5.581  0.2001  0.0379  0.0565
 3272TIP3    H231232   0.840   1.368   5.496  0.1415  1.1386 -0.0596
 3273TIP3   OH231233   6.030   3.517  15.215  0.2355  0.1046  0.2038
 3273TIP3    H131234   6.065   3.596  15.174 -0.9869  0.4639 -0.1749
 3273TIP3    H231235   6.087   3.502  15.290  0.1386  1.6864  0.6244
 3274TIP3   OH231236   6.146   6.263  17.227 -0.0589 -0.0738 -1.0817
 3274TIP3    H131237   6.219   6.321  17.203 -0.1990  0.2936 -0.6427
 3274TIP3    H231238   6.068   6.310  17.197 -0.1731 -0.0333 -0.7210
 3275TIP3   OH231239   6.717   4.080   5.154 -0.3235  0.3568 -0.2479
 3275TIP3    H131240   6.730   3.994   5.114 -0.4267  0.1398  0.1808
 3275TIP3    H231241   6.798   4.127   5.136 -0.4648  0.3496 -0.9321
 3276TIP3   OH231242   2.063   6.416   0.872 -0.1475 -0.0894  0.1222
 3276TIP3    H131243   2.131   6.394   0.809  0.2358  2.1630 -0.3025
 3276TIP3    H231244   1.983   6.377   0.836  0.7439 -2.0300  0.2040
 3277TIP3   OH231245   5.260   1.046   2.930  0.3807  0.2503 -0.4731
 3277TIP3    H131246   5.265   1.124   2.874 -0.6050  1.3482  0.9383
 3277TIP3    H231247   5.195   0.990   2.887 -2.3156  2.2222  0.8715
 3278TIP3   OH231248   4.270   1.329  13.105  0.1234 -0.9766 -0.7478
 3278TIP3    H131249   4.209   1.265  13.142 -0.6157 -1.0021 -1.9924
 3278TIP3    H231250   4.259   1.407  13.161 -1.0002 -1.0096 -0.9189
 3279TIP3   OH231251   5.674   3.687   5.901 -1.4394 -0.0616 -0.2935
 3279TIP3    H131252   5.689   3.631   5.977 -1.6429  1.1607  0.6621
 3279TIP3    H231253   5.718   3.642   5.829  0.3082 -0.3352  0.9132
 3280TIP3   OH231254   0.682   3.209  15.805  0.6144  0.7859 -0.1999
 3280TIP3    H131255   0.746   3.149  15.766  2.5081  0.8102  2.7876
 3280TIP3    H231256   0.678   3.184  15.897  1.0043  4.8191  1.0020
 3281TIP3   OH231257   3.838   1.576   1.751  0.3732  0.2997  0.5413
 3281TIP3    H131258   3.764   1.620   1.794 -0.3681  0.4665 -0.8690
 3281TIP3    H231259   3.870   1.514   1.816 -1.3243 -0.1144  1.0147
 3282TIP3   OH231260   1.209   6.405   1.134 -0.4058 -0.8890  0.3928
 3282TIP3    H131261   1.282   6.433   1.079 -0.0191 -0.3988  1.1378
 3282TIP3    H231262   1.176   6.325   1.093  0.0992 -0.7222 -0.3415
 3283TIP3   OH231263   3.695   3.366  13.973  0.5605 -0.0146  0.0734
 3283TIP3    H131264   3.639   3.293  13.948  1.0643 -0.9369  1.5137
 3283TIP3    H231265   3.688   3.429  13.901 -2.0572 -0.2427  0.0786
 3284TIP3   OH231266   2.387   1.334  13.288  0.5217 -0.7170 -0.6653
 3284TIP3    H131267   2.327   1.305  13.220  1.1482 -0.6341 -1.2638
 3284TIP3    H231268   2.471   1.345  13.243  0.5406  0.9939 -0.2314
 3285TIP3   OH231269   3.745   1.934   3.248  0.5374 -0.4779 -0.0467
 3285TIP3    H131270   3.749   1.839   3.260  0.9644 -0.5268 -0.5608
 3285TIP3    H231271   3.832   1.958   3.217 -0.0796 -0.1488 -1.5626
 3286TIP3   OH231272   2.317   3.124  15.146 -0.6728  0.1914 -0.0934
 3286TIP3    H131273   2.302   3.205  15.097 -4.4708 -0.5108 -0.2746
 3286TIP3    H231274   2.314   3.151  15.238 -2.5081  0.2171 -0.1435
 3287TIP3   OH231275   3.237   0.885   0.668 -0.0399  0.2367 -0.1290
 3287TIP3    H131276   3.256   0.967   0.622  0.8675 -0.9098 -1.9104
 3287TIP3    H231277   3.300   0.823   0.630 -1.6278 -1.5997  0.1857
 3288TIP3   OH231278   0.810   4.422  12.555  0.2333 -0.4230 -0.1944
 3288TIP3    H131279   0.826   4.346  12.498 -0.3036 -0.7665  0.1145
 3288TIP3    H231280   0.754   4.389  12.625  1.2441 -0.0943  0.7758
 3289TIP3   OH231281   4.955   6.689   3.401  0.2908 -0.2171  0.3980
 3289TIP3    H131282   4.877   6.635   3.406 -0.2564  0.6472  1.4576
 3289TIP3    H231283   4.943   6.756   3.469  0.9780  1.1724 -0.8034
 3290TIP3   OH231284   6.749   0.854  16.315 -0.4170  0.4061  0.4292
 3290TIP3    H131285   6.703   0.911  16.255  0.3197 -0.7352 -1.2711
 3290TIP3    H231286   6.820   0.908  16.350 -0.4541  0.8902 -0.2305
 3291TIP3   OH231287   2.919   0.614  16.690  0.3671  0.2636 -0.0843
 3291TIP3    H131288   2.903   0.567  16.772  0.9718  2.1027  1.1472
 3291TIP3    H231289   3.015   0.618  16.684  0.3658 -1.9008 -2.1308
 3292TIP3   OH231290   4.228   0.377  10.741  0.0773  0.0228  0.0021
 3292TIP3    H131291   4.320   0.356  10.754  0.5226  0.7213 -1.9168
 3292TIP3    H231292   4.185   0.291  10.737  0.6346 -0.3054  0.8347
 3293TIP3   OH231293   2.217   3.004  13.803 -0.6281 -0.0918 -0.0874
 3293TIP3    H131294   2.250   3.079  13.851 -0.7473  0.6470 -1.1442
 3293TIP3    H231295   2.204   2.936  13.869  2.0894 -0.0949  0.5202
 3294TIP3   OH231296   3.608   1.575   0.259  0.0360  0.0148 -0.3520
 3294TIP3    H131297   3.540   1.586   0.192 -0.8640  1.1035  0.7357
 3294TIP3    H231298   3.690   1.566   0.208 -0.6653  0.5494 -1.5986
 3295TIP3   OH231299   4.896   4.011  11.852  0.1439 -0.2934 -0.1078
 3295TIP3    H131300   4.875   4.102  11.874  1.2928 -0.2620  0.8750
 3295TIP3    H231301   4.921   3.971  11.935  0.2649 -1.3456 -0.6428
 3296TIP3   OH231302   0.823   5.216   4.994  0.5271 -0.2048  0.7995
 3296TIP3    H131303   0.773   5.276   4.939  1.7612 -0.6158 -0.7932
 3296TIP3    H231304   0.792   5.129   4.970  0.2106 -0.3296  1.6305
 3297TIP3   OH231305   0.269   4.280   4.334  0.1174 -0.0420  0.4566
 3297TIP3    H131306   0.252   4.338   4.409  1.1069 -0.6167  1.1280
 3297TIP3    H231307   0.212   4.315   4.264 -1.2471  0.1560  1.6299
 3298TIP3   OH231308   6.019   0.490   2.989 -0.0025 -0.5784 -0.1958
 3298TIP3    H131309   5.992   0.578   2.962 -0.7283 -0.3697  1.1754
 3298TIP3    H231310   5.981   0.432   2.923  1.2982  0.2038 -1.6571
 3299TIP3   OH231311   0.092   1.754  11.282  0.3076  0.0862 -0.0716
 3299TIP3    H131312   0.139   1.830  11.247  0.2902 -0.4110 -1.1880
 3299TIP3    H231313   0.134   1.737  11.366 -0.0588  1.6785  0.4648
 3300TIP3   OH231314   1.151   0.481  16.225 -0.0229 -0.3882  0.0691
 3300TIP3    H131315   1.136   0.418  16.154  0.4395  0.6175 -0.9274
 3300TIP3    H231316   1.216   0.542  16.190 -1.9406  1.8277  0.2786
 3301TIP3   OH231317   5.166   1.227  14.748  0.0477 -0.0583 -0.4180
 3301TIP3    H131318   5.167   1.323  14.755 -1.6063  0.2060 -3.0681
 3301TIP3    H231319   5.253   1.205  14.715  0.0783  0.6479 -0.8350
 3302TIP3   OH231320   3.177   5.458  12.338 -0.7245  0.9318  0.4835
 3302TIP3    H131321   3.094   5.427  12.303 -0.7132  0.9435  0.4460
 3302TIP3    H231322   3.206   5.526  12.276  1.2144 -1.7368 -1.6569
 3303TIP3   OH231323   0.143   5.114   1.679 -0.1307  0.3250 -0.3250
 3303TIP3    H131324   0.181   5.124   1.592  0.1273 -1.2441 -0.4058
 3303TIP3    H231325   0.203   5.054   1.725 -1.4856 -0.6938  0.1578
 3304TIP3   OH231326   2.177   3.157   4.827  0.0797  0.6209 -0.1257
 3304TIP3    H131327   2.183   3.105   4.908 -0.0464  1.2084  0.2583
 3304TIP3    H231328   2.130   3.100   4.766  0.5286  0.0181  0.0835
 3305TIP3   OH231329   3.201   1.138   0.457 -0.5435  0.2185 -0.5867
 3305TIP3    H131330   3.263   1.186   0.403  0.2773  0.6511  0.7021
 3305TIP3    H231331   3.139   1.204   0.487 -0.6167  0.1077 -0.4918
 3306TIP3   OH231332   1.741   6.224  12.320  0.3867 -0.7899  0.4945
 3306TIP3    H131333   1.701   6.294  12.269 -0.2424 -0.9995  0.6864
 3306TIP3    H231334   1.776   6.268  12.397  0.6323 -0.5863  0.2692
 3307TIP3   OH231335   6.746   4.417  12.685  0.2871  0.3123 -0.4532
 3307TIP3    H131336   6.824   4.361  12.693  1.8945  2.3525 -1.2752
 3307TIP3    H231337   6.761   4.468  12.605 -2.7796 -0.5428 -1.6348
 3308TIP3   OH231338   5.257   3.775   1.535  0.2460 -0.6739 -0.4842
 3308TIP3    H131339   5.266   3.788   1.629  0.1013  2.1790 -0.8303
 3308TIP3    H231340   5.338   3.732   1.509  0.6978 -0.6066  0.7935
 3309TIP3   OH231341   4.055   6.619  14.092  0.1142 -0.2553  0.2171
 3309TIP3    H131342   4.138   6.666  14.079  1.6211 -1.7830  3.6225
 3309TIP3    H231343   4.021   6.652  14.175 -0.6764 -2.4565  0.8129
 3310TIP3   OH231344   2.259   1.267   0.487 -0.5736 -0.1247 -0.2867
 3310TIP3    H131345   2.340   1.292   0.531 -0.3495  0.6512 -1.1236
 3310TIP3    H231346   2.209   1.348   0.480 -2.0912 -0.8635  1.5524
 3311TIP3   OH231347   2.665   4.197  16.547 -0.2718 -0.0943 -0.5843
 3311TIP3    H131348   2.752   4.180  16.584 -0.0217  2.0767 -0.1476
 3311TIP3    H231349   2.681   4.212  16.454  0.0040  1.6005 -0.2781
 3312TIP3   OH231350   4.655   5.637  17.017 -0.4953  0.3631 -0.1587
 3312TIP3    H131351   4.698   5.675  16.941 -0.2400  0.4284  0.0180
 3312TIP3    H231352   4.561   5.645  16.999 -0.4452 -1.3217 -1.3021
 3313TIP3   OH231353   4.874   5.988  10.483  0.7071 -0.4300 -0.2137
 3313TIP3    H131354   4.968   5.999  10.500  0.5562 -3.0659  2.8040
 3313TIP3    H231355   4.845   5.925  10.549 -3.2132  0.3376 -1.0835
 3314TIP3   OH231356   2.144   2.560  16.500 -0.2316  0.2040  0.2790
 3314TIP3    H131357   2.113   2.486  16.552 -0.8403  0.4632  0.2901
 3314TIP3    H231358   2.136   2.531  16.409 -1.1142  0.4958  0.2551
 3315TIP3   OH231359   3.844   4.430   5.377  0.2929 -0.0923  0.6607
 3315TIP3    H131360   3.773   4.493   5.376  0.4907  0.1475  1.1010
 3315TIP3    H231361   3.857   4.411   5.470  2.4843  1.8102  0.7935
 3316TIP3   OH231362   1.277   4.385   4.906 -0.6437  0.6766  0.0860
 3316TIP3    H131363   1.371   4.388   4.926 -0.9343 -0.1894  1.6458
 3316TIP3    H231364   1.263   4.459   4.848  0.6456  2.0702  1.4865
 3317TIP3   OH231365   2.213   0.386  13.077  0.4660 -0.0523 -0.4856
 3317TIP3    H131366   2.156   0.422  13.009  1.2937 -0.6806 -1.5212
 3317TIP3    H231367   2.183   0.296  13.088  2.0008 -0.7712 -1.8986
 3318TIP3   OH231368   5.410   2.686  12.140  0.0285 -0.7096  0.4049
 3318TIP3    H131369   5.448   2.731  12.064 -0.7373 -0.1263  0.3607
 3318TIP3    H231370   5.463   2.716  12.214  0.6289 -1.0957  0.1403
 3319TIP3   OH231371   5.754   2.355   1.557 -0.0422  0.6323 -0.0040
 3319TIP3    H131372   5.831   2.396   1.517 -0.2199 -0.2974 -1.3256
 3319TIP3    H231373   5.716   2.302   1.487  0.1895 -1.8147  1.6717
 3320TIP3   OH231374   1.833   6.198  16.148 -0.0643  0.4057  0.1236
 3320TIP3    H131375   1.865   6.153  16.226  1.9574  0.1624 -0.8189
 3320TIP3    H231376   1.830   6.290  16.173  0.7347  0.3475  0.4412
 3321TIP3   OH231377   2.555   4.390  13.060  0.0910 -0.9138 -0.3594
 3321TIP3    H131378   2.484   4.385  13.123  0.1643 -0.8048 -0.2665
 3321TIP3    H231379   2.600   4.306  13.065  0.1618 -0.8655 -0.1904
 3322TIP3   OH231380   6.029   6.263   2.873 -0.1287  0.0370 -0.4680
 3322TIP3    H131381   5.998   6.334   2.817 -0.5888  0.8935  0.8470
 3322TIP3    H231382   5.961   6.253   2.939  0.3794 -1.0112 -0.0915
 3323TIP3   OH231383   5.371   4.004   1.777  0.4338  0.0897  0.0906
 3323TIP3    H131384   5.435   3.934   1.791  0.5256  0.2987  0.7302
 3323TIP3    H231385   5.406   4.055   1.705  1.1078  0.3400  0.5951
 3324TIP3   OH231386   1.573   3.578  16.449  0.0822 -0.5100 -0.1199
 3324TIP3    H131387   1.654   3.554  16.404  0.3326 -0.9946  0.5797
 3324TIP3    H231388   1.504   3.564  16.385  0.5401 -0.2225 -0.6778
 3325TIP3   OH231389   0.278   3.318   1.250  0.0970 -0.4834  0.4451
 3325TIP3    H131390   0.249   3.257   1.318 -0.8963  0.2739  0.7127
 3325TIP3    H231391   0.247   3.404   1.280  2.0096  0.2582  0.3913
 3326TIP3   OH231392   3.061   4.555   3.081 -0.2471 -0.2774 -0.4758
 3326TIP3    H131393   3.020   4.624   3.029 -2.5952 -0.5432  0.9358
 3326TIP3    H231394   3.034   4.574   3.171  0.3660 -2.1415  0.1219
 3327TIP3   OH231395   4.883   1.747   2.217  0.0008 -0.2489  0.5154
 3327TIP3    H131396   4.937   1.810   2.265 -0.9517  0.6425  0.4305
 3327TIP3    H231397   4.818   1.718   2.281 -0.6632  0.2011  0.0559
 3328TIP3   OH231398   5.213   1.498   4.705  0.0437  0.1009 -0.2258
 3328TIP3    H131399   5.197   1.574   4.761  0.1755 -0.4505  0.5554
 3328TIP3    H231400   5.308   1.485   4.708  0.1821  0.7339 -1.4469
 3329TIP3   OH231401   6.403   2.223   1.240  0.3522  0.6219  0.3182
 3329TIP3    H131402   6.453   2.279   1.181  1.0051 -0.0472  0.2328
 3329TIP3    H231403   6.458   2.215   1.318  0.7812 -0.8231 -0.1214
 3330TIP3   OH231404   0.660   3.453   2.228 -0.8715 -0.2174 -0.4282
 3330TIP3    H131405   0.737   3.441   2.283 -1.0063  0.0120 -0.1870
 3330TIP3    H231406   0.667   3.543   2.196 -1.9708  0.4135  1.0534
 3331TIP3   OH231407   2.894   4.058  11.384  0.2446  0.5791 -0.0267
 3331TIP3    H131408   2.957   4.105  11.330 -0.6738  0.1249 -1.5131
 3331TIP3    H231409   2.946   3.990  11.427  1.0691  1.2340  0.0219
 3332TIP3   OH231410   1.946   5.529   2.478  0.2658 -0.3403 -0.5140
 3332TIP3    H131411   2.030   5.557   2.441  0.5389 -0.3261  0.1103
 3332TIP3    H231412   1.881   5.583   2.433  0.6645  0.2680 -0.3759
 3333TIP3   OH231413   5.360   0.281  13.983  0.4940  0.5466 -0.2930
 3333TIP3    H131414   5.352   0.197  14.028  1.9636  0.1493 -0.7266
 3333TIP3    H231415   5.274   0.297  13.946 -0.3950  0.2836  1.6057
 3334TIP3   OH231416   3.174   4.837  13.287 -0.3065 -0.0624  0.2037
 3334TIP3    H131417   3.137   4.813  13.202  0.1331  1.1258 -0.3426
 3334TIP3    H231418   3.104   4.887  13.330 -0.5756 -0.7761  0.5949
 3335TIP3   OH231419   3.600   0.340  15.169  0.2289 -0.2409 -0.3768
 3335TIP3    H131420   3.575   0.391  15.246  0.4669 -2.1734  1.0477
 3335TIP3    H231421   3.602   0.403  15.097  0.2883  1.6687  1.2544
 3336TIP3   OH231422   3.869   0.868   0.975  0.2945  0.4981 -0.7393
 3336TIP3    H131423   3.900   0.783   0.943 -2.9630 -1.0545  0.0419
 3336TIP3    H231424   3.925   0.887   1.050 -0.8132 -2.3869  0.8794
 3337TIP3   OH231425   2.800   2.609  16.051 -0.0446  0.2260 -0.6315
 3337TIP3    H131426   2.760   2.679  15.998  0.5653  1.2775  0.2813
 3337TIP3    H231427   2.728   2.550  16.071 -1.0916  1.8826  0.6507
 3338TIP3   OH231428   1.999   2.407   4.108 -0.5907  0.7554  0.4483
 3338TIP3    H131429   1.917   2.416   4.157 -1.4610 -0.1033 -0.8072
 3338TIP3    H231430   2.013   2.492   4.067 -2.6447 -0.0432 -2.0253
 3339TIP3   OH231431   2.024   3.879  12.380 -0.4463  0.2582  0.2571
 3339TIP3    H131432   1.998   3.953  12.435 -0.4401  1.3663 -1.2094
 3339TIP3    H231433   1.943   3.832  12.361 -0.5795  0.4329  0.3982
 3340TIP3   OH231434   5.794   6.057   6.493  0.9747 -0.4224  0.0615
 3340TIP3    H131435   5.790   5.993   6.422 -0.8322 -1.5142  1.0967
 3340TIP3    H231436   5.856   6.123   6.463  1.0086 -1.3911 -2.0805
 3341TIP3   OH231437   1.743   5.042   1.134  0.0785 -0.5400 -0.4534
 3341TIP3    H131438   1.716   5.075   1.048 -0.2513 -1.1289 -0.5804
 3341TIP3    H231439   1.817   5.097   1.159 -0.5922  0.4219 -0.5645
 3342TIP3   OH231440   5.675   1.135  14.131  0.0566  0.3150  0.2764
 3342TIP3    H131441   5.745   1.123  14.067 -0.2124  0.8465 -0.1249
 3342TIP3    H231442   5.625   1.209  14.097 -2.6477 -2.0791 -1.1998
 3343TIP3   OH231443   2.863   4.019  15.336 -0.0142 -0.5401  0.3908
 3343TIP3    H131444   2.913   3.941  15.314  1.6393  0.2405  1.2842
 3343TIP3    H231445   2.882   4.035  15.428  0.7122  1.6230 -0.1024
 3344TIP3   OH231446   1.501   6.022   4.608  0.1196  0.3744 -0.1634
 3344TIP3    H131447   1.537   6.102   4.647  1.9419 -0.9749  0.9842
 3344TIP3    H231448   1.546   5.951   4.653 -0.9679 -1.3008 -1.6612
 3345TIP3   OH231449   6.205   6.752  12.149 -0.8900  0.4158 -0.4821
 3345TIP3    H131450   6.228   6.710  12.232 -1.9405  0.9712  0.0999
 3345TIP3    H231451   6.222   6.845  12.163 -0.8728  0.4864 -0.9614
 3346TIP3   OH231452   0.836   4.359   3.601 -0.3862 -0.4468 -0.2509
 3346TIP3    H131453   0.827   4.279   3.652 -1.0056 -0.5522 -0.5222
 3346TIP3    H231454   0.930   4.369   3.588 -0.1540  0.0557  1.6566
 3347TIP3   OH231455   0.130   6.007   1.467 -0.6588 -0.1635  0.1493
 3347TIP3    H131456   0.173   6.014   1.552  2.3735  0.1167 -1.3427
 3347TIP3    H231457   0.088   5.921   1.469  0.4813 -0.7094  1.4370
 3348TIP3   OH231458   1.741   3.540  15.350 -0.3137 -0.5249 -0.5204
 3348TIP3    H131459   1.835   3.544  15.333 -0.5044  1.3886 -1.2706
 3348TIP3    H231460   1.710   3.465  15.300  0.6349 -0.4822 -1.1840
 3349TIP3   OH231461   1.017   2.878   5.590 -0.4448 -0.4750 -0.4756
 3349TIP3    H131462   1.026   2.792   5.549  1.8566 -0.5740  0.1803
 3349TIP3    H231463   1.029   2.940   5.518 -0.3358 -0.6892 -0.6419
 3350TIP3   OH231464   5.514   4.633  16.842 -0.2965  0.5180  0.7450
 3350TIP3    H131465   5.567   4.673  16.911  0.4832  0.4875  0.1663
 3350TIP3    H231466   5.555   4.547  16.828  0.8174  1.3333 -1.1936
 3351TIP3   OH231467   5.824   4.278  15.551  0.0068  0.3692  0.1473
 3351TIP3    H131468   5.805   4.278  15.645 -0.6878  0.8050  0.0126
 3351TIP3    H231469   5.902   4.334  15.542 -1.2780  2.2322  0.2160
 3352TIP3   OH231470   4.183   3.522  12.773  0.5865 -0.2223  0.2241
 3352TIP3    H131471   4.232   3.457  12.722  0.1456 -3.2182  3.4324
 3352TIP3    H231472   4.113   3.471  12.815 -1.5292  2.8871  0.6245
 3353TIP3   OH231473   5.028   3.489   1.164 -0.1620  0.3640 -0.5630
 3353TIP3    H131474   5.080   3.414   1.191 -0.0936 -0.2679 -2.3720
 3353TIP3    H231475   5.081   3.566   1.186  0.6681 -0.1996 -0.6035
 3354TIP3   OH231476   2.220   5.439  17.174  0.1591  0.4222  0.2898
 3354TIP3    H131477   2.277   5.504  17.133  1.9586 -1.2356  0.1111
 3354TIP3    H231478   2.274   5.360  17.180 -2.0332 -1.1153  0.3428
 3355TIP3   OH231479   1.761   2.282   3.391  0.6583 -0.0989 -0.0731
 3355TIP3    H131480   1.693   2.278   3.324 -0.0487  0.2827  0.6138
 3355TIP3    H231481   1.728   2.346   3.455  2.8456  2.0736 -1.0433
 3356TIP3   OH231482   1.549   6.239  16.160 -0.1192  0.3098 -0.2316
 3356TIP3    H131483   1.506   6.228  16.075  0.8474 -0.0928 -0.6699
 3356TIP3    H231484   1.641   6.220  16.143  0.3649  1.9418  0.5398
 3357TIP3   OH231485   6.627   5.855  10.124  0.3301 -0.0664 -0.1687
 3357TIP3    H131486   6.593   5.944  10.120  2.3109  0.7320  0.0666
 3357TIP3    H231487   6.620   5.822  10.035  0.2515  0.5819 -0.4027
 3358TIP3   OH231488   4.838   6.422  16.676  0.1105  0.0178  0.1486
 3358TIP3    H131489   4.805   6.424  16.766 -0.0929 -0.9855  0.0938
 3358TIP3    H231490   4.924   6.381  16.683  1.3107  2.4675  0.2716
 3359TIP3   OH231491   2.064   4.498  13.030 -0.0522  0.0455  0.3479
 3359TIP3    H131492   2.159   4.511  13.027 -0.0630 -0.0632 -0.5470
 3359TIP3    H231493   2.027   4.583  13.007 -0.1402 -0.7159 -2.5103
 3360TIP3   OH231494   2.987   5.110   6.022  0.1337  0.3122 -0.1535
 3360TIP3    H131495   2.926   5.037   6.037  0.6488  0.0959  0.9358
 3360TIP3    H231496   3.029   5.090   5.938 -1.3575  0.5135 -0.9693
 3361TIP3   OH231497   2.054   4.054   4.628 -0.3220  0.2867 -0.0058
 3361TIP3    H131498   2.146   4.040   4.610 -0.6546 -1.6497 -0.3263
 3361TIP3    H231499   2.038   4.007   4.710 -1.2984 -0.5661 -0.6615
 3362TIP3   OH231500   2.574   4.875   4.217  0.2780  0.0300  0.2285
 3362TIP3    H131501   2.530   4.815   4.157  1.2178 -0.1689 -0.2781
 3362TIP3    H231502   2.566   4.961   4.175 -1.5221  0.3589  1.2082
 3363TIP3   OH231503   1.826   2.459  12.090 -0.5201 -0.3825  0.1864
 3363TIP3    H131504   1.783   2.409  12.159  0.3618 -1.9427 -0.3739
 3363TIP3    H231505   1.898   2.403  12.061  0.3008  1.0881 -0.6661
 3364TIP3   OH231506   1.923   0.098   2.336 -0.3265 -0.0575 -0.1889
 3364TIP3    H131507   1.874   0.071   2.414 -0.8897  1.3589 -0.0475
 3364TIP3    H231508   1.867   0.162   2.293 -0.1356 -1.0151 -1.9135
 3365TIP3   OH231509   0.577   6.240   5.119 -0.4985  0.5615  0.2776
 3365TIP3    H131510   0.533   6.184   5.054 -0.4841 -0.8630  1.4759
 3365TIP3    H231511   0.563   6.329   5.086 -0.3901 -0.1345 -1.7449
 3366TIP3   OH231512   2.958   0.090  14.177 -0.2521 -0.5128  0.6297
 3366TIP3    H131513   2.976   0.162  14.238  0.1391 -0.7429  0.7911
 3366TIP3    H231514   2.949   0.013  14.233  0.4947 -0.7919  0.3673
 3367TIP3   OH231515   5.439   3.982   4.468  0.4103  0.1210 -0.3197
 3367TIP3    H131516   5.459   4.013   4.380 -1.2047 -0.9176 -1.0946
 3367TIP3    H231517   5.468   3.890   4.468  1.7025  0.5079  0.7136
 3368TIP3   OH231518   1.392   1.132  11.749  0.3635 -0.6021  0.1594
 3368TIP3    H131519   1.331   1.070  11.787  1.0877 -0.9631  0.7316
 3368TIP3    H231520   1.423   1.089  11.669 -0.0755 -0.4441 -0.0999
 3369TIP3   OH231521   4.410   2.710   6.566 -0.8339  0.0519 -0.0764
 3369TIP3    H131522   4.382   2.685   6.654 -1.3008  2.2780  0.4464
 3369TIP3    H231523   4.479   2.775   6.580 -0.0707 -0.4699 -1.3611
 3370TIP3   OH231524   1.696   0.615  13.624 -0.3351  0.1862  0.0350
 3370TIP3    H131525   1.754   0.684  13.654  0.3300  0.3101 -1.5291
 3370TIP3    H231526   1.609   0.655  13.621 -0.0008  0.8637 -0.5682
 3371TIP3   OH231527   4.510   0.850  13.435  0.6956 -0.1876  0.5423
 3371TIP3    H131528   4.598   0.887  13.428  0.7747 -0.2190  1.3163
 3371TIP3    H231529   4.452   0.917  13.398  1.1211 -0.4855 -0.6553
 3372TIP3   OH231530   1.466   3.926  14.850  0.1807  0.2288  0.5386
 3372TIP3    H131531   1.383   3.974  14.847 -0.0864 -0.2216  0.6332
 3372TIP3    H231532   1.470   3.891  14.939  0.5374  0.3563  0.5751
 3373TIP3   OH231533   4.098   5.596  12.773 -0.1666 -0.8333  0.1012
 3373TIP3    H131534   4.015   5.637  12.750 -0.2849 -0.5736  0.9655
 3373TIP3    H231535   4.132   5.650  12.845  1.1416 -0.4487 -0.7875
 3374TIP3   OH231536   1.774   1.045   5.718  0.7159  0.0923 -0.3114
 3374TIP3    H131537   1.733   0.967   5.754 -0.1435  1.0915  0.9232
 3374TIP3    H231538   1.709   1.081   5.657  1.7850 -1.0643 -2.1853
 3375TIP3   OH231539   2.271   0.311   2.862 -0.4353  0.0435 -0.0372
 3375TIP3    H131540   2.246   0.244   2.798 -1.0771 -0.9721  1.2292
 3375TIP3    H231541   2.278   0.263   2.945 -2.6681  1.8276  1.2490
 3376TIP3   OH231542   1.447   5.512   4.495  0.1263 -0.0136 -0.2020
 3376TIP3    H131543   1.475   5.458   4.421 -0.7053 -1.9516  0.8951
 3376TIP3    H231544   1.526   5.522   4.548 -0.2314 -2.0430  0.7502
 3377TIP3   OH231545   0.123   1.271  15.192 -0.6730 -0.8754  0.3626
 3377TIP3    H131546   0.151   1.306  15.107 -0.5227 -1.3877  0.1974
 3377TIP3    H231547   0.186   1.307  15.255 -0.2222 -1.2326  0.1244
 3378TIP3   OH231548   3.105   3.781   3.074 -0.2143 -0.1513 -0.4907
 3378TIP3    H131549   3.163   3.854   3.095 -0.0385 -1.3912  3.7725
 3378TIP3    H231550   3.030   3.792   3.133  0.2508 -3.8691  0.9103
 3379TIP3   OH231551   1.356   0.662   4.418  0.1603  0.1370  0.4105
 3379TIP3    H131552   1.434   0.719   4.418  0.1914  0.0985 -0.0382
 3379TIP3    H231553   1.313   0.681   4.335 -1.2325  1.4140  1.4005
 3380TIP3   OH231554   4.193   1.579  16.555 -0.0891  0.6627 -0.2820
 3380TIP3    H131555   4.203   1.500  16.608  1.1258  0.2582 -1.1082
 3380TIP3    H231556   4.102   1.576  16.526 -0.0962 -0.3456 -0.1771
 3381TIP3   OH231557   1.912   0.652   2.527 -0.2525 -0.2000 -0.1855
 3381TIP3    H131558   1.917   0.572   2.475  0.4622 -0.0289 -0.3851
 3381TIP3    H231559   1.965   0.633   2.605  1.2909  0.6631 -1.0116
 3382TIP3   OH231560   1.049   1.624  11.614  0.2743  0.0978  0.7819
 3382TIP3    H131561   1.094   1.549  11.575  0.6422  0.8862 -0.3607
 3382TIP3    H231562   1.089   1.636  11.700  0.1325 -1.0818  1.0135
 3383TIP3   OH231563   1.237   4.587  15.836 -0.9005  0.0417  0.6204
 3383TIP3    H131564   1.318   4.636  15.818 -0.9169  0.1315  0.7833
 3383TIP3    H231565   1.179   4.652  15.876  0.0976 -0.7711  3.5367
 3384TIP3   OH231566   1.545   1.336  11.376 -0.0863  0.0800 -0.0847
 3384TIP3    H131567   1.586   1.334  11.289  1.2532  1.7558  0.4969
 3384TIP3    H231568   1.618   1.347  11.437 -1.0448 -0.7683  1.2511
 3385TIP3   OH231569   5.298   2.502   3.881  0.4547 -0.5578  0.0087
 3385TIP3    H131570   5.388   2.514   3.852  0.9586 -0.0107  1.7129
 3385TIP3    H231571   5.305   2.483   3.975 -1.2353  0.1155  0.2948
 3386TIP3   OH231572   2.450   0.481   5.221 -0.0762  0.2236  0.0396
 3386TIP3    H131573   2.434   0.528   5.140 -0.9420  0.9408  0.6237
 3386TIP3    H231574   2.365   0.477   5.264  0.0600 -1.5454  0.1763
 3387TIP3   OH231575   4.537   0.281   4.580  0.0393 -0.0605  0.2441
 3387TIP3    H131576   4.580   0.216   4.524  0.8458 -0.4946  1.3450
 3387TIP3    H231577   4.483   0.229   4.640 -0.7568  0.3957 -0.0824
 3388TIP3   OH231578   3.506   0.873   6.483  0.8960 -0.3439 -0.3708
 3388TIP3    H131579   3.595   0.889   6.453  0.8523  0.4622 -0.0913
 3388TIP3    H231580   3.499   0.778   6.491  2.6474 -0.3018  2.3316
 3389TIP3   OH231581   1.493   4.767  10.649  0.1450  0.2613  0.8575
 3389TIP3    H131582   1.586   4.790  10.653  0.0401  1.0768 -0.9836
 3389TIP3    H231583   1.493   4.671  10.644  0.9412  0.3054 -0.1864
 3390TIP3   OH231584   2.467   1.647   0.317  0.1150 -0.4524 -0.2637
 3390TIP3    H131585   2.483   1.672   0.226 -1.9556 -1.6689 -0.9813
 3390TIP3    H231586   2.538   1.586   0.338 -0.0018 -0.9663 -1.3787
 3391TIP3   OH231587   1.593   2.215  15.354 -0.3274  0.0535  0.2682
 3391TIP3    H131588   1.664   2.275  15.376 -0.1875  0.3831 -1.0515
 3391TIP3    H231589   1.627   2.128  15.376  1.3115  0.0005 -2.3459
 3392TIP3   OH231590   0.593   1.947  16.625  0.0667  0.2839  0.1633
 3392TIP3    H131591   0.500   1.968  16.632 -0.1002  0.6554 -2.4756
 3392TIP3    H231592   0.637   2.019  16.670 -0.8950  0.4949  0.7815
 3393TIP3   OH231593   5.946   5.185  12.679  0.3468  0.4920  0.0921
 3393TIP3    H131594   5.897   5.133  12.615 -0.9584  1.5531  0.1927
 3393TIP3    H231595   5.996   5.121  12.729 -2.1078 -0.8092  0.9823
 3394TIP3   OH231596   0.649   1.465   2.596  0.1848  0.3849  0.2914
 3394TIP3    H131597   0.635   1.415   2.677  0.6079 -1.5854 -0.8296
 3394TIP3    H231598   0.736   1.502   2.607  0.2992  0.0155  0.6797
 3395TIP3   OH231599   1.576   6.143   2.182  0.3792  0.8065 -0.0497
 3395TIP3    H131600   1.644   6.120   2.245  0.2255  0.7196  0.0863
 3395TIP3    H231601   1.587   6.080   2.111  0.0256  0.3746  0.2742
 3396TIP3   OH231602   3.055   1.177  11.260  0.1182  0.0932 -0.3257
 3396TIP3    H131603   2.983   1.115  11.271  1.1301 -0.7828  1.4635
 3396TIP3    H231604   3.032   1.252  11.315 -0.1759  0.5003 -0.9933
 3397TIP3   OH231605   0.732   0.223   3.289 -0.4713  0.0542  0.4277
 3397TIP3    H131606   0.798   0.292   3.297 -0.7655  0.6521 -2.0198
 3397TIP3    H231607   0.652   0.262   3.324 -0.8886  1.3564 -1.9047
 3398TIP3   OH231608   1.038   6.181   1.078  0.6344  0.2544  0.5273
 3398TIP3    H131609   0.965   6.148   1.027  0.7295  0.4283  0.2786
 3398TIP3    H231610   1.025   6.144   1.166 -0.4416  1.2914  0.8145
 3399TIP3   OH231611   5.852   5.039  16.548  0.1552  0.6917 -0.0922
 3399TIP3    H131612   5.807   5.025  16.631  0.5995  0.0784  0.0421
 3399TIP3    H231613   5.861   5.134  16.542  2.4196  0.6273  1.7719
 3400TIP3   OH231614   1.543   3.197  13.839 -0.9356  0.1915  0.2661
 3400TIP3    H131615   1.468   3.233  13.790  1.8917  2.4508 -2.6181
 3400TIP3    H231616   1.594   3.151  13.772  0.9265 -0.2372  1.9649
 3401TIP3   OH231617   2.681   0.559   2.016 -0.4889 -0.0105  0.2333
 3401TIP3    H131618   2.776   0.552   2.006 -0.3488  0.8172  0.9913
 3401TIP3    H231619   2.649   0.568   1.927  0.2784  1.3646  0.0896
 3402TIP3   OH231620   4.492   3.652   3.878  0.6569  0.2154 -0.3264
 3402TIP3    H131621   4.464   3.625   3.965  2.3296  1.2227  0.5606
 3402TIP3    H231622   4.415   3.642   3.823 -1.2055  2.1770  1.8387
 3403TIP3   OH231623   6.244   6.681  13.082 -0.0330  0.2149  0.1635
 3403TIP3    H131624   6.228   6.631  13.162  1.3286  0.4649  0.6056
 3403TIP3    H231625   6.339   6.688  13.077 -0.1534  1.2104 -0.8577
 3404TIP3   OH231626   2.024   5.061  11.287  0.6011 -0.3541 -0.2450
 3404TIP3    H131627   1.950   5.017  11.330 -0.4480  2.4375  0.9639
 3404TIP3    H231628   2.060   4.995  11.228 -2.4338 -2.0324 -0.3517
 3405TIP3   OH231629   5.863   6.205   5.591  0.1233  0.0446  0.3636
 3405TIP3    H131630   5.782   6.219   5.542  0.2354  1.3251  0.5332
 3405TIP3    H231631   5.855   6.115   5.624 -0.6129 -0.3140 -0.7475
 3406TIP3   OH231632   3.645   6.294   4.560 -0.2763  0.1664 -0.5049
 3406TIP3    H131633   3.647   6.199   4.569  1.4614  0.0861 -1.5532
 3406TIP3    H231634   3.554   6.318   4.579 -0.8988 -1.7571 -0.9413
 3407TIP3   OH231635   3.591   1.189   5.640 -0.5828 -0.3475  0.3579
 3407TIP3    H131636   3.610   1.117   5.578 -1.0073 -0.1303 -0.0284
 3407TIP3    H231637   3.542   1.147   5.711  0.3491 -0.6973  0.8055
 3408TIP3   OH231638   2.917   0.158   5.637  0.1585 -0.4559 -0.1734
 3408TIP3    H131639   2.865   0.227   5.595  0.9387  0.3213  0.1089
 3408TIP3    H231640   2.994   0.204   5.670  0.0215 -1.2140  1.2598
 3409TIP3   OH231641   4.432   0.853   0.275  0.6817 -0.0725 -0.3872
 3409TIP3    H131642   4.420   0.849   0.180  0.7558  0.9587 -0.4510
 3409TIP3    H231643   4.480   0.773   0.297  0.9824 -0.1392 -1.2738
 3410TIP3   OH231644   4.284   2.933   3.257 -0.3029  0.3360  0.9026
 3410TIP3    H131645   4.325   3.019   3.251  0.1343  0.1500  1.1926
 3410TIP3    H231646   4.194   2.951   3.286 -0.4253  0.7394  0.2601
 3411TIP3   OH231647   5.989   0.243   4.850  0.5036  0.2547  0.5606
 3411TIP3    H131648   5.944   0.174   4.900  0.9902 -0.1503  0.4404
 3411TIP3    H231649   5.966   0.324   4.896 -1.4001  0.1942 -0.2548
 3412TIP3   OH231650   1.057   3.640   1.573  0.1488 -0.6600  0.3088
 3412TIP3    H131651   1.064   3.551   1.608  0.9906 -1.3287 -1.4873
 3412TIP3    H231652   1.064   3.629   1.478  0.0838  1.3156  0.0551
 3413TIP3   OH231653   2.266   6.490  13.863  0.3116  0.1573  0.0116
 3413TIP3    H131654   2.263   6.397  13.884 -0.5379  0.1827  0.0109
 3413TIP3    H231655   2.333   6.497  13.794  1.3867 -0.2529  0.9893
 3414TIP3   OH231656   4.684   5.388  16.911  0.5490  0.1084  0.2127
 3414TIP3    H131657   4.731   5.440  16.975 -0.3883  0.8222  0.3257
 3414TIP3    H231658   4.625   5.333  16.963 -2.0513  2.4930 -0.1198
 3415TIP3   OH231659   6.706   5.298   3.947 -0.4139 -0.0634  0.1885
 3415TIP3    H131660   6.766   5.269   4.015 -1.1937  1.5353  1.6154
 3415TIP3    H231661   6.626   5.248   3.963 -0.4776  0.0480  0.2231
 3416TIP3   OH231662   5.518   1.836  13.500  0.2085 -1.0031  0.8580
 3416TIP3    H131663   5.524   1.775  13.574 -0.1678  0.1355  1.8527
 3416TIP3    H231664   5.424   1.850  13.489  0.3146 -0.2245  0.9554
 3417TIP3   OH231665   2.761   4.821   5.637 -0.1007 -0.0696 -0.6115
 3417TIP3    H131666   2.779   4.727   5.642  0.0011  0.0218  1.0166
 3417TIP3    H231667   2.848   4.861   5.637 -0.1673  0.1282  1.5386
 3418TIP3   OH231668   3.289   4.437  13.098  1.1284  0.2429 -0.1209
 3418TIP3    H131669   3.320   4.369  13.158 -0.6901  0.6943  1.3755
 3418TIP3    H231670   3.365   4.494  13.086  1.1189  1.0714  3.1254
 3419TIP3   OH231671   3.879   5.082   0.436 -0.1820  0.0893  0.4135
 3419TIP3    H131672   3.787   5.066   0.456 -0.3102 -0.5752 -0.6954
 3419TIP3    H231673   3.912   4.998   0.404  0.4739  0.6682 -0.4408
 3420TIP3   OH231674   1.926   6.581   2.426  1.0213 -0.7457  0.1547
 3420TIP3    H131675   2.004   6.534   2.456  2.4985  1.1981 -0.5418
 3420TIP3    H231676   1.913   6.650   2.492  1.6084  0.7167 -1.2217
 3421TIP3   OH231677   0.640   3.677  16.550 -0.5266 -0.4540 -0.1188
 3421TIP3    H131678   0.655   3.585  16.573 -0.8660 -0.3772  0.4325
 3421TIP3    H231679   0.567   3.675  16.488 -1.4192 -0.4593  0.9133
 3422TIP3   OH231680   2.383   3.119  14.293  0.0467  0.1613  0.0967
 3422TIP3    H131681   2.469   3.131  14.253 -0.3388  2.3354 -0.1304
 3422TIP3    H231682   2.402   3.081  14.379  1.2404  0.6206  0.0509
 3423TIP3   OH231683   5.042   1.781   5.786  0.0054  0.2406  0.1732
 3423TIP3    H131684   5.126   1.826   5.780  0.9204 -1.4313  0.1448
 3423TIP3    H231685   5.038   1.728   5.706 -1.2821  0.6628 -0.0465
 3424TIP3   OH231686   1.466   3.711  16.666 -0.0515 -0.4987 -0.2250
 3424TIP3    H131687   1.498   3.674  16.584 -0.3125 -0.0615 -0.5344
 3424TIP3    H231688   1.538   3.701  16.728 -0.1290 -1.5190 -0.3028
 3425TIP3   OH231689   1.493   1.393   2.335  0.6877 -0.5836 -0.1926
 3425TIP3    H131690   1.470   1.312   2.379 -0.6688 -0.4503 -0.6283
 3425TIP3    H231691   1.520   1.365   2.247  0.9196 -0.6328 -0.1042
 3426TIP3   OH231692   2.210   2.358   3.778 -0.1890 -0.0386  0.3987
 3426TIP3    H131693   2.260   2.304   3.840  0.9988  0.3183 -0.2358
 3426TIP3    H231694   2.139   2.301   3.748  0.3981 -0.8677  0.5787
 3427TIP3   OH231695   5.171   3.038   2.564  0.4184  0.5864  0.3423
 3427TIP3    H131696   5.169   3.004   2.653  0.7234 -0.7685 -0.1539
 3427TIP3    H231697   5.174   2.960   2.509 -1.6915  1.3469 -0.9137
 3428TIP3   OH231698   1.696   0.366  12.738 -0.5038  0.4159 -0.2064
 3428TIP3    H131699   1.670   0.418  12.662  2.2807  1.8471 -0.2193
 3428TIP3    H231700   1.657   0.412  12.813 -0.7064  0.7109 -0.4919
 3429TIP3   OH231701   6.374   6.297  16.969  0.1290 -0.4260 -0.5218
 3429TIP3    H131702   6.337   6.212  16.994 -2.4639  0.0469 -2.5135
 3429TIP3    H231703   6.339   6.358  17.034 -0.2196 -0.4637 -0.6712
 3430TIP3   OH231704   2.507   3.443  12.915 -0.0578 -0.1561  0.1353
 3430TIP3    H131705   2.588   3.494  12.921  0.3125 -1.0334  3.5881
 3430TIP3    H231706   2.534   3.360  12.875  0.2778  0.4343 -0.8933
 3431TIP3   OH231707   1.240   3.279  15.532 -0.1997 -0.1288 -0.2526
 3431TIP3    H131708   1.249   3.254  15.440 -0.1617  0.9101 -0.5388
 3431TIP3    H231709   1.151   3.253  15.555 -0.3424 -0.0541 -0.7036
 3432TIP3   OH231710   2.460   2.446   0.714  0.3251 -0.4778  0.5375
 3432TIP3    H131711   2.388   2.495   0.753 -1.4592  0.4919 -3.7503
 3432TIP3    H231712   2.539   2.495   0.737 -1.1730  2.8958 -1.2898
 3433TIP3   OH231713   0.397   2.678   2.544  0.4008 -0.0628 -0.0898
 3433TIP3    H131714   0.331   2.620   2.581  1.1126 -0.5482  0.4517
 3433TIP3    H231715   0.447   2.622   2.485 -0.5437  0.6405 -1.5604
 3434TIP3   OH231716   2.393   5.881  15.140 -0.0305  0.6200  0.1391
 3434TIP3    H131717   2.357   5.930  15.065 -1.5049  0.2858  0.6113
 3434TIP3    H231718   2.431   5.802  15.101  2.1299  1.9883 -0.6032
 3435TIP3   OH231719   0.040   4.765  16.081 -0.3473  0.2998 -0.7261
 3435TIP3    H131720   0.075   4.773  15.992 -0.6824 -0.1371 -0.8957
 3435TIP3    H231721  -0.020   4.691  16.077  0.9001 -0.8043  0.2567
 3436TIP3   OH231722   3.334   5.844   3.838  0.0389  0.1222  0.9282
 3436TIP3    H131723   3.305   5.935   3.833  0.5759  0.2216 -0.8321
 3436TIP3    H231724   3.361   5.833   3.929  0.7442  1.9729  0.9842
 3437TIP3   OH231725   3.500   1.506   4.938 -0.4244  0.6729  0.3091
 3437TIP3    H131726   3.504   1.410   4.938  1.5910  0.7239 -1.0912
 3437TIP3    H231727   3.587   1.534   4.966 -1.7400  2.1292  3.1963
 3438TIP3   OH231728   3.734   6.092   4.966  0.7122 -0.3151 -0.1412
 3438TIP3    H131729   3.750   6.187   4.964  0.3606 -0.2334  0.6025
 3438TIP3    H231730   3.798   6.058   5.028 -0.4720 -0.2845  1.1306
 3439TIP3   OH231731   4.279   5.635  14.538  0.1204  0.7512 -0.3634
 3439TIP3    H131732   4.189   5.616  14.562  0.6695 -1.3787  0.1626
 3439TIP3    H231733   4.332   5.580  14.598  1.8560  3.9220  1.1540
 3440TIP3   OH231734   5.075   5.867   1.712  0.1843 -0.6254 -0.0577
 3440TIP3    H131735   5.077   5.902   1.801 -0.1164 -1.8721  0.4524
 3440TIP3    H231736   5.039   5.938   1.659 -0.2228 -0.0957  0.9144
 3441TIP3   OH231737   2.750   5.663   4.207 -0.3195  0.4646 -0.0731
 3441TIP3    H131738   2.656   5.664   4.224 -0.4951 -0.3412 -1.0062
 3441TIP3    H231739   2.760   5.700   4.119  0.2762  0.9374  0.1825
 3442TIP3   OH231740   0.829   1.095   0.726  0.1071  0.5600  0.3304
 3442TIP3    H131741   0.901   1.146   0.688 -0.6245  1.2939 -0.0745
 3442TIP3    H231742   0.840   1.007   0.689  0.1083  0.9683 -0.6551
 3443TIP3   OH231743   2.686   2.908   3.774 -0.6845  0.1749 -0.3251
 3443TIP3    H131744   2.634   2.900   3.695 -0.4368 -0.5491 -0.4129
 3443TIP3    H231745   2.631   2.871   3.843  0.5717 -2.6574 -0.7798
 3444TIP3   OH231746   6.099   0.294  14.089  0.2982 -0.4611 -0.0367
 3444TIP3    H131747   6.004   0.287  14.092  0.2031  1.0579  0.9091
 3444TIP3    H231748   6.121   0.275  13.998 -0.8966 -0.9076 -0.2466
 3445TIP3   OH231749   1.381   2.463   5.377 -0.2879  0.6060  0.4833
 3445TIP3    H131750   1.366   2.372   5.401  2.2017  0.2633  0.8332
 3445TIP3    H231751   1.306   2.486   5.322  0.0332 -2.2589 -1.2504
 3446TIP3   OH231752   1.088   2.477   3.515  0.2710 -0.7394 -0.0189
 3446TIP3    H131753   1.029   2.548   3.491  0.1120 -0.2228  1.8050
 3446TIP3    H231754   1.073   2.465   3.609  2.5617 -1.0814  0.3252
 3447TIP3   OH231755   0.504   3.300  11.563  0.1579  0.0097 -0.2520
 3447TIP3    H131756   0.515   3.299  11.468  0.6020 -0.4057 -0.1980
 3447TIP3    H231757   0.565   3.367  11.594 -1.5767  1.7184 -0.4452
 3448TIP3   OH231758   1.635   6.641   2.661  0.4143  0.1218 -0.0000
 3448TIP3    H131759   1.561   6.633   2.601  0.0231  0.8054  0.3843
 3448TIP3    H231760   1.694   6.702   2.619  1.0857 -0.9487 -0.6255
 3449TIP3   OH231761   2.605   0.218   3.204 -0.0581  0.3502 -0.8781
 3449TIP3    H131762   2.511   0.231   3.218 -0.0383 -0.1941 -0.2352
 3449TIP3    H231763   2.612   0.191   3.112 -0.7779 -2.1409 -0.2237
 3450TIP3   OH231764   2.706   1.640   0.589  1.0672 -0.3615 -0.0248
 3450TIP3    H131765   2.676   1.562   0.636 -1.1287  0.2358 -0.3940
 3450TIP3    H231766   2.690   1.619   0.496 -1.0909  1.1436 -0.0194
 3451TIP3   OH231767   2.812   4.789   1.485  0.7208 -0.0854 -1.0021
 3451TIP3    H131768   2.803   4.695   1.498  2.2740 -0.1456 -0.1821
 3451TIP3    H231769   2.870   4.818   1.556  0.9825  1.3355 -1.7658
 3452TIP3   OH231770   5.247   0.553  12.533  0.0828  0.1530  0.4705
 3452TIP3    H131771   5.228   0.647  12.529 -0.0010  0.1505  0.8287
 3452TIP3    H231772   5.342   0.548  12.529  0.0618  0.2225 -0.1626
 3453TIP3   OH231773   0.969   6.064   1.329 -0.5387 -0.7554  0.1204
 3453TIP3    H131774   1.013   6.008   1.393 -0.0232  0.0335  0.4516
 3453TIP3    H231775   0.897   6.010   1.296 -0.1885 -1.5307  0.6153
 3454TIP3   OH231776   0.403   5.914  11.676 -1.1031 -0.4172 -0.7323
 3454TIP3    H131777   0.309   5.906  11.692 -1.3164  0.2184 -1.6490
 3454TIP3    H231778   0.410   5.982  11.609 -0.0991 -1.6298 -1.8770
 3455TIP3   OH231779   3.130   0.332   2.692  0.2843  0.2012  0.3016
 3455TIP3    H131780   3.148   0.333   2.598 -0.2032 -0.2282  0.2046
 3455TIP3    H231781   3.216   0.314   2.732 -0.0097 -2.4534 -0.1976
 3456TIP3   OH231782   1.630   2.694   6.204 -0.4348 -0.4509 -0.0033
 3456TIP3    H131783   1.691   2.620   6.197 -2.1335 -1.9452  0.5233
 3456TIP3    H231784   1.581   2.677   6.284 -1.5133  0.7459 -0.3898
 3457TIP3   OH231785   1.678   2.174   5.908 -0.4216  0.4833  0.1161
 3457TIP3    H131786   1.730   2.094   5.910  0.5617  1.0687 -1.2932
 3457TIP3    H231787   1.668   2.199   5.999  0.4847 -0.4555  0.4749
 3458TIP3   OH231788   2.236   0.650  13.654  0.6475 -0.2916  0.0823
 3458TIP3    H131789   2.186   0.619  13.578 -0.2589  0.0245  0.5442
 3458TIP3    H231790   2.204   0.597  13.727  1.4863 -0.5651  0.2593
 3459TIP3   OH231791   0.260   0.438  13.932 -0.3671  0.4041  0.2637
 3459TIP3    H131792   0.315   0.475  13.862  1.4641 -2.0470  0.3453
 3459TIP3    H231793   0.323   0.411  14.000 -1.7239 -1.8612  0.6580
 3460TIP3   OH231794   4.002   6.038   4.821  0.3736 -0.5811 -0.7663
 3460TIP3    H131795   3.990   6.124   4.861  0.7233 -1.1759  0.6626
 3460TIP3    H231796   3.920   6.020   4.776 -1.0698 -1.0508  1.9711
 3461TIP3   OH231797   5.763   2.989   2.126  0.1156 -0.6986 -0.0965
 3461TIP3    H131798   5.829   2.920   2.134  0.1442 -0.3635  3.0558
 3461TIP3    H231799   5.814   3.070   2.126 -0.2753 -0.3226  4.3712
 3462TIP3   OH231800   4.699   0.695  14.913 -0.1103  0.7623 -0.4901
 3462TIP3    H131801   4.662   0.730  14.831 -1.2694  0.7735  0.0349
 3462TIP3    H231802   4.636   0.721  14.980  0.2524 -0.2631  0.2467
 3463TIP3   OH231803   1.770   0.784  12.035 -0.0938 -0.1008  0.0957
 3463TIP3    H131804   1.724   0.732  12.101 -1.1669 -0.2815 -0.7956
 3463TIP3    H231805   1.842   0.824  12.084 -2.7015  2.3181  2.1321
 3464TIP3   OH231806   3.337   0.523  12.156  0.0966 -0.2159  0.4648
 3464TIP3    H131807   3.261   0.521  12.098 -0.5015  1.7634  1.1350
 3464TIP3    H231808   3.312   0.582  12.226  2.3909  0.7403  0.5262
 3465TIP3   OH231809   0.532   2.294  15.635  0.8712  0.4756 -0.3478
 3465TIP3    H131810   0.470   2.257  15.572  1.1080 -0.1870 -0.1879
 3465TIP3    H231811   0.613   2.244  15.622  0.9036  0.3049  0.5214
 3466TIP3   OH231812   2.820   0.959   2.686 -0.1201  0.2906 -0.0292
 3466TIP3    H131813   2.766   0.888   2.721 -0.7857 -0.9671 -3.3668
 3466TIP3    H231814   2.891   0.970   2.749  0.0245 -3.4392  0.5534
 3467TIP3   OH231815   6.206   6.025  14.868  0.1315 -0.4561  0.1683
 3467TIP3    H131816   6.159   5.999  14.789 -1.8693  0.2682  1.0637
 3467TIP3    H231817   6.236   6.114  14.851  1.1218 -0.8974 -0.3839
 3468TIP3   OH231818   0.923   4.214  16.022  0.4441  0.4703 -0.2984
 3468TIP3    H131819   0.946   4.153  16.091  1.6991 -0.4102 -1.4767
 3468TIP3    H231820   0.970   4.295  16.044  0.0740  0.5121  0.3734
 3469TIP3   OH231821   3.778   3.232  16.010 -0.2871 -0.0816  0.1624
 3469TIP3    H131822   3.711   3.250  15.945 -1.9088  0.2940  1.8822
 3469TIP3    H231823   3.857   3.274  15.975 -1.9516  3.0750  0.0260
 3470TIP3   OH231824   0.528   1.100  14.935 -0.3380 -0.1214 -0.4414
 3470TIP3    H131825   0.433   1.087  14.930 -0.5731  0.4972  1.6847
 3470TIP3    H231826   0.538   1.185  14.979  1.2055 -0.1716 -0.6591
 3471TIP3   OH231827   5.691   2.995  13.686  0.0347  0.1978  0.8601
 3471TIP3    H131828   5.776   3.031  13.712  0.6246 -0.7999  0.3462
 3471TIP3    H231829   5.694   2.904  13.715 -2.5863  1.2570  4.8521
 3472TIP3   OH231830   0.773   3.709   2.128  0.3375 -0.3425 -0.1429
 3472TIP3    H131831   0.728   3.794   2.127 -0.2409 -0.6459 -0.0562
 3472TIP3    H231832   0.763   3.676   2.039 -0.9746 -1.1161  0.2762
 3473TIP3   OH231833   2.969   5.998   3.946  0.2500  0.1784 -0.7324
 3473TIP3    H131834   3.033   6.055   3.904  0.2658  0.6125 -0.1343
 3473TIP3    H231835   2.934   5.944   3.875  1.7867 -0.5581 -0.9460
 3474TIP3   OH231836   3.886   1.971   1.603  0.6416 -0.5579  0.1449
 3474TIP3    H131837   3.841   1.899   1.560 -2.1147  0.9875  0.3266
 3474TIP3    H231838   3.907   2.032   1.532  0.6087 -0.3284  0.3292
 3475TIP3   OH231839   2.154   4.594   0.276  0.5730  0.0578 -0.0773
 3475TIP3    H131840   2.197   4.662   0.326 -0.7194  0.6988  0.1761
 3475TIP3    H231841   2.181   4.610   0.185  0.3928  0.8244 -0.0002
 3476TIP3   OH231842   5.888   3.313  15.584 -0.1927  0.0262  0.0867
 3476TIP3    H131843   5.809   3.262  15.565 -0.1071  0.0070 -0.2243
 3476TIP3    H231844   5.907   3.293  15.676 -0.0646 -0.6401 -0.0805
 3477TIP3   OH231845   1.558   1.796  14.188  0.7118 -0.3463  0.0618
 3477TIP3    H131846   1.472   1.755  14.200  0.4357  0.0052 -0.6897
 3477TIP3    H231847   1.545   1.887  14.213  0.9140 -0.3264  0.0983
 3478TIP3   OH231848   2.154   6.656  15.287 -0.5004  0.4678 -0.1891
 3478TIP3    H131849   2.222   6.599  15.324 -1.4738 -0.2251  0.5604
 3478TIP3    H231850   2.201   6.711  15.224  0.7455 -0.0359  0.2775
 3479TIP3   OH231851   0.945   6.766  10.866 -0.0295 -0.1104 -0.0364
 3479TIP3    H131852   1.002   6.711  10.812 -0.5685 -1.1899  0.4854
 3479TIP3    H231853   0.869   6.784  10.811  0.2065  0.2357 -0.2540
 3480TIP3   OH231854   1.708   2.243  12.268  0.1245 -0.2730  0.4546
 3480TIP3    H131855   1.683   2.223  12.358 -0.0137 -0.0611  0.4629
 3480TIP3    H231856   1.788   2.192  12.253  0.6315  0.3679  0.9823
 3481TIP3   OH231857   6.687   1.774  16.004 -0.2775  0.3009  0.1023
 3481TIP3    H131858   6.672   1.859  16.047  3.6149  1.1644 -0.0412
 3481TIP3    H231859   6.661   1.788  15.913  1.7942  1.8931 -0.2915
 3482TIP3   OH231860   4.911   0.922  14.771 -0.1353  0.4262 -0.0952
 3482TIP3    H131861   4.879   0.832  14.779  1.0647 -0.0500 -0.5727
 3482TIP3    H231862   4.991   0.915  14.720 -1.2449  2.0601 -2.1259
 3483TIP3   OH231863   2.731   4.576   3.564 -0.0544  0.0960 -0.3971
 3483TIP3    H131864   2.709   4.658   3.520 -1.3866  0.2064  0.4648
 3483TIP3    H231865   2.768   4.521   3.495  1.2252  1.5509 -0.9036
 3484TIP3   OH231866   6.068   4.560   1.446 -0.1019  0.4060  0.4568
 3484TIP3    H131867   6.161   4.549   1.430 -0.4678 -0.6663 -1.0831
 3484TIP3    H231868   6.054   4.655   1.444  0.7882  0.5288 -0.2637
 3485TIP3   OH231869   5.925   4.744  14.591  0.3545 -0.0675 -0.2140
 3485TIP3    H131870   5.879   4.717  14.513  1.3269 -0.2268 -0.7451
 3485TIP3    H231871   5.874   4.818  14.626  1.3214  1.7081 -2.4362
 3486TIP3   OH231872   2.438   2.140   4.309  0.2656  0.5403  0.2089
 3486TIP3    H131873   2.361   2.196   4.304 -0.4775 -0.2744  2.0025
 3486TIP3    H231874   2.425   2.088   4.388  0.3485 -3.0079 -1.9434
 3487TIP3   OH231875   6.618   1.321   1.133  0.4838 -0.3703 -0.3149
 3487TIP3    H131876   6.533   1.283   1.110 -0.6886  1.9011  0.1313
 3487TIP3    H231877   6.680   1.249   1.122 -0.8404 -0.9845 -4.9608
 3488TIP3   OH231878   2.639   4.632  16.969 -0.7736 -0.0536  0.2817
 3488TIP3    H131879   2.591   4.634  17.052 -1.5573  0.0102 -0.1653
 3488TIP3    H231880   2.604   4.556  16.923 -1.4932  0.8193 -0.6490
 3489TIP3   OH231881   4.367   3.397  16.368 -0.3001 -0.2241  0.3572
 3489TIP3    H131882   4.451   3.430  16.335 -0.0981 -1.9127 -0.8893
 3489TIP3    H231883   4.341   3.459  16.436  2.8494 -0.6619  2.0465
 3490TIP3   OH231884   5.845   2.837  13.421  0.5786 -0.5538  0.5956
 3490TIP3    H131885   5.779   2.848  13.489  1.0769  0.3740  0.9503
 3490TIP3    H231886   5.906   2.773  13.456  0.1234 -1.0519  0.4710
 3491TIP3   OH231887   3.905   0.662  12.236  0.6060  1.0123  0.4470
 3491TIP3    H131888   3.847   0.731  12.267  0.2160  1.0841 -0.4298
 3491TIP3    H231889   3.848   0.603  12.187  1.1011  0.5721  0.3946
 3492TIP3   OH231890   3.026   0.640  10.978  0.1170  0.2942 -0.2801
 3492TIP3    H131891   3.077   0.578  11.030 -0.6362 -0.1648 -0.0828
 3492TIP3    H231892   2.943   0.649  11.026 -0.1424  0.7326 -0.8052
 3493TIP3   OH231893   2.623   0.442  15.785 -0.3258  0.3079 -0.3901
 3493TIP3    H131894   2.578   0.363  15.756  1.2550 -0.7632 -0.0267
 3493TIP3    H231895   2.632   0.495  15.706  0.4851 -0.8454 -1.1005
 3494TIP3   OH231896   1.809   6.066   4.114  0.6530 -0.3696  0.2476
 3494TIP3    H131897   1.829   6.152   4.077  0.0774  0.1391  1.0994
 3494TIP3    H231898   1.719   6.048   4.085  0.1362  0.1063  1.4993
 3495TIP3   OH231899   1.742   5.724  17.149  0.4850 -0.6189  0.1186
 3495TIP3    H131900   1.780   5.807  17.178  0.9138 -0.5641 -0.6094
 3495TIP3    H231901   1.817   5.667  17.132  0.4633  0.5665 -4.5939
 3496TIP3   OH231902   3.602   4.393  14.353  0.3167  0.6186 -0.0749
 3496TIP3    H131903   3.630   4.379  14.262  1.0637  1.5182  0.0166
 3496TIP3    H231904   3.650   4.470  14.382 -0.4537  0.7568  0.8678
 3497TIP3   OH231905   0.896   6.654  14.067  0.2835  0.1745  0.4221
 3497TIP3    H131906   0.906   6.651  14.162 -0.1098 -0.9081  0.4388
 3497TIP3    H231907   0.810   6.616  14.051 -0.5779  2.2951 -0.2286
 3498TIP3   OH231908   4.317   1.253  10.405  0.0679  0.1875 -0.1634
 3498TIP3    H131909   4.393   1.197  10.389 -0.9626 -1.5873  1.0364
 3498TIP3    H231910   4.243   1.203  10.372 -0.5017  2.4110 -2.4136
 3499TIP3   OH231911   2.278   2.229   3.201 -0.0181  0.3036  0.6511
 3499TIP3    H131912   2.347   2.254   3.141  0.2312 -1.6239  0.1110
 3499TIP3    H231913   2.217   2.303   3.200  1.3209  1.4139  0.0872
 3500TIP3   OH231914   1.405   4.066  12.575  0.5608  0.1905 -0.4187
 3500TIP3    H131915   1.500   4.069  12.588  0.4036  0.0147  0.7682
 3500TIP3    H231916   1.393   4.005  12.502  1.0943 -3.3208  2.3337
 3501TIP3   OH231917   6.133   1.299   2.759 -0.2849 -0.5050 -0.5590
 3501TIP3    H131918   6.041   1.309   2.784  0.2251 -1.6956  1.9215
 3501TIP3    H231919   6.152   1.207   2.776  1.0313 -0.5801 -2.3144
 3502TIP3   OH231920   3.026   1.908  16.297  0.1635 -0.2256 -0.0141
 3502TIP3    H131921   3.088   1.942  16.361  1.1171 -2.5827  0.3743
 3502TIP3    H231922   2.954   1.970  16.298  1.6153  1.5020  0.9877
 3503TIP3   OH231923   3.015   3.936   3.359 -0.1675 -0.2752 -0.1390
 3503TIP3    H131924   3.093   3.891   3.391 -0.4119  0.7385  1.9010
 3503TIP3    H231925   3.045   4.024   3.338 -1.1111  0.6980  2.4206
 3504TIP3   OH231926   1.852   4.660  15.243  0.0258 -0.6596  0.1017
 3504TIP3    H131927   1.855   4.715  15.165 -0.4639 -0.5047  0.1881
 3504TIP3    H231928   1.867   4.571  15.211  0.4335 -0.5242 -0.0884
 3505TIP3   OH231929   1.619   6.628  14.364 -0.3244  0.0947  0.1411
 3505TIP3    H131930   1.621   6.610  14.458  1.8129  1.0582  0.3179
 3505TIP3    H231931   1.644   6.721  14.357  0.5663 -0.2364 -1.4177
 3506TIP3   OH231932   0.731   5.815  13.479  0.1195  0.5594  0.0618
 3506TIP3    H131933   0.781   5.817  13.561 -0.4205  0.5945  0.3900
 3506TIP3    H231934   0.653   5.868  13.497 -0.4901 -0.2652 -0.1539
 3507TIP3   OH231935   4.271   4.873   2.528  0.3133 -0.0992 -0.0904
 3507TIP3    H131936   4.256   4.785   2.562  0.8039  0.0497  0.5211
 3507TIP3    H231937   4.197   4.889   2.470  3.0048 -3.0732 -4.6982
 3508TIP3   OH231938   4.239   5.225   4.357 -0.2346  0.4398  0.5962
 3508TIP3    H131939   4.334   5.236   4.364 -0.2546  0.3987  0.9170
 3508TIP3    H231940   4.221   5.231   4.263  0.1248  0.1208  0.5070
 3509TIP3   OH231941   0.207   3.538   1.575 -0.5881  0.1811  0.1158
 3509TIP3    H131942   0.196   3.452   1.615 -1.7098  0.4593  0.4098
 3509TIP3    H231943   0.125   3.553   1.528 -0.1162  0.7816 -0.5250
 3510TIP3   OH231944   3.397   3.351   1.566 -0.7379  0.4675 -0.2605
 3510TIP3    H131945   3.455   3.276   1.583 -1.0309  0.7568  2.1070
 3510TIP3    H231946   3.453   3.414   1.520 -0.3865 -1.0418 -1.9515
 3511TIP3   OH231947   5.933   1.762   6.541  0.4197 -0.1734 -0.9028
 3511TIP3    H131948   6.025   1.753   6.564  0.4745 -1.0191 -1.4165
 3511TIP3    H231949   5.911   1.852   6.564  1.1654 -0.2028 -0.0573
 3512TIP3   OH231950   4.057   5.521   0.371 -0.2402 -0.4590  0.9480
 3512TIP3    H131951   4.003   5.600   0.379 -1.7334 -1.3736  0.1564
 3512TIP3    H231952   4.004   5.452   0.410 -1.1511 -2.0234 -2.7860
 3513TIP3   OH231953   1.255   4.610  10.926  0.8523 -0.5599  0.1502
 3513TIP3    H131954   1.177   4.661  10.904  1.0713 -0.6305 -0.8267
 3513TIP3    H231955   1.288   4.579  10.841  0.4789 -2.6862  0.7657
 3514TIP3   OH231956   5.958   1.231  12.277 -0.1623 -0.2781  0.0734
 3514TIP3    H131957   6.040   1.185  12.260 -0.7072 -1.5518  0.8542
 3514TIP3    H231958   5.949   1.231  12.372 -0.7156  0.5000  0.0339
 3515TIP3   OH231959   4.822   4.917  16.003  0.6222  0.1051  0.5084
 3515TIP3    H131960   4.756   4.851  15.984  0.8278  0.3114 -0.9235
 3515TIP3    H231961   4.779   4.977  16.065  0.4210 -1.3145  1.7751
 3516TIP3   OH231962   5.737   3.429  15.327  0.6470 -0.0801  0.0925
 3516TIP3    H131963   5.829   3.441  15.304  0.4797  0.8405 -0.1012
 3516TIP3    H231964   5.739   3.379  15.408  1.4057  2.6546  1.8261
 3517TIP3   OH231965   6.655   1.455  16.238 -0.0939  0.6170 -0.3999
 3517TIP3    H131966   6.638   1.400  16.315 -2.0020 -0.9729 -1.8843
 3517TIP3    H231967   6.732   1.415  16.197 -0.6487 -0.1333 -0.7250
 3518TIP3   OH231968   3.049   3.951  12.084 -0.0105  0.3681  0.6348
 3518TIP3    H131969   2.986   3.881  12.099  0.8325 -0.6700 -0.5501
 3518TIP3    H231970   3.134   3.910  12.099  0.4152  1.5476  1.4524
 3519TIP3   OH231971   5.462   2.876   1.743  0.0533 -0.3498  0.5251
 3519TIP3    H131972   5.417   2.960   1.752 -2.3284 -1.2686 -1.9869
 3519TIP3    H231973   5.435   2.844   1.657  2.0223 -3.0507  0.8601
 3520TIP3   OH231974   0.424   0.938   3.857 -0.2748 -0.0323  0.0041
 3520TIP3    H131975   0.442   0.981   3.940 -0.0143 -0.9173  0.4140
 3520TIP3    H231976   0.471   0.855   3.862 -1.6551 -0.8608 -0.3064
 3521TIP3   OH231977   5.888   6.554  11.461 -0.1529  0.2004 -0.0069
 3521TIP3    H131978   5.976   6.577  11.433 -0.2648  1.0728  0.3316
 3521TIP3    H231979   5.831   6.594  11.396 -0.3057 -0.1484 -0.0876
 3522TIP3   OH231980   4.941   3.213  14.341  0.5576 -0.4056  0.2115
 3522TIP3    H131981   4.883   3.203  14.416  0.9892  0.6320  0.6913
 3522TIP3    H231982   4.882   3.236  14.268  0.3084  0.1393  0.5808
 3523TIP3   OH231983   6.479   0.540  16.729  0.5509 -0.2357  0.4388
 3523TIP3    H131984   6.519   0.468  16.680 -1.7737 -1.3641  0.1047
 3523TIP3    H231985   6.457   0.502  16.814  0.3890  0.4086  0.6849
 3524TIP3   OH231986   0.563   3.177   0.540 -0.2623  0.0396  0.6493
 3524TIP3    H131987   0.559   3.136   0.454 -1.4359 -0.3047  0.8497
 3524TIP3    H231988   0.574   3.104   0.601  0.0567  0.2336  0.8227
 3525TIP3   OH231989   2.246   2.327  16.823  0.2216  0.1156 -0.0461
 3525TIP3    H131990   2.152   2.341  16.808  0.1985 -0.0098 -0.0161
 3525TIP3    H231991   2.258   2.233  16.813  0.7036  0.3538 -2.0794
 3526TIP3   OH231992   3.973   4.611   0.200 -0.2772 -0.4436 -0.0831
 3526TIP3    H131993   3.968   4.564   0.284 -1.9383  2.6577  1.6304
 3526TIP3    H231994   4.061   4.649   0.199 -0.3862 -0.1814  0.4079
 3527TIP3   OH231995   5.587   0.595   5.529  0.1975  0.5339 -0.1686
 3527TIP3    H131996   5.601   0.687   5.507  0.6835  0.3831 -0.5012
 3527TIP3    H231997   5.666   0.570   5.576  0.8711 -0.2001 -1.6441
 3528TIP3   OH231998   0.682   1.090  15.870 -0.0219 -0.2249  0.0531
 3528TIP3    H131999   0.677   1.186  15.864  1.1070 -0.2225 -1.1782
 3528TIP3    H232000   0.688   1.061  15.779 -1.6295 -1.5615  0.3541
 3529TIP3   OH232001   0.376   1.359  16.656  0.2455 -0.5900 -0.2938
 3529TIP3    H132002   0.305   1.375  16.594 -1.1474 -1.5884  1.0045
 3529TIP3    H232003   0.391   1.443  16.699  1.7843  0.3107 -2.5378
 3530TIP3   OH232004   2.790   0.706   1.335 -0.3729 -0.2456  0.2608
 3530TIP3    H132005   2.859   0.645   1.309 -0.7601  0.5880 -2.8880
 3530TIP3    H232006   2.827   0.754   1.409  0.9368 -2.4753  1.0956
 3531TIP3   OH232007   1.129   3.538   3.872  0.0639  0.7964  0.2671
 3531TIP3    H132008   1.111   3.593   3.948 -0.5319  1.8578 -0.6104
 3531TIP3    H232009   1.043   3.506   3.845  0.4138 -0.6185  0.7992
 3532TIP3   OH232010   5.023   6.122  15.338 -0.3974 -0.2286 -0.0903
 3532TIP3    H132011   4.994   6.208  15.368  2.2325  0.5430  0.3506
 3532TIP3    H232012   4.973   6.060  15.392 -1.5495  1.0117  0.3100
 3533TIP3   OH232013   0.516   4.794   4.037  0.0330  0.3800 -0.4128
 3533TIP3    H132014   0.423   4.789   4.059  0.0471 -0.0375 -0.4285
 3533TIP3    H232015   0.543   4.702   4.032  0.3884  0.5004 -0.6522
 3534TIP3   OH232016   3.789   2.708  13.021  0.5032  0.4145 -0.2123
 3534TIP3    H132017   3.853   2.772  13.051 -0.1346  1.8255 -1.7811
 3534TIP3    H232018   3.810   2.694  12.928 -0.6418 -0.0982 -0.4078
 3535TIP3   OH232019   0.336   5.872   0.615 -0.0911 -0.3518 -0.3548
 3535TIP3    H132020   0.409   5.832   0.567 -1.3845 -3.1225 -0.0992
 3535TIP3    H232021   0.267   5.882   0.550 -0.3231 -0.0026 -0.0580
 3536TIP3   OH232022   3.473   5.118  12.809  0.1530 -0.2654  0.1817
 3536TIP3    H132023   3.380   5.093  12.809 -0.0242  0.3302  1.5782
 3536TIP3    H232024   3.518   5.043  12.847  0.4156 -1.0531 -1.6086
 3537TIP3   OH232025   4.876   0.168   4.574 -0.3044  0.3666  0.2553
 3537TIP3    H132026   4.804   0.117   4.536 -0.1746 -0.9752  1.7755
 3537TIP3    H232027   4.955   0.119   4.551 -0.1949 -0.2796  1.9493
 3538TIP3   OH232028   6.360   1.040  16.150 -0.4941  0.3584 -0.7327
 3538TIP3    H132029   6.326   1.128  16.129 -0.2508  1.0141  1.4890
 3538TIP3    H232030   6.455   1.052  16.154 -0.5865  0.4504  1.5090
 3539TIP3   OH232031   3.690   6.750   6.102  0.2818 -1.0498  0.3820
 3539TIP3    H132032   3.643   6.829   6.129  0.9223 -0.8796  1.0033
 3539TIP3    H232033   3.670   6.686   6.170  0.0742 -1.3089  0.0784
 3540TIP3   OH232034   4.921   6.650  11.345 -0.1134 -0.2830 -0.4873
 3540TIP3    H132035   4.981   6.609  11.407  1.9504  1.0743 -1.5124
 3540TIP3    H232036   4.928   6.598  11.266  1.5371  1.2112 -1.3671
 3541TIP3   OH232037   0.951   5.501  16.646  0.1359  0.5879  0.0296
 3541TIP3    H132038   0.894   5.431  16.613 -2.7725  2.6347  0.5407
 3541TIP3    H232039   0.983   5.468  16.730  0.8442 -1.1647 -0.9076
 3542TIP3   OH232040   5.274   3.289   6.011 -0.1406  0.2848 -0.3417
 3542TIP3    H132041   5.294   3.198   5.988 -0.2522  0.0709  0.4141
 3542TIP3    H232042   5.189   3.285   6.054 -0.7441  0.9103 -1.4409
 3543TIP3   OH232043   4.971   6.109  12.940 -0.1609  0.0052  0.0551
 3543TIP3    H132044   4.959   6.153  13.025 -1.2649  0.4686 -0.3222
 3543TIP3    H232045   5.064   6.117  12.922  0.0745 -0.0276  1.1924
 3544TIP3   OH232046   0.131   0.997  16.473  0.1321 -0.6118  0.0462
 3544TIP3    H132047   0.222   1.026  16.477  0.2183 -0.2890 -3.4498
 3544TIP3    H232048   0.083   1.062  16.524  1.6068  0.2313  0.3912
 3545TIP3   OH232049   1.446   3.028   4.055 -0.3125  0.4526 -0.1140
 3545TIP3    H132050   1.364   3.051   4.010 -0.2446 -1.0005 -1.0094
 3545TIP3    H232051   1.423   3.025   4.148 -1.1446  0.5579 -0.3166
 3546TIP3   OH232052   5.374   5.175  13.314  0.0435 -0.0304 -0.2639
 3546TIP3    H132053   5.281   5.197  13.316 -0.0352 -0.3722 -0.0930
 3546TIP3    H232054   5.382   5.110  13.244  0.3345  0.8077 -1.0269
 3547TIP3   OH232055   6.648   1.538  14.082 -0.2457  0.1732  0.4070
 3547TIP3    H132056   6.713   1.484  14.037 -0.0790  1.8812 -1.4933
 3547TIP3    H232057   6.681   1.545  14.172  1.5721  0.0075 -0.2151
 3548TIP3   OH232058   0.127   0.242   1.155  0.5594 -0.6421 -0.1338
 3548TIP3    H132059   0.128   0.331   1.189 -0.5392  0.2854 -2.4544
 3548TIP3    H232060   0.150   0.188   1.231 -0.8891  1.4155  1.8596
 3549TIP3   OH232061   0.649   5.404  11.775  0.5361 -0.1264 -0.7071
 3549TIP3    H132062   0.609   5.328  11.816  0.4249  0.7864  0.9075
 3549TIP3    H232063   0.592   5.477  11.799  2.4864  0.9996  0.5778
 3550TIP3   OH232064   5.316   4.289  13.458 -0.2424 -0.9697 -0.4218
 3550TIP3    H132065   5.295   4.298  13.365 -0.1385 -1.7871 -0.5284
 3550TIP3    H232066   5.326   4.195  13.471 -0.2693 -0.8584  0.4215
 3551TIP3   OH232067   6.553   4.649  13.132 -0.6266 -0.1168 -0.1035
 3551TIP3    H132068   6.562   4.558  13.160 -0.8947 -0.5743 -1.4802
 3551TIP3    H232069   6.462   4.655  13.102 -0.1124  0.1460 -1.6229
 3552TIP3   OH232070   2.655   1.185  11.040 -0.1956  0.3494 -0.0410
 3552TIP3    H132071   2.571   1.193  10.995 -0.8751 -0.0607  1.1175
 3552TIP3    H232072   2.671   1.091  11.046  0.6824  0.4420 -0.8498
 3553TIP3   OH232073   6.725   6.565   5.507 -0.2704 -0.7678 -0.1643
 3553TIP3    H132074   6.748   6.551   5.599  0.8265 -1.3211 -0.5087
 3553TIP3    H232075   6.722   6.660   5.497  2.0929 -0.6695 -0.1505
 3554TIP3   OH232076   2.551   5.429   1.205 -0.0596 -0.2416  0.0863
 3554TIP3    H132077   2.576   5.435   1.113  1.5407 -0.4397  0.4829
 3554TIP3    H232078   2.502   5.347   1.211  1.6049 -1.2834 -0.2185
 3555TIP3   OH232079   5.073   0.496  15.040  0.2826 -0.2337  0.4261
 3555TIP3    H132080   5.118   0.516  14.958 -2.0840 -1.5579 -1.2324
 3555TIP3    H232081   5.017   0.572  15.056 -0.9983 -0.9829 -0.4362
 3556TIP3   OH232082   6.150   3.586  12.681  0.3835 -0.0660 -0.4963
 3556TIP3    H132083   6.131   3.671  12.640 -1.9146 -0.0904  0.4120
 3556TIP3    H232084   6.154   3.525  12.608 -0.2683  0.4514 -0.9732
 3557TIP3   OH232085   1.276   4.794   2.419  0.0495  0.0034 -0.3077
 3557TIP3    H132086   1.221   4.850   2.365 -1.6764 -1.0651  0.2938
 3557TIP3    H232087   1.366   4.818   2.396 -0.6584  2.7602 -0.2752
 3558TIP3   OH232088   4.010   6.666  12.471 -0.5075  0.0846  0.5408
 3558TIP3    H132089   3.999   6.612  12.393  0.2333 -1.6434  1.6033
 3558TIP3    H232090   3.923   6.703  12.487 -0.2792  1.8614 -2.0754
 3559TIP3   OH232091   0.047   6.685   4.616 -1.0807  0.2421 -0.0032
 3559TIP3    H132092  -0.045   6.681   4.643 -1.9340  0.7646 -2.6556
 3559TIP3    H232093   0.046   6.741   4.538  1.5794  0.6933  0.2439
 3560TIP3   OH232094   1.719   4.426   3.235  0.0793  0.0427  0.3407
 3560TIP3    H132095   1.648   4.386   3.185 -1.0935  0.7141  1.4349
 3560TIP3    H232096   1.787   4.442   3.170 -1.2933  0.6176 -1.0126
 3561TIP3   OH232097   1.604   1.702   1.033 -0.6212 -0.0197  0.0881
 3561TIP3    H132098   1.591   1.758   1.110  0.1852 -0.0868  0.2875
 3561TIP3    H232099   1.599   1.761   0.958 -1.9776 -0.0438  0.1503
 3562TIP3   OH232100   5.087   5.267   2.066 -0.3473 -0.0247  0.2777
 3562TIP3    H132101   5.144   5.224   2.129 -0.4049  1.4634  1.3516
 3562TIP3    H232102   5.101   5.360   2.080 -0.5023  0.3309 -1.7824
 3563TIP3   OH232103   5.801   4.950   4.838  0.1309  0.2290 -0.6315
 3563TIP3    H132104   5.849   4.947   4.756  0.2139 -1.5409 -0.5356
 3563TIP3    H232105   5.777   5.042   4.849  2.9380  1.0597 -1.0076
 3564TIP3   OH232106   2.157   2.317   0.036  0.8584  0.2666  0.4037
 3564TIP3    H132107   2.149   2.248   0.102 -0.6539 -0.8600 -0.9151
 3564TIP3    H232108   2.179   2.270  -0.045  2.0432  1.5597 -0.0320
 3565TIP3   OH232109   2.902   6.237   3.225 -0.4344  0.1522 -0.0995
 3565TIP3    H132110   2.952   6.210   3.148 -1.6309 -1.3053 -0.4011
 3565TIP3    H232111   2.887   6.156   3.274 -1.0420  0.8200  0.8444
 3566TIP3   OH232112   4.168   2.650   2.403 -0.9678 -0.4282 -0.5837
 3566TIP3    H132113   4.190   2.701   2.325 -0.7312  0.6051  0.1418
 3566TIP3    H232114   4.228   2.683   2.471 -1.7804 -0.6628  0.2669
 3567TIP3   OH232115   0.843   3.909  12.174  0.0671  0.1476 -0.1521
 3567TIP3    H132116   0.907   3.897  12.244 -1.2643 -1.0842  0.8901
 3567TIP3    H232117   0.759   3.917  12.219 -1.0548 -2.4493 -1.6436
 3568TIP3   OH232118   2.696   3.701   3.422  0.2652  0.1229 -0.2132
 3568TIP3    H132119   2.784   3.686   3.455 -0.1049  0.8708  1.1377
 3568TIP3    H232120   2.638   3.678   3.495 -0.6307  0.3243 -0.8448
 3569TIP3   OH232121   0.804   2.520  14.124  0.0977 -0.3680 -0.1582
 3569TIP3    H132122   0.874   2.498  14.063  0.2986  0.2706 -0.1556
 3569TIP3    H232123   0.733   2.553  14.069  0.6580  1.1921  0.0255
 3570TIP3   OH232124   5.365   4.981   3.002  0.5038 -0.2035  0.0844
 3570TIP3    H132125   5.459   4.968   3.010  1.1001  2.8352 -0.9017
 3570TIP3    H232126   5.340   5.031   3.080 -0.6462 -2.4969  1.2173
 3571TIP3   OH232127   2.764   0.329   5.498  0.5162  0.4456  0.2170
 3571TIP3    H132128   2.815   0.382   5.437  0.3747 -0.3995 -0.6362
 3571TIP3    H232129   2.708   0.274   5.443 -0.6691  0.7139  1.1287
 3572TIP3   OH232130   6.694   2.854  16.212 -0.1019 -0.1060 -0.0908
 3572TIP3    H132131   6.643   2.774  16.227 -0.7261  0.2994 -0.0180
 3572TIP3    H232132   6.769   2.846  16.272  0.6139 -1.3045 -1.1328
 3573TIP3   OH232133   4.716   4.434  16.431 -0.0275 -0.7297 -0.5958
 3573TIP3    H132134   4.698   4.400  16.344 -2.2205 -1.4157  0.0806
 3573TIP3    H232135   4.740   4.357  16.483  0.8433 -0.3887 -0.4945
 3574TIP3   OH232136   2.944   6.673  14.791  0.2964  0.4388  0.3022
 3574TIP3    H132137   2.921   6.683  14.884  0.9022 -0.7431  0.5838
 3574TIP3    H232138   2.899   6.594  14.764  1.9445 -0.4728  0.1816
 3575TIP3   OH232139   5.099   5.032  10.645 -0.9647 -0.0142  0.5167
 3575TIP3    H132140   5.139   4.951  10.675 -0.6853  0.2216  0.7775
 3575TIP3    H232141   5.128   5.099  10.707  1.3848  0.8973 -1.4522
 3576TIP3   OH232142   4.329   1.290  16.326  0.3831  0.0112  0.3501
 3576TIP3    H132143   4.348   1.293  16.232  1.0276 -1.0045  0.4443
 3576TIP3    H232144   4.364   1.372  16.360  2.1839 -0.6272  0.0687
 3577TIP3   OH232145   3.538   1.228  14.037  0.4590 -0.2043 -0.3663
 3577TIP3    H132146   3.554   1.275  14.119 -0.6070 -0.2113 -0.1490
 3577TIP3    H232147   3.557   1.136  14.059 -0.1728 -0.2573 -0.0194
 3578TIP3   OH232148   5.047   2.752   1.961 -0.1092  0.6394 -0.5051
 3578TIP3    H132149   5.042   2.765   2.056 -1.8572  0.0119 -0.4961
 3578TIP3    H232150   5.138   2.725   1.946  0.2194  0.8565  0.9743
 3579TIP3   OH232151   5.771   2.240  14.229  0.0864  0.3554  0.0781
 3579TIP3    H132152   5.725   2.274  14.306  0.9809  0.7682  0.4368
 3579TIP3    H232153   5.708   2.181  14.187 -0.7466  0.8734  0.5920
 3580TIP3   OH232154   3.470   2.316   4.299 -0.1007  0.3407  0.1001
 3580TIP3    H132155   3.426   2.384   4.351 -1.1298 -0.6593  0.5544
 3580TIP3    H232156   3.546   2.360   4.262  0.9578  0.9075  2.8862
 3581TIP3   OH232157   6.639   2.749   3.832  0.6643 -0.0573 -0.0147
 3581TIP3    H132158   6.549   2.783   3.834  0.3620 -0.8323 -0.2567
 3581TIP3    H232159   6.684   2.797   3.901 -0.6822 -1.7294  2.0890
 3582TIP3   OH232160   4.752   6.259  11.901  0.1683  0.0434  0.3096
 3582TIP3    H132161   4.688   6.257  11.972 -1.0853  0.2103 -0.7924
 3582TIP3    H232162   4.785   6.169  11.896  0.8370  0.2004  1.5906
 3583TIP3   OH232163   1.711   0.468  11.875  0.3110  0.4414  0.3139
 3583TIP3    H132164   1.640   0.526  11.848 -1.1239 -1.1550  0.5644
 3583TIP3    H232165   1.786   0.526  11.890 -0.3921  1.9569 -1.7992
 3584TIP3   OH232166   4.363   5.735   1.950 -0.4492  0.3589  0.4037
 3584TIP3    H132167   4.418   5.744   1.872  0.0973  1.5053  0.9120
 3584TIP3    H232168   4.353   5.640   1.962 -0.6180  0.1776 -1.1107
 3585TIP3   OH232169   2.006   5.958  14.209 -0.6041  0.7628 -0.2325
 3585TIP3    H132170   1.973   5.945  14.120 -1.0993  0.7059 -0.0424
 3585TIP3    H232171   1.954   6.030  14.244 -3.0339 -1.5929  1.2850
 3586TIP3   OH232172   3.189   5.559   3.043 -0.1457 -0.8346  0.2046
 3586TIP3    H132173   3.119   5.576   2.980 -0.9660 -2.4294  0.6415
 3586TIP3    H232174   3.159   5.601   3.124 -0.4791 -1.2675  0.3111
 3587TIP3   OH232175   4.021   5.838  13.796  0.6245 -0.4229  0.1593
 3587TIP3    H132176   4.063   5.923  13.809  2.2434 -1.3333  1.0139
 3587TIP3    H232177   4.089   5.784  13.756 -0.6998 -1.0469 -1.2996
 3588TIP3   OH232178   2.301   6.503   3.186  0.3586  0.3889 -0.3436
 3588TIP3    H132179   2.247   6.582   3.183  0.0286  0.2032  0.4163
 3588TIP3    H232180   2.375   6.526   3.242 -0.8489 -0.4807  1.6956
 3589TIP3   OH232181   6.478   3.872  11.917  0.1395  0.3194  0.2579
 3589TIP3    H132182   6.433   3.882  12.001  0.0383 -1.4188  0.4318
 3589TIP3    H232183   6.555   3.929  11.924  1.3404 -1.4995  2.4182
 3590TIP3   OH232184   3.763   3.596   2.144  0.1697  0.5260 -0.1771
 3590TIP3    H132185   3.764   3.598   2.049 -0.1550 -0.7156 -0.2170
 3590TIP3    H232186   3.844   3.640   2.170  0.5180  0.3878 -1.0340
 3591TIP3   OH232187   0.170   6.310  10.611 -0.4821  0.0041  0.5859
 3591TIP3    H132188   0.110   6.242  10.579 -0.7625 -0.1030  1.3153
 3591TIP3    H232189   0.255   6.284  10.578 -0.6028 -0.6677  0.7906
 3592TIP3   OH232190   3.166   2.131   5.317  0.2130 -0.2840 -0.3145
 3592TIP3    H132191   3.114   2.123   5.397 -1.1642 -0.1044 -1.1889
 3592TIP3    H232192   3.162   2.045   5.276  2.3760 -0.9033  0.6622
 3593TIP3   OH232193   2.447   1.256  15.635 -0.4089  0.3115 -0.5548
 3593TIP3    H132194   2.437   1.188  15.701 -0.4761  0.5066 -0.3633
 3593TIP3    H232195   2.523   1.228  15.584 -1.0036 -0.3864 -1.0649
 3594TIP3   OH232196   6.225   4.264  15.294 -0.0956 -0.1704 -0.8312
 3594TIP3    H132197   6.279   4.302  15.364  1.0340 -0.7378 -1.3726
 3594TIP3    H232198   6.146   4.318  15.293  0.1209  0.2032  0.4977
 3595TIP3   OH232199   6.270   1.603   5.770 -0.0933  0.1463 -0.2196
 3595TIP3    H132200   6.307   1.690   5.753 -2.1257  1.1622  0.3038
 3595TIP3    H232201   6.182   1.621   5.803 -1.0339 -2.1581 -1.3366
 3596TIP3   OH232202   2.162   2.393  13.210  0.0540 -0.1823  0.1729
 3596TIP3    H132203   2.235   2.350  13.252  0.2544  1.5014  1.5969
 3596TIP3    H232204   2.199   2.472  13.171 -0.9495  0.5565  0.6876
 3597TIP3   OH232205   1.477   6.415  13.861  0.0175  0.6245  0.1503
 3597TIP3    H132206   1.477   6.419  13.766 -1.8730  4.4620  0.2113
 3597TIP3    H232207   1.564   6.444  13.887  0.4546 -0.2011 -0.3693
 3598TIP3   OH232208   1.967   1.476   4.853  0.5799 -0.0260  0.0435
 3598TIP3    H132209   2.047   1.481   4.801  1.5393 -0.5495  1.4240
 3598TIP3    H232210   1.955   1.382   4.870 -0.0339  0.0952  0.2840
 3599TIP3   OH232211   1.340   1.163  13.706 -0.1437 -1.0088 -0.5646
 3599TIP3    H132212   1.381   1.122  13.631 -0.7811 -0.8812 -0.9873
 3599TIP3    H232213   1.401   1.232  13.732  1.0649 -2.3934  0.3255
 3600TIP3   OH232214   5.900   3.940   0.932 -0.1359 -0.5006 -0.1446
 3600TIP3    H132215   5.992   3.923   0.956  0.6713  3.2976 -0.3117
 3600TIP3    H232216   5.870   4.004   0.996 -1.7191  0.6483 -1.9991
 3601TIP3   OH232217   1.408   2.151  13.708 -0.0951  0.0911 -0.0959
 3601TIP3    H132218   1.449   2.169  13.623  0.1829  0.1596  0.0507
 3601TIP3    H232219   1.457   2.077  13.744  1.8833  2.0397  1.4003
 3602TIP3   OH232220   3.247   4.174  11.676  0.4794  0.1885  0.3088
 3602TIP3    H132221   3.327   4.197  11.723  0.9332 -0.3792 -0.1767
 3602TIP3    H232222   3.178   4.224  11.720  0.9346 -0.1357  1.4058
 3603TIP3   OH232223   5.197   4.843  10.868 -0.4365  0.0660  0.0430
 3603TIP3    H132224   5.244   4.760  10.877 -0.3437  0.1732  0.5630
 3603TIP3    H232225   5.264   4.910  10.880 -0.0007  0.2575 -2.9249
 3604TIP3   OH232226   4.073   0.551  13.684 -0.0604  0.3359  0.2005
 3604TIP3    H132227   4.034   0.526  13.768  0.2802 -0.5636  0.0949
 3604TIP3    H232228   4.143   0.611  13.707 -0.6352  0.9023  0.4890
 3605TIP3   OH232229   3.492   2.882   6.128  0.1361  0.1708  0.7313
 3605TIP3    H132230   3.504   2.977   6.128  0.0480  0.1905  1.6054
 3605TIP3    H232231   3.399   2.870   6.147  0.5385 -0.1101  2.6140
 3606TIP3   OH232232   5.612   4.567  14.951  0.4403 -0.0466 -0.5507
 3606TIP3    H132233   5.701   4.563  14.986 -0.3727 -2.6635  1.3938
 3606TIP3    H232234   5.569   4.489  14.986 -2.3837  0.7220 -2.1415
 3607TIP3   OH232235   1.089   4.206   1.045  0.0428  0.0002 -0.7884
 3607TIP3    H132236   1.118   4.169   0.962  1.9521 -1.7914  0.6308
 3607TIP3    H232237   1.163   4.259   1.075 -1.0994  1.6411 -0.7984
 3608TIP3   OH232238   5.218   5.575   0.150  0.5568  0.1295 -0.6721
 3608TIP3    H132239   5.175   5.490   0.141  0.9034 -0.0423 -0.7185
 3608TIP3    H232240   5.267   5.568   0.232  0.2513  0.4343 -0.4598
 3609TIP3   OH232241   2.854   2.043  15.140 -0.1130  0.4261  0.6815
 3609TIP3    H132242   2.883   2.112  15.199 -0.4215 -0.9149  2.4487
 3609TIP3    H232243   2.787   1.996  15.190 -1.0262 -0.1963 -1.0792
 3610TIP3   OH232244   2.338   5.358   2.690 -0.2083  0.3588  0.0146
 3610TIP3    H132245   2.423   5.316   2.676 -1.0085 -0.8008 -1.5216
 3610TIP3    H232246   2.275   5.286   2.689 -1.3244  1.3202 -0.0058
 3611TIP3   OH232247   6.766   6.526   5.087  0.0386 -0.1869  0.3449
 3611TIP3    H132248   6.686   6.558   5.128  0.4359 -0.4508  1.3425
 3611TIP3    H232249   6.766   6.432   5.104 -0.1776 -0.4207 -0.9337
 3612TIP3   OH232250   2.784   3.492   1.642  0.0917 -0.0139  0.5861
 3612TIP3    H132251   2.752   3.582   1.645 -2.0340 -0.7470  1.1611
 3612TIP3    H232252   2.723   3.448   1.583 -0.2137 -1.5483  2.0029
 3613TIP3   OH232253   3.967   1.162  17.103 -0.1559  0.0920  0.3805
 3613TIP3    H132254   4.009   1.141  17.186  0.4776  0.0483  0.0540
 3613TIP3    H232255   3.971   1.258  17.097 -0.2925  0.1016  0.4508
 3614TIP3   OH232256   3.267   6.736  14.457  0.2851  0.1283  0.0209
 3614TIP3    H132257   3.257   6.641  14.467  1.9486 -0.2057 -1.1349
 3614TIP3    H232258   3.210   6.774  14.524 -1.3264 -1.6611 -0.2871
 3615TIP3   OH232259   1.805   1.644  14.205 -0.5127 -0.8077 -0.1174
 3615TIP3    H132260   1.734   1.708  14.203 -0.5193 -0.8203 -0.2748
 3615TIP3    H232261   1.884   1.695  14.186 -0.6138 -0.9773 -1.0079
 3616TIP3   OH232262   1.756   3.575  12.303 -0.5909  0.3686  0.7972
 3616TIP3    H132263   1.755   3.661  12.260  0.2562 -0.0796 -0.1312
 3616TIP3    H232264   1.676   3.533  12.274 -0.9650  0.8067  1.1824
 3617TIP3   OH232265   2.644   5.543  15.395  0.7441 -0.0420 -0.0217
 3617TIP3    H132266   2.738   5.555  15.382  0.5874  1.2297 -0.0207
 3617TIP3    H232267   2.614   5.495  15.317  1.2323  0.3414 -0.4437
 3618TIP3   OH232268   5.803   4.947  11.328 -0.4167  0.4369  0.0746
 3618TIP3    H132269   5.758   4.894  11.262 -1.4570  0.8496  0.4394
 3618TIP3    H232270   5.732   4.994  11.373  0.2804  0.0208  1.6037
 3619TIP3   OH232271   4.037   5.816   3.514  0.2779  0.0920 -0.0939
 3619TIP3    H132272   3.949   5.850   3.531 -0.1660  0.2099 -2.4533
 3619TIP3    H232273   4.083   5.824   3.598 -1.6733  0.8820  0.9213
 3620TIP3   OH232274   3.856   4.251  15.082 -0.3390  0.4753  0.3587
 3620TIP3    H132275   3.825   4.274  15.169  1.1790 -0.6948  1.2279
 3620TIP3    H232276   3.941   4.295  15.074  0.7889 -1.6003  0.5407
 3621TIP3   OH232277   1.611   3.302   3.535 -0.2012 -0.2264  1.0354
 3621TIP3    H132278   1.572   3.220   3.504 -0.4915  0.6509 -0.9850
 3621TIP3    H232279   1.632   3.350   3.456  1.1423  1.1278  2.1887
 3622TIP3   OH232280   1.100   2.580   3.195 -0.1950 -0.5622  0.1559
 3622TIP3    H132281   1.101   2.676   3.204 -1.2384 -0.3917 -1.3694
 3622TIP3    H232282   1.008   2.556   3.209 -0.2033 -1.1789 -0.9130
 3623TIP3   OH232283   5.119   0.096  12.683 -0.4006  0.0840 -0.1922
 3623TIP3    H132284   5.151   0.179  12.647  0.8531 -0.3794 -0.1849
 3623TIP3    H232285   5.119   0.109  12.777 -1.9275  0.6739 -0.2586
 3624TIP3   OH232286   0.653   4.492  14.397  0.0813  0.1659 -0.0749
 3624TIP3    H132287   0.735   4.442  14.400 -0.9169 -1.5518 -0.6763
 3624TIP3    H232288   0.617   4.486  14.485 -0.1998 -0.4548 -0.2324
 3625TIP3   OH232289   3.378   1.963  11.549 -0.6511  0.1722  0.8064
 3625TIP3    H132290   3.304   2.019  11.572 -0.2218  0.2306  2.0423
 3625TIP3    H232291   3.352   1.875  11.576 -1.6840 -0.4160 -1.9176
 3626TIP3   OH232292   4.702   1.435   3.269  0.0626 -0.0783 -0.0087
 3626TIP3    H132293   4.739   1.486   3.341  1.2593 -0.6021 -0.2467
 3626TIP3    H232294   4.611   1.419   3.295  0.6832 -0.8763  1.7208
 3627TIP3   OH232295   3.235   1.634   2.244  0.4366 -0.3660 -0.8525
 3627TIP3    H132296   3.291   1.577   2.297 -1.0757 -0.8515  0.2594
 3627TIP3    H232297   3.261   1.615   2.153  2.1729 -0.4455 -0.3707
 3628TIP3   OH232298   6.035   2.817  11.358 -0.1531 -0.1800  0.4864
 3628TIP3    H132299   6.026   2.912  11.364  0.3600 -0.1828  1.3322
 3628TIP3    H232300   5.950   2.783  11.388  0.5144 -0.0445  2.5681
 3629TIP3   OH232301   1.745   1.870   4.153  0.2741  0.0269 -0.2440
 3629TIP3    H132302   1.685   1.856   4.226  0.8781 -1.3635 -0.0078
 3629TIP3    H232303   1.817   1.921   4.189  1.1542 -1.6666  0.4353
 3630TIP3   OH232304   2.840   6.450  15.326 -0.5118 -0.0238 -0.5869
 3630TIP3    H132305   2.871   6.531  15.365  0.9757  0.3213 -2.4105
 3630TIP3    H232306   2.916   6.392  15.326 -0.9438 -0.6034 -1.4068
 3631TIP3   OH232307   1.640   1.199  15.157 -0.3309  0.3104  0.3254
 3631TIP3    H132308   1.643   1.168  15.248 -1.2230 -2.1813 -0.4725
 3631TIP3    H232309   1.548   1.192  15.132 -0.4106  2.7970 -0.1902
 3632TIP3   OH232310   3.834   5.441  13.363 -0.3322  0.2492 -0.0486
 3632TIP3    H132311   3.845   5.509  13.297 -0.5660  1.5677  1.2461
 3632TIP3    H232312   3.889   5.469  13.436 -1.5766 -0.1723  1.0755
 3633TIP3   OH232313   2.029   6.629   0.341 -0.3057  0.0293  0.2155
 3633TIP3    H132314   1.953   6.666   0.296  0.8181  1.3376 -0.6229
 3633TIP3    H232315   2.037   6.541   0.304 -1.0863  0.0819 -0.0959
 3634TIP3   OH232316   4.484   0.116   0.004 -0.2556  0.3410 -0.1979
 3634TIP3    H132317   4.476   0.094   0.097  0.2339  1.2394  0.0658
 3634TIP3    H232318   4.537   0.046  -0.033  0.7350  0.6996  0.4960
 3635TIP3   OH232319   0.440   6.553   4.521 -0.1425  0.0139  0.0916
 3635TIP3    H132320   0.401   6.542   4.435 -2.2626 -1.6328  1.2044
 3635TIP3    H232321   0.532   6.527   4.510  0.1269  1.7731 -2.0845
 3636TIP3   OH232322   3.488   0.823  10.823 -0.1284  0.1264  0.9301
 3636TIP3    H132323   3.539   0.884  10.770 -1.1458 -0.8294 -1.2203
 3636TIP3    H232324   3.404   0.815  10.777 -1.0119 -0.8324  2.6260
 3637TIP3   OH232325   4.324   0.628  16.610  0.0742 -0.3363 -0.5794
 3637TIP3    H132326   4.229   0.630  16.595 -0.2486 -1.6997  1.1836
 3637TIP3    H232327   4.346   0.718  16.637 -0.6340  0.0885 -1.3779
 3638TIP3   OH232328   1.818   3.189   4.327  0.1714  0.4968  0.1510
 3638TIP3    H132329   1.801   3.155   4.239 -0.7011 -1.0257  0.8714
 3638TIP3    H232330   1.736   3.231   4.353 -0.1033 -0.3947  0.7918
 3639TIP3   OH232331   3.421   1.602  15.381 -0.0783  1.0365  0.4654
 3639TIP3    H132332   3.374   1.553  15.448 -1.4000 -0.3336 -1.4234
 3639TIP3    H232333   3.496   1.547  15.360 -1.6273 -0.2942 -1.7417
 3640TIP3   OH232334   5.572   1.844   2.838  0.2230 -0.0423 -0.7755
 3640TIP3    H132335   5.552   1.751   2.847  1.4967 -0.3140 -0.7180
 3640TIP3    H232336   5.487   1.885   2.820 -0.2038 -1.3289 -1.7374
 3641TIP3   OH232337   3.327   4.747  16.788 -0.1755  0.6083 -0.0002
 3641TIP3    H132338   3.337   4.660  16.747 -1.2951 -0.9683  2.9637
 3641TIP3    H232339   3.268   4.794  16.729  0.4137 -0.6188 -1.6379
 3642TIP3   OH232340   0.544   2.319  13.221 -0.7143  0.0184  0.5430
 3642TIP3    H132341   0.496   2.268  13.156 -0.5273 -1.8390  1.8168
 3642TIP3    H232342   0.477   2.371  13.266 -0.8710  1.1180 -0.9412
 3643TIP3   OH232343   6.756   0.749  15.892 -0.2758 -0.2450  0.1753
 3643TIP3    H132344   6.736   0.839  15.866 -0.5089  0.3206  2.2285
 3643TIP3    H232345   6.849   0.749  15.912 -0.9211  0.4182  3.4450
 3644TIP3   OH232346   1.330   3.491   0.309 -0.3555 -0.0087  0.1900
 3644TIP3    H132347   1.405   3.434   0.293 -0.1976 -0.2475  1.7560
 3644TIP3    H232348   1.353   3.574   0.266 -0.1404 -0.7717 -1.1896
 3645TIP3   OH232349   1.037   3.328  14.194  0.2861  0.4007  0.0540
 3645TIP3    H132350   1.077   3.243  14.179 -0.2569 -0.0334  1.0116
 3645TIP3    H232351   1.011   3.358  14.106  0.4691 -0.4210 -0.2868
 3646TIP3   OH232352   5.268   6.076  15.464  0.4485 -0.0938 -0.3169
 3646TIP3    H132353   5.293   6.108  15.551 -0.0044 -0.5065 -0.0297
 3646TIP3    H232354   5.191   6.127  15.441 -0.4504 -1.1543  0.2671
 3647TIP3   OH232355   2.520   3.826   4.868 -0.1699 -0.1683 -0.3745
 3647TIP3    H132356   2.514   3.921   4.878  0.1446  0.0049 -1.6471
 3647TIP3    H232357   2.587   3.814   4.800 -0.6776 -1.2680 -0.6903
 3648TIP3   OH232358   4.805   6.543   2.773  0.0788 -0.5673 -0.0651
 3648TIP3    H132359   4.784   6.510   2.861  0.4371  0.2043  0.3153
 3648TIP3    H232360   4.891   6.582   2.782 -0.8092  1.4758 -0.2353
 3649TIP3   OH232361   2.550   1.519  16.773 -0.5123  0.5698  0.3023
 3649TIP3    H132362   2.532   1.498  16.682 -1.0205  0.8960  0.3266
 3649TIP3    H232363   2.537   1.436  16.820  2.7062 -0.3386 -0.3045
 3650TIP3   OH232364   4.444   4.905   1.677  0.0765  0.0062  0.2786
 3650TIP3    H132365   4.386   4.956   1.734 -0.5032 -1.7456  1.2749
 3650TIP3    H232366   4.419   4.814   1.692  1.3993 -0.6187 -1.1617
 3651TIP3   OH232367   3.235   2.455  13.805 -0.2890 -0.5368  0.2925
 3651TIP3    H132368   3.318   2.438  13.849 -0.4463  0.2389  0.8888
 3651TIP3    H232369   3.205   2.368  13.777 -0.3127 -1.0629  1.9184
 3652TIP3   OH232370   5.960   1.670  12.913 -0.4045  0.5735  0.7696
 3652TIP3    H132371   5.934   1.581  12.890 -1.5935  0.7451  1.3977
 3652TIP3    H232372   5.928   1.723  12.839  0.9223  0.3973  0.0620
 3653TIP3   OH232373   6.619   5.120  16.890  0.2548  0.4461 -0.8428
 3653TIP3    H132374   6.707   5.091  16.870  0.1357  0.2624 -1.0971
 3653TIP3    H232375   6.584   5.052  16.948  0.2642  0.4923 -0.7808
 3654TIP3   OH232376   2.335   0.460  15.729 -0.1528 -0.6823 -0.1087
 3654TIP3    H132377   2.382   0.386  15.689  0.9663  0.4559 -0.9465
 3654TIP3    H232378   2.326   0.523  15.658 -1.9476 -0.3895  0.3551
 3655TIP3   OH232379   6.192   3.374   0.100 -0.1150 -0.1329 -0.2311
 3655TIP3    H132380   6.262   3.424   0.143 -1.1387 -0.0958  1.4496
 3655TIP3    H232381   6.218   3.370   0.008  2.6098 -0.9980  0.5313
 3656TIP3   OH232382   3.004   5.263  17.176 -0.1389  0.0505  0.8233
 3656TIP3    H132383   2.983   5.248  17.268  0.9993 -0.0606  1.0707
 3656TIP3    H232384   3.097   5.285  17.175  0.2727 -1.6356 -0.4737
 3657TIP3   OH232385   3.942   5.185   5.695 -0.6630 -0.2385 -0.3202
 3657TIP3    H132386   3.920   5.214   5.784 -1.8033  1.9205 -1.2868
 3657TIP3    H232387   4.030   5.149   5.703 -1.2244 -1.2031  1.9335
 3658TIP3   OH232388   2.022   3.623   3.102 -0.4518  0.9320 -0.2051
 3658TIP3    H132389   2.104   3.588   3.066 -0.9173 -0.6787  0.2477
 3658TIP3    H232390   1.981   3.666   3.027 -0.6291 -0.9529 -1.2221
 3659TIP3   OH232391   4.158   3.661   3.075  0.6362  0.0200 -0.2601
 3659TIP3    H132392   4.138   3.618   3.159 -0.9715 -1.4749 -1.3712
 3659TIP3    H232393   4.200   3.593   3.023 -1.8530 -0.2353 -2.0078
 3660TIP3   OH232394   3.713   0.086   4.326  0.2151 -0.0144 -0.3298
 3660TIP3    H132395   3.626   0.124   4.315 -0.3020 -1.5811 -1.7573
 3660TIP3    H232396   3.713   0.007   4.272  2.6174  0.0947 -0.5662
 3661TIP3   OH232397   0.908   4.207   2.148 -0.0803 -0.6781 -0.1258
 3661TIP3    H132398   0.957   4.133   2.111  0.5855 -0.4499  0.2870
 3661TIP3    H232399   0.853   4.237   2.076  1.1354 -0.3054 -0.9230
 3662TIP3   OH232400   5.584   1.886  11.214  0.5075 -0.1166 -0.2062
 3662TIP3    H132401   5.582   1.792  11.194 -0.4164 -0.3001  0.7317
 3662TIP3    H232402   5.512   1.923  11.164  1.4824  0.2691 -1.3626
 3663TIP3   OH232403   2.549   0.346  12.219  0.2459  0.2011 -0.1760
 3663TIP3    H132404   2.616   0.285  12.190  0.3544 -0.7067  1.9424
 3663TIP3    H232405   2.524   0.394  12.139  1.6779 -1.1023 -1.4267
 3664TIP3   OH232406   3.357   5.464  14.157 -0.1197 -0.0667 -0.0696
 3664TIP3    H132407   3.419   5.512  14.102 -0.0173  0.6495  0.6602
 3664TIP3    H232408   3.351   5.516  14.237 -0.7891 -0.7409  0.3212
 3665TIP3   OH232409   5.864   1.554  12.554 -0.4877 -0.2660 -0.0801
 3665TIP3    H132410   5.870   1.640  12.596 -0.2800  0.3493 -1.3739
 3665TIP3    H232411   5.953   1.517  12.562 -0.6936 -0.5733  0.8967
 3666TIP3   OH232412   4.915   5.396  16.383  0.5030 -0.1277  0.3234
 3666TIP3    H132413   4.866   5.471  16.350 -0.1238 -1.2789 -1.4611
 3666TIP3    H232414   4.849   5.341  16.424  0.4503 -1.1306 -1.0632
 3667TIP3   OH232415   5.320   4.628   5.741  0.2892  0.2409  0.1150
 3667TIP3    H132416   5.292   4.665   5.657 -0.7373  0.9478  0.7671
 3667TIP3    H232417   5.316   4.533   5.728  2.8317  0.3059 -1.5303
 3668TIP3   OH232418   6.301   3.011  13.195  0.2604 -0.6521  0.0451
 3668TIP3    H132419   6.247   2.953  13.249  0.5598  0.7232  1.8675
 3668TIP3    H232420   6.239   3.052  13.135 -0.6631  0.4602  1.7235
 3669TIP3   OH232421   5.609   5.754   0.875  0.4265 -0.6756 -0.3184
 3669TIP3    H132422   5.665   5.731   0.950  1.5021 -0.0097 -0.8960
 3669TIP3    H232423   5.671   5.777   0.806 -0.5729 -0.5879 -1.1925
 3670TIP3   OH232424   5.943   4.998  16.997 -0.1787  0.3960  0.2069
 3670TIP3    H132425   5.913   5.038  17.079  1.3380 -0.6415  1.2943
 3670TIP3    H232426   5.986   4.917  17.023  1.8157  0.8554 -1.4378
 3671TIP3   OH232427   4.021   2.913  12.876  0.4621 -0.5170 -0.0745
 3671TIP3    H132428   4.006   2.915  12.970 -0.3357 -0.3195 -0.1970
 3671TIP3    H232429   4.060   2.998  12.855 -1.1502  0.2084 -0.1997
 3672TIP3   OH232430   4.812   0.787   3.697  0.0886 -0.1567  0.5529
 3672TIP3    H132431   4.896   0.780   3.742  0.9379 -0.0859 -0.9614
 3672TIP3    H232432   4.795   0.881   3.694 -0.3769 -0.2079  1.4361
 3673TIP3   OH232433   4.108   2.168  12.212 -0.3467 -0.3575  0.0992
 3673TIP3    H132434   4.110   2.188  12.306  1.2532 -0.1746  0.0447
 3673TIP3    H232435   4.143   2.079  12.207 -0.9995 -0.5958 -0.2801
 3674TIP3   OH232436   3.110   3.192   1.135  0.2648 -0.1345 -0.1772
 3674TIP3    H132437   3.022   3.227   1.146  0.4360  0.6150 -1.0857
 3674TIP3    H232438   3.106   3.146   1.051  0.5006 -0.8410  0.2007
 3675TIP3   OH232439   0.462   4.142  12.920  1.1171 -0.1020  0.0136
 3675TIP3    H132440   0.520   4.172  12.990 -1.3631 -0.4631  2.3218
 3675TIP3    H232441   0.387   4.202  12.924  0.1526 -1.1968 -1.2072
 3676TIP3   OH232442   1.327   4.988  11.411  0.5494  0.5601  0.7954
 3676TIP3    H132443   1.374   4.910  11.441  0.8438  1.1632  1.9426
 3676TIP3    H232444   1.234   4.965  11.419  0.6368 -0.0015  0.2287
 3677TIP3   OH232445   2.318   4.599   5.928  0.2895 -0.6740  0.1774
 3677TIP3    H132446   2.408   4.627   5.908 -0.3643  0.8262 -0.7401
 3677TIP3    H232447   2.326   4.547   6.007  1.7685  0.8026  1.0238
 3678TIP3   OH232448   6.154   4.186   2.641 -0.0063 -0.0206 -0.2372
 3678TIP3    H132449   6.171   4.130   2.566  1.1262 -0.2776  0.2136
 3678TIP3    H232450   6.159   4.128   2.717  1.5813  0.7511  0.2663
 3679TIP3   OH232451   1.982   5.543   4.307  0.5030 -0.3208 -0.1528
 3679TIP3    H132452   2.036   5.619   4.288  2.1561 -1.3019  0.5596
 3679TIP3    H232453   1.987   5.489   4.229  0.7986 -0.5577  0.0293
 3680TIP3   OH232454   0.571   2.259   0.461  0.2109  0.3301 -0.6793
 3680TIP3    H132455   0.660   2.243   0.429  0.0308 -0.0696 -0.9917
 3680TIP3    H232456   0.580   2.271   0.555  0.7479  1.4448 -0.8579
 3681TIP3   OH232457   3.338   6.248  11.663 -0.1673 -0.5516 -0.2578
 3681TIP3    H132458   3.288   6.199  11.728 -1.5394 -0.8637 -1.5028
 3681TIP3    H232459   3.381   6.318  11.712 -0.5510 -1.2543  1.0846
 3682TIP3   OH232460   0.482   2.847   3.027 -0.2559 -0.2185 -0.4080
 3682TIP3    H132461   0.390   2.853   3.053 -0.2388 -1.0229 -0.1529
 3682TIP3    H232462   0.521   2.785   3.089  0.2968 -0.4249 -0.9562
 3683TIP3   OH232463   4.813   0.517  12.004  0.2310  0.3061  0.2789
 3683TIP3    H132464   4.787   0.551  12.090  1.9533 -0.3258  1.0699
 3683TIP3    H232465   4.905   0.492  12.015  0.4388  0.1306 -1.7288
 3684TIP3   OH232466   1.925   1.064   5.326  0.0084  0.4595 -0.6619
 3684TIP3    H132467   1.901   1.000   5.259  1.4912 -1.8738  0.9537
 3684TIP3    H232468   1.845   1.077   5.377  0.1670 -1.5920  0.1528
 3685TIP3   OH232469   0.961   4.604   3.443  0.1199  0.3108 -0.4639
 3685TIP3    H132470   0.894   4.652   3.491 -0.0983 -0.3257 -0.1252
 3685TIP3    H232471   1.016   4.564   3.510 -0.0181 -0.3528 -0.7346
 3686TIP3   OH232472   2.869   2.950  16.704  0.0727 -0.3203  0.1069
 3686TIP3    H132473   2.938   2.901  16.662 -0.4357 -0.0589 -1.0429
 3686TIP3    H232474   2.791   2.933  16.651 -0.6548 -0.2767  1.1388
 3687TIP3   OH232475   0.700   6.534  13.209  0.1039  0.4070  0.0039
 3687TIP3    H132476   0.639   6.589  13.259  0.0103  0.6543 -0.3806
 3687TIP3    H232477   0.658   6.524  13.124  0.4380  0.2789 -0.1437
 3688TIP3   OH232478   5.732   4.583   3.058  0.5353  0.0498  0.4564
 3688TIP3    H132479   5.646   4.546   3.036  1.5511 -2.6287  0.8146
 3688TIP3    H232480   5.735   4.582   3.154  1.5678 -1.4094  0.4311
 3689TIP3   OH232481   5.736   5.949  15.632  0.0867  0.4428 -0.1040
 3689TIP3    H132482   5.768   5.991  15.711  0.8715 -0.6317  0.1610
 3689TIP3    H232483   5.653   5.908  15.657  0.7705 -0.6503  0.4029
 3690TIP3   OH232484   4.189   6.077  12.371 -0.0055 -0.2084  0.3239
 3690TIP3    H132485   4.205   6.146  12.436  0.5724  0.2562 -0.3037
 3690TIP3    H232486   4.270   6.027  12.370  0.1224  0.0131 -0.3101
 3691TIP3   OH232487   6.778   1.231  16.580 -0.4971 -0.3072 -0.4456
 3691TIP3    H132488   6.705   1.263  16.526 -0.4997  0.9185  0.2619
 3691TIP3    H232489   6.846   1.297  16.569 -0.6064  0.1086  1.2845
 3692TIP3   OH232490   6.688   4.812  16.518 -0.1085  0.4711  0.0157
 3692TIP3    H132491   6.660   4.750  16.585 -0.2835 -0.9917 -1.3972
 3692TIP3    H232492   6.650   4.896  16.545 -0.4905 -0.1788  1.5188
 3693TIP3   OH232493   6.450   4.370  10.279 -0.0753  0.1002  0.8357
 3693TIP3    H132494   6.522   4.325  10.323  0.8683 -0.0221 -0.7855
 3693TIP3    H232495   6.475   4.463  10.282  1.3574 -0.1437 -1.7765
 3694TIP3   OH232496   1.023   4.758  16.554 -1.0757 -0.3902  0.6454
 3694TIP3    H132497   0.932   4.789  16.558 -1.0525 -0.1839 -0.3513
 3694TIP3    H232498   1.075   4.838  16.551 -0.9911 -0.4936 -1.4374
 3695TIP3   OH232499   3.446   4.523   3.664 -0.7936  0.1326 -0.0558
 3695TIP3    H132500   3.393   4.600   3.643 -0.1450  0.2269 -1.4629
 3695TIP3    H232501   3.401   4.481   3.737 -0.3156  2.6917  1.7922
 3696TIP3   OH232502   0.024   4.109  15.319  0.6889 -0.1960  0.6436
 3696TIP3    H132503   0.046   4.190  15.274  2.9123 -1.5017 -0.6749
 3696TIP3    H232504  -0.070   4.098  15.306  0.4354  2.0033  0.5893
 3697TIP3   OH232505   1.213   2.993  16.872 -0.9435  0.3069  0.3590
 3697TIP3    H132506   1.209   3.051  16.796  1.0370  0.0841  0.0381
 3697TIP3    H232507   1.137   3.017  16.925 -1.4484  1.5856 -0.9043
 3698TIP3   OH232508   4.738   2.004   3.072  0.3248 -0.2350  0.0131
 3698TIP3    H132509   4.801   1.945   3.112  0.9862  0.5651  0.1643
 3698TIP3    H232510   4.682   2.032   3.144  0.4970 -0.0651  0.0787
 3699TIP3   OH232511   0.484   0.852   2.238 -0.0351  0.1778  0.2590
 3699TIP3    H132512   0.548   0.826   2.171  0.8666 -1.2362  1.6385
 3699TIP3    H232513   0.400   0.821   2.205  0.7471 -2.6902  0.8971
 3700TIP3   OH232514   0.747   1.781  16.991  0.1487 -0.3729 -0.3612
 3700TIP3    H132515   0.818   1.839  16.965  0.4792 -1.4208 -1.8907
 3700TIP3    H232516   0.669   1.817  16.948 -0.4548  1.3141  2.0715
 3701TIP3   OH232517   5.081   4.615   3.454 -0.2661 -0.3040  0.4945
 3701TIP3    H132518   5.132   4.688   3.488  1.0862 -0.1934 -1.6313
 3701TIP3    H232519   4.990   4.641   3.466  0.1924  1.6071  0.0848
 3702TIP3   OH232520   5.247   1.475  16.357 -0.0173  0.4104 -0.1744
 3702TIP3    H132521   5.279   1.413  16.290 -0.5830 -1.4134  1.1973
 3702TIP3    H232522   5.180   1.425  16.404  0.1183  1.8098  1.5124
 3703TIP3   OH232523   2.747   0.873   4.793  0.1478 -0.0483 -0.1997
 3703TIP3    H132524   2.766   0.955   4.839  2.5624 -1.0081  0.6426
 3703TIP3    H232525   2.744   0.807   4.863  1.5738 -1.1697 -1.1541
 3704TIP3   OH232526   5.819   2.075   3.683 -0.8579 -0.9411  0.0360
 3704TIP3    H132527   5.896   2.112   3.640 -0.5334 -0.3234  1.1236
 3704TIP3    H232528   5.754   2.066   3.612  0.2917 -1.7224 -0.9313
 3705TIP3   OH232529   1.812   4.334  16.109 -0.0469 -0.3922 -0.4742
 3705TIP3    H132530   1.832   4.338  16.202  1.9598  1.1636 -0.9282
 3705TIP3    H232531   1.799   4.241  16.090 -0.4126 -0.7115  1.3286
 3706TIP3   OH232532   2.827   1.659  16.261  0.0635 -0.2275 -0.1031
 3706TIP3    H132533   2.773   1.738  16.258 -0.2788 -0.4938 -1.3102
 3706TIP3    H232534   2.771   1.591  16.224  1.1303 -0.5692 -1.0854
 3707TIP3   OH232535   2.891   5.115   4.115  0.3407  0.0756 -0.5558
 3707TIP3    H132536   2.924   5.025   4.120  0.4269  0.1697  0.5965
 3707TIP3    H232537   2.931   5.150   4.035  0.4863 -0.8355 -0.8939
 3708TIP3   OH232538   4.544   1.804   3.414 -0.0461  0.1674 -0.1877
 3708TIP3    H132539   4.615   1.751   3.450  0.2741  0.1631 -0.8106
 3708TIP3    H232540   4.589   1.879   3.373 -0.4553  0.6397  0.2134
 3709TIP3   OH232541   1.446   0.153   6.520  0.2951 -0.2760  0.2458
 3709TIP3    H132542   1.470   0.074   6.472  2.7376  0.7368 -0.2431
 3709TIP3    H232543   1.377   0.193   6.467  1.5816 -0.2105 -1.4251
 3710TIP3   OH232544   2.702   2.310  12.711  0.1932  0.1624  0.3282
 3710TIP3    H132545   2.789   2.298  12.672 -0.5151 -2.5018 -0.5706
 3710TIP3    H232546   2.647   2.338  12.639 -0.1145 -0.1540  0.4392
 3711TIP3   OH232547   1.885   2.055  13.616 -0.2755  0.0150 -0.1375
 3711TIP3    H132548   1.971   2.094  13.630  0.2886 -0.5387 -1.9441
 3711TIP3    H232549   1.824   2.114  13.660  0.8316  1.4172 -0.4705
 3712TIP3   OH232550   5.616   5.840  13.064  0.1397 -0.1485 -0.3245
 3712TIP3    H132551   5.668   5.768  13.100 -1.0844 -1.2092 -0.6793
 3712TIP3    H232552   5.628   5.833  12.970  0.5894  0.5556 -0.3252
 3713TIP3   OH232553   1.943   6.274  13.249 -0.2834 -0.2606  0.4707
 3713TIP3    H132554   1.927   6.335  13.322  0.4650 -0.2917  0.6711
 3713TIP3    H232555   2.013   6.316  13.199 -1.3300  0.1280 -0.6711
 3714TIP3   OH232556   1.780   5.963   4.386 -0.6096 -0.4807 -0.1039
 3714TIP3    H132557   1.794   6.042   4.440  0.0571 -0.7102  0.0646
 3714TIP3    H232558   1.795   5.992   4.297  0.3547 -0.5813  0.0229
 3715TIP3   OH232559   2.709   1.522   0.321 -0.3060 -0.0438  0.0523
 3715TIP3    H132560   2.736   1.430   0.320 -2.1558 -0.6058 -0.0901
 3715TIP3    H232561   2.734   1.556   0.235 -3.0857 -1.4762 -1.3631
 3716TIP3   OH232562   4.129   1.572   2.290 -0.3657 -0.4489 -0.1772
 3716TIP3    H132563   4.056   1.595   2.347  0.1855 -1.1257  0.8087
 3716TIP3    H232564   4.137   1.477   2.298 -0.1970 -0.5396 -1.2811
 3717TIP3   OH232565   2.836   0.979  11.259 -0.7370 -0.8664  0.2782
 3717TIP3    H132566   2.888   0.989  11.179 -2.0307  0.2957 -0.4540
 3717TIP3    H232567   2.818   0.886  11.265 -1.5768 -0.8357 -1.4301
 3718TIP3   OH232568   4.407   4.425  14.095  0.1304  0.4494 -0.1928
 3718TIP3    H132569   4.340   4.493  14.084 -1.6797 -1.0729  1.1771
 3718TIP3    H232570   4.357   4.345  14.111  2.2720 -0.9642 -0.4220
 3719TIP3   OH232571   4.061   5.629   2.881 -0.3793 -0.4809  0.6432
 3719TIP3    H132572   4.103   5.618   2.966 -1.7923 -0.8532  1.3034
 3719TIP3    H232573   4.009   5.550   2.869 -1.8947  0.5393  0.4249
 3720TIP3   OH232574   5.841   0.880   2.012  0.3007  0.2088  0.0870
 3720TIP3    H132575   5.794   0.829   1.946 -0.4330  1.7111 -0.5605
 3720TIP3    H232576   5.867   0.960   1.967 -0.8077  1.5634  1.7966
 3721TIP3   OH232577   1.678   5.493  14.841 -0.5902  0.1032 -0.6468
 3721TIP3    H132578   1.748   5.469  14.780 -0.1199 -2.3447  0.7892
 3721TIP3    H232579   1.724   5.534  14.915 -0.8108 -0.1589 -0.3625
 3722TIP3   OH232580   6.205   1.126   5.213  0.4256  0.1648  0.0315
 3722TIP3    H132581   6.272   1.060   5.231  0.4918 -0.2991 -1.7445
 3722TIP3    H232582   6.183   1.112   5.121 -1.9799  0.4639  0.5432
 3723TIP3   OH232583   5.235   4.087  15.208  0.3193  0.6022  0.3853
 3723TIP3    H132584   5.298   4.017  15.225 -0.2110  0.1166  0.3771
 3723TIP3    H232585   5.175   4.050  15.143  1.5617  1.9849 -1.5649
 3724TIP3   OH232586   6.306   0.900  14.463 -0.4323 -0.2182  0.6694
 3724TIP3    H132587   6.354   0.832  14.415  0.0306  0.4606  0.1680
 3724TIP3    H232588   6.339   0.895  14.552  1.1562  0.7829  0.1475
 3725TIP3   OH232589   2.270   3.140  12.204  0.5748 -0.6923 -0.5789
 3725TIP3    H132590   2.221   3.205  12.153 -0.2125 -1.1328 -0.3925
 3725TIP3    H232591   2.253   3.163  12.295  1.6354 -0.1656 -0.5038
 3726TIP3   OH232592   5.441   5.154   0.977  0.1976  0.1558  0.4021
 3726TIP3    H132593   5.414   5.155   0.885  0.3469 -1.1849  0.3286
 3726TIP3    H232594   5.404   5.234   1.014  0.0440  0.6462 -0.7988
 3727TIP3   OH232595   0.077   2.576   1.764  0.3746  0.4516 -0.5939
 3727TIP3    H132596   0.059   2.495   1.812 -0.7930  0.9789 -0.1301
 3727TIP3    H232597   0.122   2.632   1.828 -0.9181  1.0431 -0.1780
 3728TIP3   OH232598   3.696   3.594  16.258 -1.1023 -0.4715  0.1376
 3728TIP3    H132599   3.764   3.631  16.202 -1.3092 -1.2004 -0.6120
 3728TIP3    H232600   3.723   3.615  16.347 -0.1674 -0.3120 -0.1844
 3729TIP3   OH232601   2.744   2.818  12.259 -0.3325 -0.0024 -0.0752
 3729TIP3    H132602   2.696   2.742  12.226 -0.8533  0.8966 -1.4218
 3729TIP3    H232603   2.676   2.880  12.285  0.0801  1.2350 -1.8929
 3730TIP3   OH232604   5.368   0.586  15.422  0.0772 -0.1001  0.5405
 3730TIP3    H132605   5.288   0.561  15.376 -0.2811 -0.1817  1.2050
 3730TIP3    H232606   5.389   0.510  15.477  0.4966  0.0008  0.5191
 3731TIP3   OH232607   5.441   1.983   1.273 -0.1931  0.4305 -0.0871
 3731TIP3    H132608   5.536   1.972   1.266 -0.2108 -0.0421  0.4253
 3731TIP3    H232609   5.408   1.897   1.298 -0.8669  0.3435 -1.2073
 3732TIP3   OH232610   2.186   3.830   4.253  0.3398  0.1391  0.4461
 3732TIP3    H132611   2.266   3.850   4.204 -1.7652  2.2743 -2.3461
 3732TIP3    H232612   2.171   3.737   4.239  1.7397 -0.0345  0.0643
 3733TIP3   OH232613   4.678   4.923  12.098  0.0446  0.1936 -0.8501
 3733TIP3    H132614   4.595   4.949  12.058 -0.4380 -0.7453 -0.4896
 3733TIP3    H232615   4.659   4.921  12.192  1.5991  3.9513 -0.3748
 3734TIP3   OH232616   1.772   3.256  16.076 -0.3818  0.2787  0.4752
 3734TIP3    H132617   1.800   3.166  16.060 -0.7822  0.0300  1.1829
 3734TIP3    H232618   1.821   3.308  16.011 -0.1600 -0.4415  0.0630
 3735TIP3   OH232619   3.787   1.658  15.598 -0.3339 -0.1433  0.1224
 3735TIP3    H132620   3.881   1.645  15.615  0.0960  0.1391 -1.8834
 3735TIP3    H232621   3.754   1.572  15.574 -0.6087 -0.2535  0.8857
 3736TIP3   OH232622   0.290   0.585   3.281 -0.6183  0.0455  0.3961
 3736TIP3    H132623   0.371   0.618   3.321 -0.8441 -0.3440  1.1807
 3736TIP3    H232624   0.308   0.586   3.187  0.0339  0.6622  0.5217
 3737TIP3   OH232625   1.349   4.507  13.655  0.8628 -0.8130  0.3682
 3737TIP3    H132626   1.398   4.587  13.678  0.8564 -0.8886  0.6518
 3737TIP3    H232627   1.274   4.538  13.606  0.3796 -0.5678  1.2557
 3738TIP3   OH232628   4.150   0.017   4.016  0.0552  1.0731  0.4261
 3738TIP3    H132629   4.134  -0.049   3.948  0.4523  0.4473  0.9322
 3738TIP3    H232630   4.079   0.080   4.005 -1.0980 -0.1304  0.7847
 3739TIP3   OH232631   1.726   4.673  16.755  0.0844 -0.1227  0.6606
 3739TIP3    H132632   1.745   4.723  16.834  1.0140  0.8558 -0.1768
 3739TIP3    H232633   1.682   4.735  16.697 -1.3451 -1.0624  0.7085
 3740TIP3   OH232634   1.173   5.763  13.180  0.7440 -0.2731 -0.1182
 3740TIP3    H132635   1.126   5.722  13.252  1.1551 -0.5692 -0.0102
 3740TIP3    H232636   1.219   5.837  13.219  1.1394 -0.5621 -0.0286
 3741TIP3   OH232637   3.481   2.558   4.053  0.1613  0.3442  0.0941
 3741TIP3    H132638   3.397   2.511   4.060  1.1136 -1.8466 -2.1625
 3741TIP3    H232639   3.499   2.560   3.959  2.2836  1.4537  0.4961
 3742TIP3   OH232640   5.840   1.943   1.803 -0.7679  0.6535 -0.5529
 3742TIP3    H132641   5.858   2.009   1.737  3.3289 -0.8312 -1.0368
 3742TIP3    H232642   5.814   1.994   1.881  0.5112  2.7068 -1.4333
 3743TIP3   OH232643   4.778   1.686   5.849  0.2897 -0.8692 -0.0428
 3743TIP3    H132644   4.727   1.702   5.770  1.8660  0.3423 -0.8133
 3743TIP3    H232645   4.850   1.749   5.846  1.7972 -2.4824  1.0845
 3744TIP3   OH232646   3.172   0.475  16.710 -0.1560  0.8796  0.0259
 3744TIP3    H132647   3.144   0.429  16.790  1.0719 -0.2656 -0.1692
 3744TIP3    H232648   3.236   0.539  16.741  0.5310  0.2434 -0.0512
 3745TIP3   OH232649   6.479   3.254  14.208 -0.5429  0.5592  0.4412
 3745TIP3    H132650   6.563   3.299  14.199 -0.5370 -0.0734 -3.6834
 3745TIP3    H232651   6.416   3.312  14.165 -1.7721 -0.0634  1.3845
 3746TIP3   OH232652   5.305   5.535   4.366  0.0254 -0.6617  0.2335
 3746TIP3    H132653   5.342   5.466   4.313  1.7698 -0.0678  0.6450
 3746TIP3    H232654   5.342   5.616   4.331 -0.0961 -0.1301  1.2906
 3747TIP3   OH232655   0.588   4.426  16.913  0.9779  0.3533 -0.6133
 3747TIP3    H132656   0.517   4.403  16.972  1.4445  1.0732  0.2436
 3747TIP3    H232657   0.617   4.343  16.876 -0.1051  0.0252 -0.7359
 3748TIP3   OH232658   6.263   4.343   0.492 -0.3546 -0.3979 -0.1564
 3748TIP3    H132659   6.328   4.395   0.539  1.1786 -1.8268 -0.6285
 3748TIP3    H232660   6.215   4.406   0.439  0.3860  0.7371  0.4997
 3749TIP3   OH232661   6.105   6.492  15.323 -0.3078  0.1876  0.5040
 3749TIP3    H132662   6.035   6.427  15.320 -0.5927  0.4680  0.9369
 3749TIP3    H232663   6.179   6.447  15.363 -0.5006  0.1317  0.7940
 3750TIP3   OH232664   1.053   0.470  12.290 -0.0815  0.1472 -0.2899
 3750TIP3    H132665   1.072   0.377  12.284 -1.7254 -0.4840  3.2925
 3750TIP3    H232666   1.139   0.513  12.285  0.8105 -1.6248 -0.3603
 3751TIP3   OH232667   5.159   0.454   6.434 -0.4063 -0.3366 -0.6535
 3751TIP3    H132668   5.175   0.378   6.490 -0.3270 -2.1625 -3.0856
 3751TIP3    H232669   5.247   0.481   6.406 -0.3894  1.0712  0.7118
 3752TIP3   OH232670   3.165   2.586  12.984 -0.2749 -0.6895 -0.2659
 3752TIP3    H132671   3.139   2.500  12.951 -2.8243  0.5316 -1.5456
 3752TIP3    H232672   3.089   2.642  12.968  1.8441  2.1613 -0.7476
 3753TIP3   OH232673   1.784   6.351   2.493  0.0004  0.2220 -0.4881
 3753TIP3    H132674   1.700   6.344   2.447 -0.6187 -0.8001  0.7544
 3753TIP3    H232675   1.814   6.439   2.474 -0.4056 -0.0562 -2.5651
 3754TIP3   OH232676   5.689   2.852   5.828  0.3542  0.0639 -0.4676
 3754TIP3    H132677   5.676   2.934   5.876  0.6321  0.0106 -0.3018
 3754TIP3    H232678   5.782   2.832   5.838  0.3223 -0.1858 -0.6465
 3755TIP3   OH232679   3.736   1.574   1.412  0.3287 -0.0398  0.1111
 3755TIP3    H132680   3.697   1.647   1.461 -1.9464  0.8993 -2.9339
 3755TIP3    H232681   3.806   1.615   1.360  0.6866 -0.4831  0.2404
 3756TIP3   OH232682   6.337   2.593   3.734  0.5087  0.2107  0.6799
 3756TIP3    H132683   6.265   2.610   3.673  0.6428  2.1994  1.0660
 3756TIP3    H232684   6.346   2.674   3.784  1.3328 -0.9108  2.3897
 3757TIP3   OH232685   5.867   1.174   3.011 -0.5820 -0.5024 -0.0068
 3757TIP3    H132686   5.772   1.172   2.997 -0.7409  0.0158  1.0032
 3757TIP3    H232687   5.888   1.266   3.026  0.4700 -0.2306 -2.7504
 3758TIP3   OH232688   4.022   3.671   1.652 -0.4784  0.1371  0.0622
 3758TIP3    H132689   4.033   3.613   1.727 -2.2627  0.9927  1.0017
 3758TIP3    H232690   4.014   3.758   1.690  1.6340  0.9706 -1.3037
 3759TIP3   OH232691   5.610   1.438   5.903  0.4738  0.1290 -0.1366
 3759TIP3    H132692   5.590   1.450   5.996 -0.1090 -0.4451 -0.1857
 3759TIP3    H232693   5.627   1.526   5.871 -2.5477  0.7584 -0.2096
 3760TIP3   OH232694   5.039   2.722   0.115  0.0959 -0.1854 -0.0225
 3760TIP3    H132695   4.998   2.760   0.193 -1.9195 -0.5435 -0.8762
 3760TIP3    H232696   5.131   2.712   0.139 -0.9156 -2.5427  3.1663
 3761TIP3   OH232697   3.301   5.490   4.572 -0.2714 -0.0692  0.0749
 3761TIP3    H132698   3.334   5.417   4.521 -3.4468 -1.4262 -0.1381
 3761TIP3    H232699   3.369   5.506   4.638  0.9101 -2.5614 -0.4932
 3762TIP3   OH232700   6.750   3.167   5.168 -0.6157 -0.1827 -0.6570
 3762TIP3    H132701   6.687   3.103   5.134 -1.0167  0.5104 -1.2286
 3762TIP3    H232702   6.831   3.117   5.178 -0.7674 -0.6498 -1.6583
 3763TIP3   OH232703   5.896   0.114   0.678  0.0884  0.0168 -0.3744
 3763TIP3    H132704   5.848   0.072   0.606  0.3603  0.2709 -0.7064
 3763TIP3    H232705   5.920   0.042   0.736 -1.4270 -0.0266  0.2401
 3764TIP3   OH232706   2.447   3.632   1.192 -0.0783  0.2173  0.0041
 3764TIP3    H132707   2.401   3.715   1.178  0.6729  0.4261 -1.3153
 3764TIP3    H232708   2.524   3.655   1.244  0.0224  0.3213 -0.1898
 3765TIP3   OH232709   1.057   5.658   1.194 -0.0449 -0.1820 -0.4813
 3765TIP3    H132710   0.975   5.656   1.243  0.9475  3.4955  1.5079
 3765TIP3    H232711   1.036   5.709   1.116  0.7211  2.2853  0.8839
 3766TIP3   OH232712   6.104   6.075   5.379 -0.0811 -0.5291  0.8248
 3766TIP3    H132713   6.017   6.097   5.412 -0.9668  0.2126 -1.8596
 3766TIP3    H232714   6.098   6.089   5.284  3.1006  0.0363  0.6408
 3767TIP3   OH232715   1.589   5.029  11.256 -0.4928 -1.2366  0.1153
 3767TIP3    H132716   1.505   5.005  11.295 -0.2476 -1.1455  0.7033
 3767TIP3    H232717   1.628   4.946  11.229  0.7195 -1.6081  2.8842
 3768TIP3   OH232718   2.443   6.067  12.278  0.2507 -0.2579 -0.5080
 3768TIP3    H132719   2.432   6.063  12.373 -0.6067  0.2892 -0.5800
 3768TIP3    H232720   2.511   6.133  12.264  1.7421 -1.6990 -0.1914
 3769TIP3   OH232721   5.252   6.512  13.830 -0.3296 -0.1565  0.5231
 3769TIP3    H132722   5.180   6.497  13.892 -1.3815 -1.2402 -0.9241
 3769TIP3    H232723   5.290   6.425  13.817  0.3037  0.1786  0.1487
 3770TIP3   OH232724   5.883   0.132   3.604  0.7033  0.0330  0.6092
 3770TIP3    H132725   5.877   0.155   3.696  0.7688  1.7679  0.1913
 3770TIP3    H232726   5.950   0.190   3.568 -1.5803  1.6779 -1.1997
 3771TIP3   OH232727   5.395   2.450  16.608  0.7125 -0.0880 -0.1591
 3771TIP3    H132728   5.408   2.510  16.682 -1.8828  0.3752 -0.0514
 3771TIP3    H232729   5.421   2.501  16.531 -0.6071  0.8765  0.0228
 3772TIP3   OH232730   0.099   1.430   1.299  0.1440 -0.1517  0.1259
 3772TIP3    H132731   0.156   1.500   1.266 -0.1947 -0.3751 -0.9731
 3772TIP3    H232732   0.157   1.356   1.314  0.3186 -0.0186  0.1026
 3773TIP3   OH232733   0.036   6.187   3.730 -0.6857 -0.2283  0.1226
 3773TIP3    H132734  -0.030   6.143   3.677  0.5831 -1.3384 -0.5508
 3773TIP3    H232735   0.078   6.248   3.670  0.5114 -1.2329 -0.0802
 3774TIP3   OH232736   5.533   0.374   3.457 -0.2539  0.1518 -0.4949
 3774TIP3    H132737   5.622   0.389   3.425 -0.4122 -1.1984 -1.5778
 3774TIP3    H232738   5.478   0.377   3.379 -0.7092 -2.6498 -0.3205
 3775TIP3   OH232739   6.474   3.546   1.375  0.3760  0.2972  0.3602
 3775TIP3    H132740   6.511   3.470   1.331 -0.7005 -0.2329  0.3785
 3775TIP3    H232741   6.548   3.582   1.425  0.8505 -0.8071  0.4729
 3776TIP3   OH232742   2.234   2.014  12.830  0.0168  0.3333 -0.7697
 3776TIP3    H132743   2.268   2.024  12.919  0.2471 -1.0269 -0.7051
 3776TIP3    H232744   2.145   1.982  12.841 -0.0076  0.3105 -1.0225
 3777TIP3   OH232745   0.558   4.447   5.982  0.1249 -0.1969  0.2343
 3777TIP3    H132746   0.605   4.447   5.898  0.8621  0.8383  0.6351
 3777TIP3    H232747   0.507   4.528   5.981 -3.1284 -2.1614 -0.9699
 3778TIP3   OH232748   5.483   0.998  15.979 -0.2798 -0.6617  0.6221
 3778TIP3    H132749   5.570   1.023  15.949 -0.2863 -1.6944 -0.2669
 3778TIP3    H232750   5.444   1.080  16.009  0.6528 -0.0447  0.1791
 3779TIP3   OH232751   2.636   4.175  11.309  0.0400  0.7290  0.4960
 3779TIP3    H132752   2.714   4.128  11.336  0.1204  0.0594 -0.8426
 3779TIP3    H232753   2.566   4.110  11.312  0.0851  0.5931 -1.0106
 3780TIP3   OH232754   3.769   2.406  10.362 -0.1142  0.8569 -0.3510
 3780TIP3    H132755   3.841   2.346  10.382 -2.4905 -1.7005  0.9056
 3780TIP3    H232756   3.713   2.357  10.302 -2.2673  1.6884  0.9319
 3781TIP3   OH232757   3.656   6.461   2.123 -0.0233 -0.1709  0.0712
 3781TIP3    H132758   3.723   6.414   2.073  0.1083  0.0126  0.0714
 3781TIP3    H232759   3.582   6.468   2.063 -1.2901 -3.2718  1.2008
 3782TIP3   OH232760   5.484   6.745  15.103 -0.0243  0.0289 -0.1069
 3782TIP3    H132761   5.394   6.769  15.080 -0.3601  0.4478  1.6110
 3782TIP3    H232762   5.501   6.664  15.054 -0.9075  0.6001 -1.3802
 3783TIP3   OH232763   2.560   6.653   6.208 -0.3769 -0.0375  0.1590
 3783TIP3    H132764   2.521   6.647   6.120 -2.2351 -0.2933  0.9744
 3783TIP3    H232765   2.615   6.576   6.215  1.2736  0.9394 -1.4719
 3784TIP3   OH232766   2.488   1.281  15.984  1.2017  0.1687  0.1323
 3784TIP3    H132767   2.403   1.255  16.020  0.0339  2.8576 -0.5707
 3784TIP3    H232768   2.551   1.234  16.037 -0.6542  0.2752  2.5415
 3785TIP3   OH232769   3.172   0.972  13.502  0.1387  0.3632 -0.8851
 3785TIP3    H132770   3.248   0.932  13.460  0.5508 -0.0458  0.2310
 3785TIP3    H232771   3.206   1.009  13.583 -1.3351 -2.1235  0.9215
 3786TIP3   OH232772   4.507   1.056   0.899 -0.5997  0.1156  0.6112
 3786TIP3    H132773   4.437   1.069   0.834  0.5126  0.8494 -0.4606
 3786TIP3    H232774   4.505   0.962   0.917  0.8913 -0.6362 -2.6488
 3787TIP3   OH232775   1.609   6.554  15.668 -0.1752 -0.0932 -0.7296
 3787TIP3    H132776   1.649   6.586  15.587  0.6427 -0.6207 -0.5352
 3787TIP3    H232777   1.654   6.472  15.687  0.2264  0.4442  0.7196
 3788TIP3   OH232778   1.832   3.822  15.903  0.5866  0.2918 -0.0750
 3788TIP3    H132779   1.909   3.796  15.953  0.8726  0.0970 -0.6149
 3788TIP3    H232780   1.759   3.778  15.947  0.9962 -0.9514 -0.6282
 3789TIP3   OH232781   2.673   0.049  15.478  0.3405 -0.0003 -0.5593
 3789TIP3    H132782   2.731  -0.022  15.451  0.1861 -0.5245  0.4583
 3789TIP3    H232783   2.732   0.121  15.501  0.6682 -1.0130  1.8568
 3790TIP3   OH232784   0.868   4.195   6.488 -0.6715  0.1394  0.0638
 3790TIP3    H132785   0.895   4.253   6.559 -0.0753  2.2002 -1.7929
 3790TIP3    H232786   0.899   4.108   6.515 -0.5560  0.8566  2.3533
 3791TIP3   OH232787   0.843   6.776   1.138  0.4908 -0.2311 -0.6821
 3791TIP3    H132788   0.874   6.689   1.161 -0.5304 -0.6431 -0.8396
 3791TIP3    H232789   0.807   6.811   1.220  2.2518  0.6524 -0.2442
 3792TIP3   OH232790   2.215   6.410  11.009  0.3206 -0.0548 -0.2780
 3792TIP3    H132791   2.231   6.415  10.915 -0.8256  2.4784 -0.3820
 3792TIP3    H232792   2.154   6.337  11.020 -1.1287  0.9179 -1.7423
 3793TIP3   OH232793   1.104   3.194   4.016 -0.1687  0.0341  0.1104
 3793TIP3    H132794   1.102   3.173   4.110 -2.3698  1.9911  0.5666
 3793TIP3    H232795   1.168   3.265   4.009  1.8319 -1.7848 -0.2783
 3794TIP3   OH232796   4.466   5.781  10.781  0.0141 -0.5553 -0.3019
 3794TIP3    H132797   4.400   5.751  10.844  1.3057 -1.1115  0.8092
 3794TIP3    H232798   4.428   5.859  10.742 -2.1530 -1.9685 -1.0946
 3795TIP3   OH232799   2.087   0.991  14.585  0.7720  0.3126 -0.5787
 3795TIP3    H132800   2.151   0.994  14.656 -0.0330  0.3405  0.1574
 3795TIP3    H232801   2.070   1.083  14.565 -1.8556  0.4106  1.8256
 3796TIP3   OH232802   6.500   4.976  13.139 -0.1480 -0.0077 -0.4628
 3796TIP3    H132803   6.557   4.907  13.171  0.8161  2.2701  2.9836
 3796TIP3    H232804   6.425   4.975  13.199 -1.7575 -0.1984 -2.4023
 3797TIP3   OH232805   1.071   2.244  12.354 -0.4178 -0.2282  0.2641
 3797TIP3    H132806   1.022   2.163  12.342  0.8248 -1.3080  2.2086
 3797TIP3    H232807   1.076   2.256  12.449 -1.3735  2.6498  0.0112
 3798TIP3   OH232808   6.182   4.997   4.072 -0.5420 -0.6467 -0.2953
 3798TIP3    H132809   6.276   4.977   4.071  0.1466  2.2752  1.5089
 3798TIP3    H232810   6.153   4.980   3.982  1.7530 -1.3848 -0.9193
 3799TIP3   OH232811   2.578   1.273   3.199  0.2247  0.1272 -0.4506
 3799TIP3    H132812   2.513   1.343   3.202  0.2022  0.1624 -1.6414
 3799TIP3    H232813   2.568   1.228   3.283  1.7077  2.8423  1.2368
 3800TIP3   OH232814   5.981   4.584  16.854 -0.1610 -0.0362  0.1319
 3800TIP3    H132815   5.968   4.554  16.764 -0.5522 -0.5599  0.3637
 3800TIP3    H232816   5.922   4.530  16.907  0.4307 -0.0720  0.7636
 3801TIP3   OH232817   1.049   6.222  12.890  0.2261 -0.0709  0.8632
 3801TIP3    H132818   1.122   6.266  12.847 -0.2674 -1.8637 -1.9924
 3801TIP3    H232819   0.978   6.286  12.888  1.1819  1.0340  2.0173
 3802TIP3   OH232820   0.802   1.551   0.963  0.1219  0.3961 -0.1865
 3802TIP3    H132821   0.817   1.463   0.996  0.5638  0.3854 -0.4243
 3802TIP3    H232822   0.751   1.594   1.032 -0.3549 -0.1367 -0.2066
 3803TIP3   OH232823   1.535   5.882   3.352  0.0306  0.1227 -0.4249
 3803TIP3    H132824   1.491   5.942   3.292 -1.0665  0.2849  0.5314
 3803TIP3    H232825   1.585   5.824   3.295 -1.5220 -0.1529 -1.5351
 3804TIP3   OH232826   1.457   2.168   0.751 -0.4609  0.4268 -0.4360
 3804TIP3    H132827   1.407   2.087   0.741 -0.0160  0.2631 -1.4236
 3804TIP3    H232828   1.452   2.210   0.665 -0.6921  1.4608  0.0697
 3805TIP3   OH232829   6.154   2.417   4.543  0.5909  0.7064 -0.1107
 3805TIP3    H132830   6.238   2.463   4.538  0.9809  0.1220  0.8826
 3805TIP3    H232831   6.146   2.391   4.634  0.1063 -0.6990 -0.5381
 3806TIP3   OH232832   1.712   2.137  10.268  0.1702 -0.0238  0.4090
 3806TIP3    H132833   1.670   2.072  10.210  0.8967  0.1714 -0.3527
 3806TIP3    H232834   1.669   2.219  10.246 -0.5873 -0.2028  1.2080
 3807TIP3   OH232835   1.011   4.576  13.214  0.1440 -0.0524 -0.3870
 3807TIP3    H132836   1.000   4.533  13.129  0.6593  0.3302 -0.6587
 3807TIP3    H232837   1.105   4.570  13.231  0.1924  0.7534 -0.3294
 3808TIP3   OH232838   2.891   6.165  10.922  0.2258 -0.3456 -0.3551
 3808TIP3    H132839   2.869   6.226  10.852  0.3955  1.0471  0.7767
 3808TIP3    H232840   2.826   6.095  10.914 -1.5006  1.1825 -0.1945
 3809TIP3   OH232841   1.888   3.227   3.667  0.0726  0.0900 -0.6015
 3809TIP3    H132842   1.901   3.184   3.751 -0.5243  2.0046  0.5121
 3809TIP3    H232843   1.802   3.198   3.638  0.0298 -0.1132 -0.2714
 3810TIP3   OH232844   6.278   5.206  15.698  0.3056  0.1731  0.2919
 3810TIP3    H132845   6.321   5.146  15.760  0.4849 -0.5790 -0.5508
 3810TIP3    H232846   6.337   5.280  15.691 -0.2880  0.8238  1.9501
 3811TIP3   OH232847   3.190   2.988  15.420 -0.1155  0.3473  0.5042
 3811TIP3    H132848   3.255   2.924  15.449  1.9396  1.6824 -0.9699
 3811TIP3    H232849   3.119   2.936  15.384  0.4568 -1.1412  1.4772
 3812TIP3   OH232850   3.651   2.228  11.982  0.0460  0.7266 -0.2742
 3812TIP3    H132851   3.739   2.212  12.015 -0.4106 -1.1947  0.0728
 3812TIP3    H232852   3.597   2.240  12.060  0.1563  2.9415 -0.5028
 3813TIP3   OH232853   4.614   3.523   2.838  0.2934 -0.1044 -0.1357
 3813TIP3    H132854   4.620   3.429   2.824  1.6095  0.0786 -0.8538
 3813TIP3    H232855   4.652   3.537   2.925 -0.0175 -0.2495  0.0242
 3814TIP3   OH232856   4.676   3.506   3.452  0.3288  0.5921 -0.4599
 3814TIP3    H132857   4.600   3.490   3.397  0.2463 -1.3466  0.1971
 3814TIP3    H232858   4.751   3.477   3.400  0.1558 -2.3495  0.8273
 3815TIP3   OH232859   2.439   2.485  13.527  0.1472 -0.4113  0.7498
 3815TIP3    H132860   2.348   2.464  13.547 -0.0370  0.3566  0.7459
 3815TIP3    H232861   2.446   2.579  13.542  1.0358 -0.5259  1.1019
 3816TIP3   OH232862   3.472   0.596  16.211  0.0599 -0.7204 -0.3181
 3816TIP3    H132863   3.399   0.563  16.263  0.4450 -2.1737 -0.6778
 3816TIP3    H232864   3.505   0.519  16.165  1.9972 -0.1515  0.0704
 3817TIP3   OH232865   6.743   3.450   5.073  0.0517  0.4017  0.0452
 3817TIP3    H132866   6.734   3.355   5.078 -0.7521  0.4576 -0.3517
 3817TIP3    H232867   6.657   3.482   5.046  0.0234  1.3243  1.1689
 3818TIP3   OH232868   4.661   0.081  12.379 -0.2395  0.0072  0.2729
 3818TIP3    H132869   4.690   0.021  12.311 -0.5083 -1.3649  1.3329
 3818TIP3    H232870   4.727   0.073  12.448  0.8151  2.4612 -0.3940
 3819TIP3   OH232871   0.957   5.636   0.035  0.3179  0.4266 -0.5346
 3819TIP3    H132872   0.864   5.624   0.053  0.4507  1.2968  0.8277
 3819TIP3    H232873   0.960   5.699  -0.038 -0.1660 -0.1948 -1.0909
 3820TIP3   OH232874   6.276   2.731  16.699 -0.3703  0.2866  0.4744
 3820TIP3    H132875   6.243   2.740  16.610 -0.7971  0.5086  0.6521
 3820TIP3    H232876   6.328   2.651  16.698 -0.0185  0.5237 -0.0786
 3821TIP3   OH232877   0.941   3.280   2.659  0.3193 -0.0965 -0.3118
 3821TIP3    H132878   1.009   3.344   2.680 -0.1623  0.0676  0.7424
 3821TIP3    H232879   0.905   3.254   2.743  0.6920 -1.9652 -0.7223
 3822TIP3   OH232880   4.547   4.734  14.981 -0.4016  0.4605  0.5919
 3822TIP3    H132881   4.501   4.759  14.901 -1.9135 -0.4517  1.1525
 3822TIP3    H232882   4.541   4.639  14.984  2.5239  0.2122  0.1190
 3823TIP3   OH232883   0.967   1.288   0.130  0.7900  0.0457  0.2335
 3823TIP3    H132884   1.032   1.337   0.080  0.8186  2.2877  2.3853
 3823TIP3    H232885   0.998   1.292   0.220 -1.5552 -0.1283  1.0793
 3824TIP3   OH232886   5.899   1.845   4.778  0.2781  0.4115 -0.2147
 3824TIP3    H132887   5.937   1.803   4.701 -0.4535 -0.2815 -0.2092
 3824TIP3    H232888   5.966   1.838   4.846 -0.7962 -3.1314  0.5783
 3825TIP3   OH232889   2.093   3.103   6.110 -0.3072 -0.3980 -0.0320
 3825TIP3    H132890   2.143   3.072   6.185  0.2237 -1.3165 -0.7562
 3825TIP3    H232891   2.060   3.189   6.136  2.1833  0.5150  0.2200
 3826TIP3   OH232892   4.807   1.722  12.459  0.0696 -0.1870 -0.5621
 3826TIP3    H132893   4.733   1.713  12.400  0.6612  0.5357 -1.4442
 3826TIP3    H232894   4.877   1.756  12.403  0.8872 -0.3043  0.3814
 3827TIP3   OH232895   1.507   6.138  15.115  0.4557  0.1063 -0.0413
 3827TIP3    H132896   1.532   6.050  15.088 -1.2077  0.0252 -1.3912
 3827TIP3    H232897   1.480   6.182  15.035  1.3084  1.8841  0.6067
 3828TIP3   OH232898   1.320   6.750  14.770  0.2582 -0.1786  0.1913
 3828TIP3    H132899   1.333   6.805  14.692 -1.4153 -1.2014 -0.8471
 3828TIP3    H232900   1.274   6.806  14.832  1.0825  0.4663  0.2273
 3829TIP3   OH232901   3.605   1.439   3.708 -0.1870 -0.1107 -0.2246
 3829TIP3    H132902   3.680   1.484   3.747 -0.8049  0.5776  0.1963
 3829TIP3    H232903   3.598   1.357   3.756  1.3287 -0.9526 -1.4078
 3830TIP3   OH232904   4.772   3.788   0.969  0.3468  0.0875 -0.1753
 3830TIP3    H132905   4.681   3.772   0.996  0.2965  0.8682  0.1286
 3830TIP3    H232906   4.778   3.883   0.959  0.7337 -0.0686 -1.6117
 3831TIP3   OH232907   6.664   1.165  11.986 -0.4670 -0.3030 -0.7712
 3831TIP3    H132908   6.659   1.229  12.057  0.7036 -0.6947 -0.3249
 3831TIP3    H232909   6.757   1.157  11.967 -0.6584 -1.3107 -1.3380
 3832TIP3   OH232910   2.280   3.492  12.320 -0.7586 -0.4634 -0.7983
 3832TIP3    H132911   2.219   3.464  12.388 -1.9556  1.9850 -0.8152
 3832TIP3    H232912   2.232   3.478  12.238 -0.5235 -0.4428 -0.9400
 3833TIP3   OH232913   5.638   1.876  16.536 -0.0423 -0.0342  0.8778
 3833TIP3    H132914   5.546   1.899  16.522 -0.3135 -1.0621  0.9202
 3833TIP3    H232915   5.657   1.905  16.626 -0.0010  1.1838  0.4805
 3834TIP3   OH232916   4.747   1.644  14.394 -0.3529 -0.2623  0.3886
 3834TIP3    H132917   4.666   1.669  14.348  0.3109 -0.5510 -0.9492
 3834TIP3    H232918   4.753   1.549  14.380 -0.5676 -0.4813  1.7609
 3835TIP3   OH232919   1.604   5.806  11.959 -0.2929  0.1837  0.0856
 3835TIP3    H132920   1.671   5.743  11.933  0.2736 -0.4358  2.9051
 3835TIP3    H232921   1.653   5.880  11.994 -1.0137  1.3255 -1.2524
 3836TIP3   OH232922   2.813   3.804   2.288 -0.4263  0.1035  0.4547
 3836TIP3    H132923   2.725   3.797   2.252 -0.7468 -0.9248  1.3951
 3836TIP3    H232924   2.853   3.719   2.268  0.5087  0.7214 -0.3527
 3837TIP3   OH232925   4.928   1.580  16.985 -0.6215 -0.0426 -0.3570
 3837TIP3    H132926   4.974   1.570  17.069 -0.9507  1.2230 -0.0159
 3837TIP3    H232927   4.836   1.587  17.009 -0.8223 -0.7174 -0.9072
 3838TIP3   OH232928   2.589   4.280  12.191 -0.6781  0.3943  0.0218
 3838TIP3    H132929   2.527   4.349  12.169  0.1025  1.3980  0.9392
 3838TIP3    H232930   2.535   4.214  12.236 -1.3450  0.5950 -0.4750
 3839TIP3   OH232931   5.788   5.986   4.004 -0.4989 -0.0715  0.1363
 3839TIP3    H132932   5.879   6.012   4.021 -1.0578  1.7762  0.3681
 3839TIP3    H232933   5.756   5.955   4.088  0.3940 -2.3196 -0.3023
 3840TIP3   OH232934   5.014   2.537  12.238  0.0198 -0.6956 -0.1898
 3840TIP3    H132935   4.925   2.506  12.257  0.1126 -0.9036 -0.0839
 3840TIP3    H232936   5.002   2.625  12.202 -0.2343 -0.7561 -0.2571
 3841TIP3   OH232937   1.303   3.490  13.051  0.1931  0.1329  0.0043
 3841TIP3    H132938   1.345   3.546  12.987  0.3769  1.4416  1.2282
 3841TIP3    H232939   1.323   3.401  13.024  0.6581  0.6829 -1.4642
 3842TIP3   OH232940   4.943   6.234  12.234 -0.1108  0.0007  0.0182
 3842TIP3    H132941   4.912   6.253  12.146  1.2871 -2.1913 -0.9916
 3842TIP3    H232942   4.913   6.308  12.287 -1.0673  1.2817 -2.2635
 3843TIP3   OH232943   5.790   0.770  15.299  0.2414 -0.4059 -0.3372
 3843TIP3    H132944   5.786   0.843  15.361 -1.7082  0.4571 -1.4257
 3843TIP3    H232945   5.858   0.712  15.334  0.6246  1.0848  1.4625
 3844TIP3   OH232946   0.173   5.866   0.054  0.0482 -0.4044  0.5786
 3844TIP3    H132947   0.239   5.809   0.015  0.1734  0.0349  0.1448
 3844TIP3    H232948   0.151   5.928  -0.015  1.4082  1.3623  1.6740
 3845TIP3   OH232949   3.414   0.790   3.880 -0.4160  0.0143  1.2000
 3845TIP3    H132950   3.489   0.812   3.935 -0.5072  1.4352  0.7938
 3845TIP3    H232951   3.445   0.802   3.791 -0.4148 -1.8005  0.9362
 3846TIP3   OH232952   4.534   1.367  14.943 -0.6349  0.4690  0.2460
 3846TIP3    H132953   4.586   1.428  14.994 -1.7035  1.1657  0.5278
 3846TIP3    H232954   4.505   1.417  14.867 -0.4391 -0.0766 -0.2001
 3847TIP3   OH232955   2.368   2.661  15.509  0.1986  0.1418  0.0539
 3847TIP3    H132956   2.363   2.697  15.598  0.0432 -0.6335  0.3619
 3847TIP3    H232957   2.347   2.568  15.520 -0.1886  0.1228 -0.8474
 3848TIP3   OH232958   5.132   0.272  16.713 -0.1641  0.0164 -0.0965
 3848TIP3    H132959   5.086   0.322  16.780  0.2789 -1.9883  1.7250
 3848TIP3    H232960   5.061   0.233  16.661 -0.4968  1.0433 -0.4506
 3849TIP3   OH232961   5.646   2.489  12.161  0.5760 -0.0219  0.0875
 3849TIP3    H132962   5.579   2.483  12.229 -0.4956  1.2960 -0.8350
 3849TIP3    H232963   5.704   2.414  12.178 -1.0803 -1.1398  0.9196
 3850TIP3   OH232964   1.457   6.170  15.887 -0.1413  0.6569  0.5899
 3850TIP3    H132965   1.441   6.180  15.793 -1.4369  1.1929  0.8622
 3850TIP3    H232966   1.549   6.143  15.893  0.2881  1.7740 -0.7572
 3851TIP3   OH232967   6.745   4.875   4.879 -0.3086 -0.1995 -0.6859
 3851TIP3    H132968   6.678   4.906   4.817  1.3117  1.1904 -1.7990
 3851TIP3    H232969   6.802   4.819   4.827  1.0173  0.9040 -0.4632
 3852TIP3   OH232970   5.131   5.263   2.935 -0.2692  0.3131 -0.0381
 3852TIP3    H132971   5.063   5.243   2.870 -1.3007  0.7318  0.8982
 3852TIP3    H232972   5.083   5.275   3.017  1.1242 -1.2823  1.0391
 3853TIP3   OH232973   5.644   0.302   4.913 -0.0419 -0.2314  0.4022
 3853TIP3    H132974   5.620   0.392   4.936  0.6004  0.2373 -0.6845
 3853TIP3    H232975   5.724   0.285   4.961  0.3961  0.1507 -0.1869
 3854TIP3   OH232976   6.204   2.421   3.343 -0.5050  0.1100 -0.0706
 3854TIP3    H132977   6.272   2.481   3.313 -1.3599  1.4246  0.5277
 3854TIP3    H232978   6.248   2.363   3.404  0.4397 -0.1776 -1.0127
 3855TIP3   OH232979   2.471   6.715  13.894  0.3882 -0.1828  0.0153
 3855TIP3    H132980   2.394   6.772  13.899  0.7025  0.4042 -1.5166
 3855TIP3    H232981   2.502   6.709  13.984 -1.4290 -0.4100  0.6465
 3856TIP3   OH232982   5.263   4.198   3.867 -0.6707  0.1382 -0.5789
 3856TIP3    H132983   5.194   4.136   3.844  1.5212 -1.6987 -2.5517
 3856TIP3    H232984   5.270   4.256   3.792  0.8138 -0.5558 -1.0005
 3857TIP3   OH232985   6.057   4.565   0.692 -0.2228  0.3210  0.5399
 3857TIP3    H132986   6.090   4.556   0.602 -2.3353 -0.0070 -0.2263
 3857TIP3    H232987   5.999   4.641   0.688 -0.8905 -0.1407  1.4831
 3858TIP3   OH232988   4.479   0.932   4.293 -0.1818 -0.4355  0.1138
 3858TIP3    H132989   4.530   0.890   4.363  1.0598  0.9099  0.0515
 3858TIP3    H232990   4.529   0.916   4.213  0.3316  1.1245  0.0905
 3859TIP3   OH232991   4.206   5.411   5.224  0.4744  0.1008 -0.3672
 3859TIP3    H132992   4.139   5.398   5.291  2.3061  0.3853  1.5753
 3859TIP3    H232993   4.200   5.503   5.201  0.9357  0.3807  0.6258
 3860TIP3   OH232994   1.371   3.632  11.087 -0.2885 -0.2685  0.6058
 3860TIP3    H132995   1.328   3.611  11.171  0.9627 -0.8201  1.1107
 3860TIP3    H232996   1.300   3.667  11.033 -1.0313  0.4902  2.0362
 3861TIP3   OH232997   5.858   5.094  14.730 -1.0036 -0.5578 -0.5784
 3861TIP3    H132998   5.889   5.103  14.820 -1.2847  4.1443 -0.8242
 3861TIP3    H232999   5.763   5.101  14.737 -0.9846  0.5169 -1.2680
 3862TIP3   OH233000   4.952   3.609  12.226  0.2802 -0.0290 -0.4509
 3862TIP3    H133001   4.882   3.625  12.290 -0.1640 -0.0232 -0.9309
 3862TIP3    H233002   4.914   3.635  12.142  0.5234 -0.9365 -0.8561
 3863TIP3   OH233003   2.223   5.651  16.585  0.0216 -0.0465  0.0738
 3863TIP3    H133004   2.255   5.626  16.499 -1.3390 -0.0183 -0.4579
 3863TIP3    H233005   2.187   5.739  16.573 -0.0654  0.0124  0.7086
 3864TIP3   OH233006   1.183   1.475   6.156 -0.3943  0.3207  0.3866
 3864TIP3    H133007   1.087   1.471   6.165 -0.3673  0.2640  0.6672
 3864TIP3    H233008   1.205   1.566   6.177 -0.5623  0.8027 -1.4899
 3865TIP3   OH233009   4.215   6.299   0.861  0.6580  0.5742  0.5054
 3865TIP3    H133010   4.216   6.395   0.858 -0.3715  0.5650 -0.5722
 3865TIP3    H233011   4.162   6.273   0.785  0.1536 -0.8271  1.3125
 3866TIP3   OH233012   5.699   6.509  15.746 -0.2034  0.3911  0.0529
 3866TIP3    H133013   5.767   6.527  15.810 -1.2948  1.5604  0.9137
 3866TIP3    H233014   5.685   6.592  15.701  0.4901 -0.3999 -1.6575
 3867TIP3   OH233015   4.972   5.384   1.614 -0.0154 -0.2602 -0.1638
 3867TIP3    H133016   4.995   5.476   1.630 -0.2635 -0.4571  1.3717
 3867TIP3    H233017   4.971   5.344   1.701 -1.2160 -1.4177 -0.6968
 3868TIP3   OH233018   6.457   0.927   5.241 -0.4115 -0.1062  0.1158
 3868TIP3    H133019   6.449   0.955   5.332 -1.0013 -3.5774  1.2188
 3868TIP3    H233020   6.540   0.880   5.237 -2.0024 -3.0055 -0.2180
 3869TIP3   OH233021   4.188   5.664   5.147 -0.5577  0.3726 -0.4471
 3869TIP3    H133022   4.277   5.698   5.154 -0.6068  0.1356  1.6140
 3869TIP3    H233023   4.150   5.712   5.074  1.4307  0.0784 -1.7230
 3870TIP3   OH233024   4.896   6.497   5.085  0.3859 -0.4784 -0.5488
 3870TIP3    H133025   4.924   6.407   5.101 -1.9362 -1.2581 -0.6087
 3870TIP3    H233026   4.801   6.495   5.101 -0.1587  1.3051 -3.2943
 3871TIP3   OH233027   4.375   1.050  16.032 -0.2531 -0.1157 -0.0013
 3871TIP3    H133028   4.299   1.094  15.992  0.9779 -0.4588 -2.8849
 3871TIP3    H233029   4.449   1.108  16.012  0.4853 -0.5356  1.4721
 3872TIP3   OH233030   5.023   1.484   2.471 -0.1444 -0.0512 -0.2885
 3872TIP3    H133031   5.082   1.559   2.462 -0.8342  0.4970 -0.1907
 3872TIP3    H233032   5.023   1.444   2.383 -1.2625  1.1674 -0.8570
 3873TIP3   OH233033   3.732   0.680  11.394 -0.2269 -0.2249 -0.5299
 3873TIP3    H133034   3.784   0.742  11.343  0.7579  0.3262  1.1028
 3873TIP3    H233035   3.797   0.633  11.446 -1.3376  0.2385  1.2869
 3874TIP3   OH233036   6.274   1.620  13.555  0.1053  0.2929 -0.1069
 3874TIP3    H133037   6.308   1.599  13.468  0.2083  0.3705 -0.0868
 3874TIP3    H233038   6.344   1.671  13.595  0.2682 -0.1785  0.2092
 3875TIP3   OH233039   1.039   6.337  11.881 -0.2028  0.2183  0.5560
 3875TIP3    H133040   0.957   6.370  11.916  0.5442 -1.2184  3.8001
 3875TIP3    H233041   1.012   6.269  11.819 -1.4748 -0.0674  1.4049
 3876TIP3   OH233042   2.710   0.597  10.971 -0.0629  0.0247  0.0621
 3876TIP3    H133043   2.710   0.505  10.945 -0.2792  0.7542 -2.6713
 3876TIP3    H233044   2.623   0.629  10.947 -0.3027  0.7640  1.8040
 3877TIP3   OH233045   2.954   6.042   5.133 -0.4396  0.6691 -0.5725
 3877TIP3    H133046   2.939   6.036   5.039 -2.6897  0.9273 -0.2533
 3877TIP3    H233047   3.049   6.036   5.142 -0.1328  1.3137 -2.9006
 3878TIP3   OH233048   1.939   2.185   0.858  0.0261 -0.5483 -0.0741
 3878TIP3    H133049   1.977   2.128   0.792  0.4639  0.0178 -0.3157
 3878TIP3    H233050   2.013   2.236   0.891 -0.0600 -1.3500  1.3834
 3879TIP3   OH233051   2.735   2.411  11.891 -0.2411 -0.0240 -0.1242
 3879TIP3    H133052   2.641   2.398  11.879 -0.3254  0.3379  0.1173
 3879TIP3    H233053   2.761   2.469  11.819 -0.2897  0.2342  0.0643
 3880TIP3   OH233054   0.628   2.122  16.909 -0.4745 -0.3511 -0.0083
 3880TIP3    H133055   0.700   2.178  16.937 -0.8819  0.6474 -0.8890
 3880TIP3    H233056   0.569   2.119  16.984  0.7271 -1.6042  0.8965
 3881TIP3   OH233057   0.139   5.751   2.118  0.0534  0.0214  0.4776
 3881TIP3    H133058   0.116   5.777   2.029  0.1463 -0.6664  0.2448
 3881TIP3    H233059   0.225   5.710   2.109  1.6545  3.0196  1.4108
 3882TIP3   OH233060   5.841   3.050  11.750  0.5114  0.1389 -0.9188
 3882TIP3    H133061   5.753   3.065  11.782  1.0425 -0.9736  1.1624
 3882TIP3    H233062   5.844   2.956  11.730  1.9286 -0.3574  1.4095
 3883TIP3   OH233063   2.879   2.549   6.368  0.4303 -0.0100 -0.4007
 3883TIP3    H133064   2.795   2.525   6.406  0.8153  0.9611  1.1173
 3883TIP3    H233065   2.930   2.468   6.369  0.6621  0.1398  1.8143
 3884TIP3   OH233066   4.453   0.489   6.045 -0.4191  0.5108 -0.8535
 3884TIP3    H133067   4.492   0.410   6.084  0.2358  0.5346 -1.4515
 3884TIP3    H233068   4.366   0.495   6.085 -0.1133  0.0088 -0.1022
 3885TIP3   OH233069   5.599   2.225  16.295  0.0355 -0.4626 -0.3933
 3885TIP3    H133070   5.587   2.207  16.202 -1.1121 -1.1021 -0.1365
 3885TIP3    H233071   5.510   2.236  16.328  0.4860  0.6751  0.4521
 3886TIP3   OH233072   0.239   1.090  12.985  0.7023 -0.2376  0.5217
 3886TIP3    H133073   0.178   1.161  13.005  2.1078  0.3848  2.6947
 3886TIP3    H233074   0.269   1.110  12.896 -0.2133  0.9174  0.4486
 3887TIP3   OH233075   6.054   5.200   2.029 -0.5443 -0.4261  0.4595
 3887TIP3    H133076   6.083   5.157   2.109 -2.2440  0.1344  1.4045
 3887TIP3    H233077   5.983   5.258   2.057 -1.5650 -0.6485 -1.5252
 3888TIP3   OH233078   2.533   5.975  15.651 -0.2535 -0.3995 -0.2132
 3888TIP3    H133079   2.483   5.996  15.571 -2.4817  0.5963  1.3886
 3888TIP3    H233080   2.474   5.920  15.702  1.3287 -1.3921  0.5728
 3889TIP3   OH233081   1.751   5.041  13.635  0.1849 -0.1262 -0.0060
 3889TIP3    H133082   1.695   5.083  13.700  1.3016  1.0090  0.2444
 3889TIP3    H233083   1.839   5.045  13.673  0.5575 -1.1832 -0.7342
 3890TIP3   OH233084   2.337   3.362   4.065 -0.4864  0.9536 -0.1020
 3890TIP3    H133085   2.282   3.397   3.994 -0.9812 -0.9742 -0.6957
 3890TIP3    H233086   2.395   3.300   4.021 -2.3436 -2.0022  1.4578
 3891TIP3   OH233087   1.778   5.585  11.884  0.1392 -0.2522  0.0358
 3891TIP3    H133088   1.731   5.558  11.962  0.1093 -0.0926  0.0730
 3891TIP3    H233089   1.775   5.509  11.826  0.4203 -0.4709  0.3083
 3892TIP3   OH233090   5.656   2.244   2.337  0.7543 -0.2838 -0.2646
 3892TIP3    H133091   5.693   2.158   2.358  0.8444 -0.3662 -0.7634
 3892TIP3    H233092   5.641   2.242   2.243  0.1637  0.0192 -0.1817
 3893TIP3   OH233093   6.047   0.874  12.051 -0.0437  0.3658 -0.0647
 3893TIP3    H133094   6.030   0.941  11.986 -0.8915  0.0285 -0.1954
 3893TIP3    H233095   5.965   0.826  12.058 -0.0559  0.5969  1.4803
 3894TIP3   OH233096   2.847   4.787  10.898  0.0106  0.2641  0.5891
 3894TIP3    H133097   2.939   4.770  10.915 -0.2773 -1.9023  0.1105
 3894TIP3    H233098   2.839   4.786  10.803 -0.5080  0.4991  0.6252
 3895TIP3   OH233099   3.242   0.482   0.728  0.1003  0.0611 -0.4598
 3895TIP3    H133100   3.243   0.386   0.732 -0.5655  0.1214  1.5744
 3895TIP3    H233101   3.161   0.504   0.682 -1.5095 -0.3046  2.1005
 3896TIP3   OH233102   3.796   3.517  13.768  0.0760  0.1146 -0.3087
 3896TIP3    H133103   3.795   3.530  13.674 -0.8072 -1.0201 -0.4703
 3896TIP3    H233104   3.886   3.492  13.789  0.5027  1.2924 -0.7041
 3897TIP3   OH233105   3.901   4.790   2.434  0.9930  0.2099 -0.2458
 3897TIP3    H133106   3.826   4.818   2.487 -0.2844 -0.1877 -1.8170
 3897TIP3    H233107   3.963   4.863   2.439  0.4798  0.5792  0.9870
 3898TIP3   OH233108   6.114   2.515  14.990 -0.5765  0.0819  0.7209
 3898TIP3    H133109   6.026   2.480  15.007 -0.7562 -1.0444 -2.2059
 3898TIP3    H233110   6.159   2.446  14.942  1.3497  1.3118  0.6813
 3899TIP3   OH233111   2.211   4.360   4.118 -0.3155 -0.2449 -0.8464
 3899TIP3    H133112   2.269   4.310   4.176  0.4378  0.1439 -1.2574
 3899TIP3    H233113   2.265   4.381   4.042 -1.2731 -0.6736 -1.6640
 3900TIP3   OH233114   4.687   2.604   6.308 -0.1367 -0.6470 -0.1702
 3900TIP3    H133115   4.597   2.571   6.305 -0.5559  0.4359  0.2598
 3900TIP3    H233116   4.706   2.612   6.401  0.0112  0.1979 -0.2771
 3901TIP3   OH233117   3.463   6.009  12.650  0.4126  0.5227  0.0870
 3901TIP3    H133118   3.406   5.962  12.711  0.2740  0.4382 -0.1072
 3901TIP3    H233119   3.551   5.995  12.684  0.2282  1.6368  1.0468
 3902TIP3   OH233120   5.360   0.921   4.010 -0.2871 -0.1829  0.0725
 3902TIP3    H133121   5.432   0.974   4.044 -0.4573 -0.3694  0.7341
 3902TIP3    H233122   5.384   0.831   4.032 -0.4868 -0.2864 -0.1377
 3903TIP3   OH233123   5.234   5.397  14.158 -0.3063  0.2483  0.0825
 3903TIP3    H133124   5.226   5.319  14.104  2.7871 -1.2277  1.6047
 3903TIP3    H233125   5.190   5.374  14.240  1.3806 -0.2836  0.8646
 3904TIP3   OH233126   1.323   2.418   6.216 -0.5589  0.1283 -0.2505
 3904TIP3    H133127   1.381   2.361   6.166  3.5467  0.2531  4.0609
 3904TIP3    H233128   1.266   2.357   6.265 -1.2234 -0.0750 -1.2617
 3905TIP3   OH233129   3.980   3.892   3.474  0.2630  0.0263  0.0505
 3905TIP3    H133130   3.971   3.836   3.552 -1.7203 -0.1835 -0.3029
 3905TIP3    H233131   4.006   3.977   3.509  3.4452 -1.0889  0.5859
 3906TIP3   OH233132   3.143   3.666  16.172 -0.5836 -0.7490 -0.2623
 3906TIP3    H133133   3.197   3.675  16.094  0.3328 -0.5732  0.3773
 3906TIP3    H233134   3.079   3.737  16.166 -0.4585 -0.6826 -0.8072
 3907TIP3   OH233135   0.312   2.329   2.894 -0.3391  0.2748 -0.5003
 3907TIP3    H133136   0.364   2.398   2.936 -0.2299  0.0188 -0.2158
 3907TIP3    H233137   0.281   2.275   2.967  0.6256 -0.7157 -0.8168
 3908TIP3   OH233138   5.665   0.664   0.773 -0.1877  0.2084  0.2606
 3908TIP3    H133139   5.590   0.615   0.806  0.9977 -1.1208  1.0651
 3908TIP3    H233140   5.657   0.659   0.678 -0.7216 -0.5635  0.3352
 3909TIP3   OH233141   5.330   2.267  16.206 -0.5421 -0.3779  0.0758
 3909TIP3    H133142   5.342   2.302  16.118 -0.2364 -2.3454 -0.6897
 3909TIP3    H233143   5.318   2.173  16.193 -0.2007 -0.7287  2.1567
 3910TIP3   OH233144   5.068   5.655   4.465  0.2223 -0.2173  0.5602
 3910TIP3    H133145   4.999   5.652   4.399 -0.2645 -0.2791  1.0651
 3910TIP3    H233146   5.143   5.615   4.422  0.0079  0.0339 -0.0663
 3911TIP3   OH233147   0.389   3.915  14.858 -0.0604 -0.3491 -0.7075
 3911TIP3    H133148   0.324   3.926  14.928 -0.3872 -1.8359 -0.7414
 3911TIP3    H233149   0.469   3.888  14.904  0.1454  0.1312 -0.7827
 3912TIP3   OH233150   6.743   2.370  14.889  0.3526  0.8159 -0.0035
 3912TIP3    H133151   6.805   2.328  14.829  0.2929  3.0687 -1.6780
 3912TIP3    H233152   6.661   2.323  14.875  0.7216  0.3259 -0.5751
 3913TIP3   OH233153   0.868   2.185  12.117  0.6672  0.3484  0.8891
 3913TIP3    H133154   0.826   2.268  12.093 -0.1548  0.2141  1.8383
 3913TIP3    H233155   0.962   2.204  12.114  0.5075  1.0748  0.2663
 3914TIP3   OH233156   5.066   5.922   2.680 -0.0134  0.3470 -0.4065
 3914TIP3    H133157   4.999   5.887   2.738 -0.6764 -0.6133 -1.7322
 3914TIP3    H233158   5.044   6.015   2.670  0.7662  0.7848  1.7588
 3915TIP3   OH233159   0.464   3.763   3.539  0.0557 -0.4719  0.2395
 3915TIP3    H133160   0.497   3.794   3.455  1.1423  0.5646  1.0322
 3915TIP3    H233161   0.538   3.716   3.578 -0.2925 -0.5351  0.8237
 3916TIP3   OH233162   4.403   0.674  11.900  0.1790  0.3384 -0.4438
 3916TIP3    H133163   4.387   0.703  11.810 -0.0755  0.1086 -0.4738
 3916TIP3    H233164   4.316   0.669  11.940  0.4281  2.5572  0.4866
 3917TIP3   OH233165   6.200   4.511  11.118 -0.6901  0.1015 -0.4024
 3917TIP3    H133166   6.154   4.485  11.197 -2.0613 -0.5973 -1.4086
 3917TIP3    H233167   6.179   4.603  11.106 -2.0762 -0.2807 -1.0062
 3918TIP3   OH233168   0.164   1.941  13.135  0.4760  0.3895 -0.4012
 3918TIP3    H133169   0.198   1.980  13.054  0.0328 -0.1250 -0.8397
 3918TIP3    H233170   0.074   1.972  13.140 -0.0241 -0.9475 -0.9966
 3919TIP3   OH233171   2.776   3.105  14.835 -0.6681  0.2741 -0.1411
 3919TIP3    H133172   2.696   3.117  14.886 -1.1077  2.7264 -1.3675
 3919TIP3    H233173   2.846   3.133  14.894 -0.9326  0.5766  0.0308
 3920TIP3   OH233174   1.605   2.915   5.650 -0.6334  0.5942 -0.3869
 3920TIP3    H133175   1.582   2.985   5.711  0.2738  2.2215 -1.8779
 3920TIP3    H233176   1.634   2.960   5.571  0.7292 -1.4585 -1.1013
 3921TIP3   OH233177   5.707   4.108   4.950 -0.2985 -0.3153 -0.0872
 3921TIP3    H133178   5.710   4.035   5.011 -1.3543  0.0289  0.3930
 3921TIP3    H233179   5.677   4.070   4.868  3.5484 -1.2423 -1.1210
 3922TIP3   OH233180   5.620   4.145  13.521 -0.0249  0.3206 -0.0722
 3922TIP3    H133181   5.532   4.110  13.508  1.1753 -2.2145 -1.8569
 3922TIP3    H233182   5.661   4.138  13.435  2.0276  1.1415  0.8190
 3923TIP3   OH233183   1.589   1.851  15.731 -0.3899  0.7991  0.3910
 3923TIP3    H133184   1.597   1.755  15.731  2.3958  0.9935 -0.6578
 3923TIP3    H233185   1.531   1.870  15.656 -0.4644 -0.0247  0.2311
 3924TIP3   OH233186   3.092   1.067   5.892  0.3305  0.3184  0.1610
 3924TIP3    H133187   3.085   1.024   5.978  3.1163 -0.6490 -0.0481
 3924TIP3    H233188   3.045   1.150   5.903 -1.2077 -0.7506  1.9582
 3925TIP3   OH233189   4.068   0.811  14.992 -0.3741  0.1845  0.2526
 3925TIP3    H133190   4.035   0.886  14.944  0.9203  0.5861 -0.0019
 3925TIP3    H233191   4.144   0.843  15.040  2.0839 -1.6806 -2.2886
 3926TIP3   OH233192   6.600   3.786   3.977  0.2953 -0.6499  0.4000
 3926TIP3    H133193   6.623   3.693   3.976  2.0321 -0.2237 -1.4243
 3926TIP3    H233194   6.515   3.790   3.935  0.5105 -1.3462 -0.1109
 3927TIP3   OH233195   2.088   3.091   1.085 -0.2367  0.0092  0.0658
 3927TIP3    H133196   2.027   3.105   1.013 -0.7569 -1.1260  0.2757
 3927TIP3    H233197   2.045   3.128   1.162 -1.2438 -1.8840  0.4579
 3928TIP3   OH233198   5.008   6.517  12.957  0.2630 -0.3359 -1.0377
 3928TIP3    H133199   5.087   6.498  13.009  0.2898 -1.2534 -1.4064
 3928TIP3    H233200   4.955   6.438  12.964 -0.2234 -0.0545 -1.5253
 3929TIP3   OH233201   5.997   6.511   4.364  0.5616 -0.2263  0.2699
 3929TIP3    H133202   6.055   6.469   4.428 -0.4121 -2.3330 -0.1829
 3929TIP3    H233203   6.008   6.460   4.284 -0.0884  0.8677 -0.5363
 3930TIP3   OH233204   4.899   4.293   0.232 -0.3196 -0.2290 -0.4387
 3930TIP3    H133205   4.967   4.304   0.165 -0.6296 -1.4898 -0.9843
 3930TIP3    H233206   4.948   4.271   0.312 -0.0776 -0.9595 -0.7868
 3931TIP3   OH233207   4.785   6.639   5.848 -0.1181 -0.0767  0.2129
 3931TIP3    H133208   4.743   6.568   5.897  1.0790 -1.1520 -0.2934
 3931TIP3    H233209   4.854   6.670   5.906 -0.2106  0.2375  0.1562
 3932TIP3   OH233210   1.939   4.599  14.812 -0.0093 -0.8603  0.0782
 3932TIP3    H133211   1.903   4.585  14.900  0.3176 -1.0319  0.1882
 3932TIP3    H233212   1.864   4.624  14.759 -0.3024 -1.2845  0.2852
 3933TIP3   OH233213   2.464   4.787  10.871  0.1276 -0.2947 -0.0369
 3933TIP3    H133214   2.509   4.727  10.812  0.8297 -0.3632  0.5706
 3933TIP3    H233215   2.534   4.829  10.921 -0.5928 -2.3612  2.8029
 3934TIP3   OH233216   1.631   5.907  14.991  0.2978  0.1067 -0.3470
 3934TIP3    H133217   1.571   5.839  15.023  0.5615  0.7252  1.5615
 3934TIP3    H233218   1.702   5.907  15.055  0.4750  1.9241 -0.5212
 3935TIP3   OH233219   5.745   3.627   5.592 -0.2984 -0.4629  0.1627
 3935TIP3    H133220   5.731   3.533   5.585 -0.6183 -0.5855  2.3659
 3935TIP3    H233221   5.658   3.665   5.580 -0.7684 -0.6499  2.7983
 3936TIP3   OH233222   5.558   0.155  12.544  0.2234  0.1177  0.3990
 3936TIP3    H133223   5.502   0.143  12.621 -1.5428  2.7717 -0.4084
 3936TIP3    H233224   5.639   0.193  12.578 -1.0677  2.5799  0.8613
 3937TIP3   OH233225   5.803   1.358  11.647 -0.1379  0.4137  0.2954
 3937TIP3    H133226   5.788   1.319  11.561  1.3232 -1.7426  0.9563
 3937TIP3    H233227   5.799   1.452  11.632  2.4589  0.1612 -2.6358
 3938TIP3   OH233228   5.110   5.413   5.734 -0.4402 -0.0745  0.9519
 3938TIP3    H133229   5.059   5.367   5.668  0.8662  0.5898 -0.5440
 3938TIP3    H233230   5.070   5.499   5.741 -0.6297 -0.1732  1.0829
 3939TIP3   OH233231   4.779   3.806  15.466 -0.6592 -0.3859  0.3379
 3939TIP3    H133232   4.794   3.744  15.395 -1.7013 -1.8924  1.3989
 3939TIP3    H233233   4.866   3.841  15.486 -0.4739  0.6688 -2.1932
 3940TIP3   OH233234   5.333   4.345  15.233 -0.7640  0.0860 -0.7315
 3940TIP3    H133235   5.300   4.255  15.242  2.1376 -0.9001  0.7341
 3940TIP3    H233236   5.313   4.387  15.316 -0.8044  0.3399 -0.8698
 3941TIP3   OH233237   4.279   0.321   6.335  0.3953  0.3026 -0.5563
 3941TIP3    H133238   4.263   0.324   6.430  0.1716 -1.0870 -0.5419
 3941TIP3    H233239   4.372   0.298   6.328  0.0370 -1.1059 -0.6805
 3942TIP3   OH233240   4.928   1.939  13.661 -0.0213  0.5232 -0.3597
 3942TIP3    H133241   4.997   1.904  13.605  0.0033 -0.6351  0.3914
 3942TIP3    H233242   4.899   1.865  13.714 -1.8376  0.9908 -0.6541
 3943TIP3   OH233243   5.235   2.715  11.718  0.2466 -0.1645 -0.7285
 3943TIP3    H133244   5.241   2.656  11.643  2.3721 -1.0004  0.0823
 3943TIP3    H233245   5.148   2.698  11.754  0.5140 -2.2232 -0.9847
 3944TIP3   OH233246   4.379   3.556  14.793 -0.1453 -0.6259  0.3826
 3944TIP3    H133247   4.330   3.503  14.729 -2.1546  1.4719  0.1293
 3944TIP3    H233248   4.463   3.572  14.751 -0.5694 -1.2558 -0.7302
 3945TIP3   OH233249   3.410   3.591  13.660  0.1816 -0.0833  0.0124
 3945TIP3    H133250   3.373   3.510  13.695  0.2705 -0.4606 -0.7558
 3945TIP3    H233251   3.363   3.660  13.707 -2.6108 -0.5346 -1.9824
 3946TIP3   OH233252   4.230   4.500  13.774  0.2211  0.3894  0.5044
 3946TIP3    H133253   4.310   4.551  13.785  1.0669 -0.0512 -3.0128
 3946TIP3    H233254   4.259   4.419  13.732 -2.2670  1.0500 -2.6520
 3947TIP3   OH233255   6.181   4.448   4.883 -0.2792 -0.1209 -0.2627
 3947TIP3    H133256   6.169   4.361   4.846 -0.1065 -0.5915  0.7572
 3947TIP3    H233257   6.107   4.459   4.943 -0.6100  0.6617 -0.8106
 3948TIP3   OH233258   2.953   0.908   4.363  0.3421 -0.0178  0.4731
 3948TIP3    H133259   2.885   0.888   4.299 -0.5481  1.9794  0.7515
 3948TIP3    H233260   2.928   0.859   4.441 -0.2099 -0.0964  0.2464
 3949TIP3   OH233261   6.070   3.744  16.775 -0.1029  0.4878  0.1748
 3949TIP3    H133262   6.029   3.794  16.845  1.0739  0.5221  0.8647
 3949TIP3    H233263   6.006   3.677  16.752 -0.7809  0.9125  0.8067
 3950TIP3   OH233264   3.408   0.347   4.670  0.4457  0.2214  0.0120
 3950TIP3    H133265   3.319   0.371   4.697  0.1666 -2.6901  1.9077
 3950TIP3    H233266   3.403   0.337   4.575 -0.9274  1.3255 -0.0485
 3951TIP3   OH233267   1.359   0.818  13.066 -0.4075 -0.1014 -0.3214
 3951TIP3    H133268   1.401   0.732  13.072 -2.0340 -1.0402 -2.0933
 3951TIP3    H233269   1.409   0.864  12.999 -0.2561 -0.0623 -0.1840
 3952TIP3   OH233270   3.661   2.632   2.553  0.2283 -0.8412  0.8182
 3952TIP3    H133271   3.744   2.602   2.515  0.9364  0.2305  1.5076
 3952TIP3    H233272   3.600   2.635   2.479  1.2480 -0.0159  0.0132
 3953TIP3   OH233273   6.607   2.112   3.396 -0.4161 -0.1992 -0.0480
 3953TIP3    H133274   6.619   2.207   3.396  1.1421 -0.3838 -0.0932
 3953TIP3    H233275   6.661   2.081   3.323  0.0430 -1.2217  0.7104
 3954TIP3   OH233276   0.187   0.880  15.530  0.3515 -0.0181  0.3706
 3954TIP3    H133277   0.188   0.796  15.485 -1.1413  0.6902 -1.0150
 3954TIP3    H233278   0.247   0.936  15.480 -1.6380  0.8990 -1.0385
 3955TIP3   OH233279   4.722   3.847   1.531  0.1314  0.0903 -0.0498
 3955TIP3    H133280   4.700   3.816   1.444  0.1646  2.7797 -1.0402
 3955TIP3    H233281   4.805   3.894   1.520 -0.0479  0.7686  1.3550
 3956TIP3   OH233282   6.733   4.904   1.045 -0.0382  0.0572  0.4514
 3956TIP3    H133283   6.700   4.885   1.133 -1.2350  0.3902  0.0869
 3956TIP3    H233284   6.732   4.819   1.000 -0.6481  0.1027  0.3695
 3957TIP3   OH233285   4.936   1.610  12.223 -0.2896 -0.0394 -0.5628
 3957TIP3    H133286   4.889   1.678  12.174 -1.0917  0.8390  1.3636
 3957TIP3    H233287   4.918   1.529  12.176 -0.4909  0.8914 -2.0952
 3958TIP3   OH233288   0.210   0.558   0.267  0.3960 -0.3810  0.2102
 3958TIP3    H133289   0.241   0.648   0.269  0.7771 -0.5384  2.2327
 3958TIP3    H233290   0.115   0.566   0.255  0.5631  0.2468 -0.7308
 3959TIP3   OH233291   1.243   6.483  14.838 -0.8806  0.4974 -0.6324
 3959TIP3    H133292   1.304   6.549  14.806  0.5729 -0.3385  0.3565
 3959TIP3    H233293   1.159   6.528  14.843 -0.0722  2.0305 -0.7390
 3960TIP3   OH233294   6.777   2.746  15.119  0.0725  0.8726  0.2784
 3960TIP3    H133295   6.790   2.809  15.190  0.5336  0.0395  0.9422
 3960TIP3    H233296   6.691   2.706  15.139 -0.3829  1.5454 -0.3390
 3961TIP3   OH233297   4.398   0.371  12.882 -0.0762  0.4003 -0.4775
 3961TIP3    H133298   4.370   0.331  12.964  1.2517  0.3793 -0.0229
 3961TIP3    H233299   4.464   0.311  12.847 -0.5917  0.4334 -1.5458
 3962TIP3   OH233300   0.695   3.746  14.103  0.7455 -0.5522 -0.1035
 3962TIP3    H133301   0.611   3.704  14.084  0.7067 -0.4155 -0.2376
 3962TIP3    H233302   0.695   3.757  14.198 -0.2385  1.2090 -0.2733
 3963TIP3   OH233303   1.842   5.294   3.851  0.1082 -0.2833 -0.4174
 3963TIP3    H133304   1.765   5.318   3.799 -0.2099 -0.5279 -0.0594
 3963TIP3    H233305   1.851   5.199   3.838 -0.5820 -0.5155  0.7977
 3964TIP3   OH233306   6.272   2.398  11.619 -0.2620 -0.2351  0.2631
 3964TIP3    H133307   6.231   2.319  11.584 -2.8539  0.6809  1.0485
 3964TIP3    H233308   6.321   2.435  11.546  1.0919 -2.6169 -0.0709
 3965TIP3   OH233309   2.060   1.269   1.166  0.6307  0.3711 -0.9824
 3965TIP3    H133310   2.120   1.334   1.202  2.6428 -0.8821 -1.9109
 3965TIP3    H233311   2.009   1.317   1.100  0.7676  1.4100 -0.3415
 3966TIP3   OH233312   1.459   5.271   3.253  0.2676  0.2481 -0.2398
 3966TIP3    H133313   1.478   5.319   3.173 -0.1744  1.4874  0.3867
 3966TIP3    H233314   1.377   5.225   3.235  0.1031  0.6275 -0.4546
 3967TIP3   OH233315   5.995   2.972  14.578  0.2680 -0.3205 -0.3981
 3967TIP3    H133316   5.926   3.037  14.563  1.3204  1.0007  0.4330
 3967TIP3    H233317   6.048   3.009  14.648  2.3683 -0.8925 -1.6490
 3968TIP3   OH233318   4.774   5.528  14.393 -0.0954  0.3030  0.0844
 3968TIP3    H133319   4.721   5.449  14.382  0.1936  0.2013 -0.6279
 3968TIP3    H233320   4.711   5.598  14.409 -0.4401  0.1697 -0.6901
 3969TIP3   OH233321   5.411   5.738  16.100  0.0434  0.0805  0.1379
 3969TIP3    H133322   5.452   5.719  16.016 -0.6543  2.9707 -0.8908
 3969TIP3    H233323   5.456   5.680  16.162  1.5465 -1.0516 -1.9518
 3970TIP3   OH233324   1.486   2.231   2.073  0.3503  0.4747  0.2141
 3970TIP3    H133325   1.434   2.215   2.151 -0.1972 -1.0602 -0.4601
 3970TIP3    H233326   1.423   2.232   2.001  0.6132  3.5546 -0.0756
 3971TIP3   OH233327   4.409   2.079   4.514  0.3715  0.4269  0.8073
 3971TIP3    H133328   4.378   2.078   4.605 -1.4492  0.2688  0.2168
 3971TIP3    H233329   4.478   2.014   4.511 -0.5324 -0.5869  1.7614
 3972TIP3   OH233330   4.918   0.268  13.640 -0.4801 -0.7301 -0.2610
 3972TIP3    H133331   4.923   0.276  13.545 -2.2800  1.0530 -0.2217
 3972TIP3    H233332   4.833   0.228  13.657 -0.9955  0.6957  0.6528
 3973TIP3   OH233333   1.272   4.132  14.521  0.2056  0.2509 -0.0666
 3973TIP3    H133334   1.263   4.036  14.518  1.6656  0.1292 -2.1562
 3973TIP3    H233335   1.311   4.150  14.606 -2.3105 -0.7681  1.3592
 3974TIP3   OH233336   6.437   5.670  13.266 -0.3503 -0.3722 -0.4436
 3974TIP3    H133337   6.529   5.652  13.247 -0.2931 -0.2080 -0.3184
 3974TIP3    H233338   6.438   5.745  13.325 -0.5713 -0.2551 -0.5845
 3975TIP3   OH233339   1.976   1.283   5.075 -0.1519  0.8492  0.0484
 3975TIP3    H133340   2.046   1.271   5.139  0.5651  2.0313 -0.4860
 3975TIP3    H233341   1.962   1.196   5.038 -0.6793  0.1298  1.9177
 3976TIP3   OH233342   6.584   3.424   2.949 -0.1661  0.3694  0.7116
 3976TIP3    H133343   6.612   3.487   3.015  0.5331  1.5304 -0.6838
 3976TIP3    H233344   6.665   3.382   2.920 -0.5763 -0.8550  1.2958
 3977TIP3   OH233345   3.350   5.529  11.276  0.3602  0.1264 -0.4460
 3977TIP3    H133346   3.344   5.434  11.264  1.4702  0.0238 -0.2864
 3977TIP3    H233347   3.291   5.549  11.348  1.1294 -0.6372  0.4140
 3978TIP3   OH233348   3.940   1.636  12.938 -0.2998  0.0146  0.2347
 3978TIP3    H133349   3.876   1.666  13.003 -1.3395 -1.2289 -0.1906
 3978TIP3    H233350   3.917   1.544  12.923  0.4656  0.0563 -1.2624
 3979TIP3   OH233351   1.904   4.599   4.515  0.3796  0.0667  0.7721
 3979TIP3    H133352   1.963   4.675   4.517 -0.1889  0.5032  1.1390
 3979TIP3    H233353   1.891   4.581   4.422 -0.3546  1.1077  0.6650
 3980TIP3   OH233354   0.337   3.004  10.698 -0.1874  0.4612  0.1421
 3980TIP3    H133355   0.276   2.983  10.768  0.2237  2.9152  1.2981
 3980TIP3    H233356   0.282   3.021  10.622 -0.6831 -1.3388  0.0722
 3981TIP3   OH233357   2.041   5.347  11.276  0.1399 -0.1340  0.3850
 3981TIP3    H133358   2.053   5.256  11.303 -1.3244 -0.7014 -0.7418
 3981TIP3    H233359   2.061   5.347  11.182 -0.5680  0.5318  0.2220
 3982TIP3   OH233360   2.712   2.852   1.748 -0.2728  0.5468  0.0266
 3982TIP3    H133361   2.803   2.868   1.722  0.4845 -2.7016  0.3693
 3982TIP3    H233362   2.707   2.886   1.838  1.2494 -1.1244  0.7798
 3983TIP3   OH233363   5.370   2.959  15.080  0.2701 -0.2902  0.3792
 3983TIP3    H133364   5.415   2.943  15.163 -1.3102  1.0254  1.5156
 3983TIP3    H233365   5.391   3.050  15.059 -0.4742 -0.1954  0.0440
 3984TIP3   OH233366   2.723   0.034   1.733  0.4268 -0.7800  0.4584
 3984TIP3    H133367   2.671   0.079   1.800  0.4706 -2.0498  1.3533
 3984TIP3    H233368   2.757  -0.044   1.777  1.1577 -1.1849 -0.8015
 3985TIP3   OH233369   3.293   1.935   3.733 -0.3193  0.0371 -0.3372
 3985TIP3    H133370   3.262   1.946   3.643 -1.2475 -0.8405 -0.1318
 3985TIP3    H233371   3.254   2.008   3.780 -0.1351  0.2883 -0.5736
 3986TIP3   OH233372   2.167   4.280   0.733  0.4121  0.4296  0.1910
 3986TIP3    H133373   2.178   4.280   0.828 -0.5348 -1.3839  0.3059
 3986TIP3    H233374   2.152   4.189   0.710 -2.7813  1.2516 -1.2907
 3987TIP3   OH233375   3.027   1.055   1.057  0.1367 -0.0759  0.3837
 3987TIP3    H133376   2.953   0.999   1.033 -0.7956  1.9016 -1.5427
 3987TIP3    H233377   3.087   0.997   1.104 -2.1963 -1.9384  1.1486
 3988TIP3   OH233378   5.620   0.255  17.105  0.3150  0.0915 -0.5275
 3988TIP3    H133379   5.635   0.206  17.024 -1.2680 -2.1647  0.5196
 3988TIP3    H233380   5.577   0.336  17.076  0.8773 -0.1301 -2.0418
 3989TIP3   OH233381   6.088   5.487  17.238  0.4001  0.4534  0.1647
 3989TIP3    H133382   6.129   5.572  17.226  2.0336 -0.1155  1.4699
 3989TIP3    H233383   6.159   5.429  17.265 -0.7269 -1.2724 -0.4424
 3990TIP3   OH233384   1.860   6.215  11.624  0.0847  0.5263  0.0230
 3990TIP3    H133385   1.927   6.278  11.598 -0.8540  2.0760  1.2902
 3990TIP3    H233386   1.840   6.167  11.543  3.6702 -0.9393 -0.0784
 3991TIP3   OH233387   3.981   3.995   3.825  0.0676 -0.2869  0.3398
 3991TIP3    H133388   3.993   4.009   3.919  0.8337  0.5643  0.1170
 3991TIP3    H233389   4.034   4.063   3.783 -0.4682 -0.5037 -0.7083
 3992TIP3   OH233390   3.802   2.218  14.277  0.1520  0.7254 -0.3293
 3992TIP3    H133391   3.872   2.248  14.334 -0.6734  1.0475  0.5331
 3992TIP3    H233392   3.756   2.298  14.252 -1.7417  0.2569  1.5493
 3993TIP3   OH233393   2.783   3.474   2.760 -0.1094 -0.4582 -0.0557
 3993TIP3    H133394   2.784   3.386   2.723  1.6123 -0.0675 -0.9957
 3993TIP3    H233395   2.722   3.469   2.833 -2.2547 -1.6829 -1.8823
 3994TIP3   OH233396   2.951   0.386  15.825 -0.3155 -0.5000 -0.1835
 3994TIP3    H133397   3.019   0.416  15.886  0.5631 -0.8031 -0.9913
 3994TIP3    H233398   2.999   0.368  15.744 -1.5543  0.5117 -1.1635
 3995TIP3   OH233399   3.628   4.583   5.333  0.4256  0.1226 -0.8620
 3995TIP3    H133400   3.687   4.658   5.336 -1.7001  1.8066 -0.4388
 3995TIP3    H233401   3.561   4.608   5.269 -1.1422 -0.7786  0.4125
 3996TIP3   OH233402   2.985   0.574  15.432  0.1996  0.1418 -0.1320
 3996TIP3    H133403   3.049   0.535  15.491  0.6923  1.2662  0.1024
 3996TIP3    H233404   2.995   0.525  15.350  1.3344  0.2636 -0.0829
 3997TIP3   OH233405   4.032   3.225  13.972 -0.1460  0.8292  0.4766
 3997TIP3    H133406   4.063   3.250  13.885  0.4734 -1.7692 -0.1005
 3997TIP3    H233407   4.104   3.249  14.030  0.3161  0.6096 -0.0049
 3998TIP3   OH233408   3.498   0.696   5.236  0.7921  0.5702  0.3136
 3998TIP3    H133409   3.582   0.721   5.273  1.4723 -0.0114 -0.8209
 3998TIP3    H233410   3.519   0.661   5.149 -0.8009  2.2820 -0.7994
 3999TIP3   OH233411   1.702   4.331  14.900  0.1733 -0.1306  0.3514
 3999TIP3    H133412   1.661   4.410  14.867 -1.1543 -0.8670  0.1941
 3999TIP3    H233413   1.642   4.299  14.968  1.8474  0.2692  2.0713
 4000TIP3   OH233414   0.541   5.884  15.874  0.1544 -0.2373 -0.3034
 4000TIP3    H133415   0.495   5.838  15.803  0.6888  1.5161 -1.8035
 4000TIP3    H233416   0.494   5.967  15.884  1.7062  0.6608 -0.4038
 4001TIP3   OH233417   3.250   1.021  11.137 -0.3088  0.0900 -0.5364
 4001TIP3    H133418   3.169   1.054  11.177 -0.2358 -0.2292 -0.1141
 4001TIP3    H233419   3.319   1.048  11.198 -0.2833 -1.1233 -0.0091
 4002TIP3   OH233420   6.692   2.071  13.506 -0.4068 -0.3206 -0.1393
 4002TIP3    H133421   6.665   2.103  13.593  1.1129 -0.7289  0.4949
 4002TIP3    H233422   6.613   2.030  13.471 -1.5206  1.3191  0.3366
 4003TIP3   OH233423   0.860   6.007   0.771 -0.2343 -0.0076  0.2658
 4003TIP3    H133424   0.802   6.078   0.798 -0.0434 -0.7569  2.7503
 4003TIP3    H233425   0.802   5.944   0.726 -1.0160  0.1144  1.0969
 4004TIP3   OH233426   3.701   5.023   5.008  0.5843  0.4408  0.4529
 4004TIP3    H133427   3.728   4.931   5.004 -1.0556 -0.1041  1.5306
 4004TIP3    H233428   3.606   5.021   5.001  0.5151  2.0537  0.6651
 4005TIP3   OH233429   2.687   6.168   4.015  0.4412  0.4176 -0.5176
 4005TIP3    H133430   2.658   6.230   4.082 -1.5975 -1.2147  0.1598
 4005TIP3    H233431   2.705   6.223   3.938 -2.6845  1.7497 -0.3837
 4006TIP3   OH233432   3.525   5.757  16.197 -0.1765  0.4656  0.5049
 4006TIP3    H133433   3.521   5.850  16.173  1.5941  0.3042 -0.4675
 4006TIP3    H233434   3.573   5.756  16.280 -1.0231  0.4887  1.0029
 4007TIP3   OH233435   0.637   3.038  11.626 -0.1754  0.3486 -0.4201
 4007TIP3    H133436   0.567   2.980  11.658 -0.3362  0.3539 -0.7590
 4007TIP3    H233437   0.591   3.117  11.598 -0.1721 -0.1095 -1.7629
 4008TIP3   OH233438   3.120   0.786   0.109 -0.3309 -0.9061  0.0935
 4008TIP3    H133439   3.163   0.773   0.024 -0.0410 -0.1678  0.1183
 4008TIP3    H233440   3.148   0.874   0.136 -0.5475 -1.0791  0.8799
 4009TIP3   OH233441   5.843   0.579  15.766 -0.4327 -0.2654  0.1857
 4009TIP3    H133442   5.788   0.568  15.689 -1.1135  0.8696  0.5027
 4009TIP3    H233443   5.812   0.512  15.828 -1.7533  0.6588  0.5326
 4010TIP3   OH233444   5.747   0.954  11.651 -0.2971 -0.2280 -0.0727
 4010TIP3    H133445   5.678   0.979  11.589 -0.4379 -2.2801 -0.7646
 4010TIP3    H233446   5.714   0.876  11.694  0.1154  0.7633  2.1177
 4011TIP3   OH233447   1.460   5.893   3.010 -0.2895  0.3347  0.2655
 4011TIP3    H133448   1.397   5.820   3.014  1.4102 -1.1381  0.8171
 4011TIP3    H233449   1.478   5.904   2.917 -1.5479  0.9390  0.0821
 4012TIP3   OH233450   5.520   3.074  13.267  0.1097 -0.3483 -0.2117
 4012TIP3    H133451   5.437   3.065  13.220 -1.4024  2.4265  1.7973
 4012TIP3    H233452   5.500   3.046  13.356  0.6129  2.7861  0.9474
 4013TIP3   OH233453   5.540   4.331  16.264  0.3421 -0.2996 -0.5371
 4013TIP3    H133454   5.491   4.372  16.193 -0.7265  0.1947  0.4624
 4013TIP3    H233455   5.606   4.397  16.288 -0.5519  0.3391  0.2154
 4014TIP3   OH233456   3.826   4.244  11.547  0.5050  0.3550 -0.4244
 4014TIP3    H133457   3.900   4.253  11.487 -0.0059 -0.9184 -1.2568
 4014TIP3    H233458   3.854   4.177  11.610 -0.0459 -0.3353 -0.9100
 4015TIP3   OH233459   4.892   5.666  12.190 -0.1397 -0.0383 -0.0353
 4015TIP3    H133460   4.853   5.726  12.254  0.0589 -0.0139  0.0619
 4015TIP3    H233461   4.957   5.616  12.240  0.1930  0.1548 -0.2718
 4016TIP3   OH233462   3.763   2.806  12.569 -0.0576  0.1300 -0.3313
 4016TIP3    H133463   3.673   2.774  12.557 -0.8210  1.3647  1.7388
 4016TIP3    H233464   3.753   2.900  12.583  1.6852  0.4733 -1.2948
 4017TIP3   OH233465   2.960   1.707  17.068 -0.4861  0.3417 -0.2985
 4017TIP3    H133466   2.892   1.773  17.081  0.8425  1.5925  0.3681
 4017TIP3    H233467   2.930   1.656  16.993 -1.2052  2.1191 -1.2422
 4018TIP3   OH233468   5.792   5.863   3.744  0.1798  0.1427 -0.0458
 4018TIP3    H133469   5.751   5.777   3.758  1.8361 -0.6681 -0.0492
 4018TIP3    H233470   5.803   5.898   3.833 -1.2434  0.7226 -0.0879
 4019TIP3   OH233471   2.582   4.451  13.857 -0.9859 -0.1961 -0.3533
 4019TIP3    H133472   2.598   4.545  13.853 -0.4812 -0.3102 -1.1277
 4019TIP3    H233473   2.558   4.435  13.949  1.9899  0.2065  0.5789
 4020TIP3   OH233474   5.103   2.324   0.751 -0.5372 -0.4889  0.1566
 4020TIP3    H133475   5.197   2.315   0.733 -0.2114  0.8270  1.0647
 4020TIP3    H233476   5.060   2.269   0.686  0.8357 -0.5235 -0.7418
 4021TIP3   OH233477   0.728   4.182  11.122 -0.3124  0.1767  0.1805
 4021TIP3    H133478   0.739   4.212  11.032  0.2063 -0.5151  0.0068
 4021TIP3    H233479   0.640   4.144  11.124 -1.1278  2.0195  0.5032
 4022TIP3   OH233480   1.495   1.927  13.497  0.6698 -0.4900  0.1352
 4022TIP3    H133481   1.571   1.956  13.447  1.0140 -0.8074  0.4752
 4022TIP3    H233482   1.531   1.895  13.580  0.3010 -1.9228 -0.2448
 4023TIP3   OH233483   5.982   3.846   3.109  0.3768 -0.3976  0.6737
 4023TIP3    H133484   5.908   3.825   3.165 -0.0330 -1.6319 -0.3361
 4023TIP3    H233485   6.048   3.780   3.130  0.5321 -0.3660  0.2922
 4024TIP3   OH233486   2.101   2.410  12.928  0.0073  0.3065  0.0425
 4024TIP3    H133487   2.011   2.377  12.931  0.8000 -2.1426 -1.6465
 4024TIP3    H233488   2.147   2.360  12.995  0.2959  0.9414  0.3140
 4025TIP3   OH233489   6.550   3.878  10.770  0.2088  0.2939  0.6693
 4025TIP3    H133490   6.500   3.817  10.716  0.7555  0.3496  0.0896
 4025TIP3    H233491   6.596   3.823  10.833 -0.1036  0.1938  0.8091
 4026TIP3   OH233492   6.590   1.917  16.257  1.0134 -0.0792 -0.5995
 4026TIP3    H133493   6.663   1.978  16.269  0.4072  1.0886 -2.5527
 4026TIP3    H233494   6.512   1.969  16.278  0.5370 -0.3887 -1.5719
 4027TIP3   OH233495   3.877   3.640   5.414  0.0373 -0.3776 -0.3557
 4027TIP3    H133496   3.898   3.667   5.503 -0.4119 -2.2030  0.3270
 4027TIP3    H233497   3.817   3.707   5.381 -0.9940 -0.4820  1.2633
 4028TIP3   OH233498   6.598   1.233   2.610 -0.3861 -0.3507 -0.0470
 4028TIP3    H133499   6.570   1.324   2.622  1.2624  0.5664 -2.7610
 4028TIP3    H233500   6.563   1.188   2.686 -2.3050  2.3056  0.7456
 4029TIP3   OH233501   0.307   4.961  10.467 -0.1207  0.3746  0.2604
 4029TIP3    H133502   0.351   4.877  10.479 -0.6941  0.1052  0.4809
 4029TIP3    H233503   0.337   4.992  10.381 -1.0682 -0.7705 -0.4973
 4030TIP3   OH233504   6.115   1.935   4.043  0.1971 -0.2563  0.1937
 4030TIP3    H133505   6.170   1.987   3.986 -0.2628  0.9714  0.8545
 4030TIP3    H233506   6.173   1.905   4.113  0.0626  0.9198  0.8151
 4031TIP3   OH233507   4.801   2.151   1.065 -0.3202 -0.0992 -0.2669
 4031TIP3    H133508   4.712   2.165   1.034 -0.4470  1.6260  0.7846
 4031TIP3    H233509   4.847   2.113   0.990 -1.8297 -0.6640 -0.9331
 4032TIP3   OH233510   6.126   6.289  11.248 -0.1951 -0.3553 -0.1135
 4032TIP3    H133511   6.087   6.237  11.319 -0.3572  1.5685  1.2381
 4032TIP3    H233512   6.129   6.229  11.174  1.2724 -2.8676  1.8811
 4033TIP3   OH233513   0.492   3.155   1.328  0.2038 -1.0889 -0.1094
 4033TIP3    H133514   0.440   3.225   1.289  0.0527 -1.7133 -1.0410
 4033TIP3    H233515   0.445   3.130   1.408  0.1253 -0.3113  0.0842
 4034TIP3   OH233516   1.727   3.345   5.724 -0.2347  0.5894 -0.4700
 4034TIP3    H133517   1.680   3.382   5.799  1.7547 -1.5486  1.9390
 4034TIP3    H233518   1.675   3.270   5.698  0.2612 -0.0277  0.2888
 4035TIP3   OH233519   3.423   3.231  12.944  0.2764  0.2033  0.4954
 4035TIP3    H133520   3.470   3.283  13.009  1.4125  0.3527 -0.4207
 4035TIP3    H233521   3.447   3.140  12.964 -1.6711 -0.0038  2.0663
 4036TIP3   OH233522   0.886   1.789   4.906  0.7659  0.2668  0.2032
 4036TIP3    H133523   0.839   1.769   4.825  0.9999 -1.8876  0.5820
 4036TIP3    H233524   0.973   1.752   4.893  1.4943  1.8210  0.5973
 4037TIP3   OH233525   6.294   5.551   0.501  0.0978 -0.0850  0.0232
 4037TIP3    H133526   6.350   5.576   0.428  2.6919 -0.1859  1.9092
 4037TIP3    H233527   6.298   5.455   0.502 -1.1508 -0.1587 -0.5850
 4038TIP3   OH233528   4.197   0.717  13.100 -0.6881  0.6837 -0.4863
 4038TIP3    H133529   4.119   0.770  13.113 -0.7155  0.4308  0.3821
 4038TIP3    H233530   4.183   0.638  13.153 -0.1444  0.3285 -0.8570
 4039TIP3   OH233531   1.028   2.351   5.989  0.1464  0.2274 -0.2553
 4039TIP3    H133532   1.068   2.304   5.916 -2.3187  0.8692 -2.0886
 4039TIP3    H233533   1.046   2.443   5.971 -3.5399  0.6948 -2.1203
 4040TIP3   OH233534   2.641   2.310  13.490 -0.0052  0.5752  0.4495
 4040TIP3    H133535   2.560   2.354  13.517 -0.2109  0.8074 -0.5196
 4040TIP3    H233536   2.703   2.381  13.474  0.8027  0.3535  2.4089
 4041TIP3   OH233537   4.944   5.687   1.949  0.0442  0.4744  0.2808
 4041TIP3    H133538   4.864   5.636   1.936 -0.6508  1.2539  1.4771
 4041TIP3    H233539   4.914   5.775   1.972  1.2277  1.4034 -1.5442
 4042TIP3   OH233540   5.726   0.259  15.402  0.1042 -0.4202  0.0500
 4042TIP3    H133541   5.788   0.215  15.344  1.8037 -0.6856  2.0393
 4042TIP3    H233542   5.749   0.230  15.490 -2.2835  0.1746  0.9107
 4043TIP3   OH233543   2.335   0.039   1.342  0.1493 -0.2351 -0.1853
 4043TIP3    H133544   2.392   0.113   1.365 -0.5062  0.4961 -0.8467
 4043TIP3    H233545   2.249   0.080   1.328 -0.7674 -1.4436  1.7456
 4044TIP3   OH233546   4.272   0.005  13.894 -0.2570  0.3152 -0.1916
 4044TIP3    H133547   4.235   0.066  13.957  0.5047  0.5666  0.0192
 4044TIP3    H233548   4.247   0.041  13.808  0.8547  1.3774 -0.0905
 4045TIP3   OH233549   3.242   0.599  10.702 -0.0592 -0.0054 -0.4850
 4045TIP3    H133550   3.301   0.563  10.636 -0.9384  1.9252 -2.3891
 4045TIP3    H233551   3.250   0.694  10.692 -3.6105  0.3140 -0.9544
 4046TIP3   OH233552   2.695   4.921   3.926  0.0239 -0.6913  0.3889
 4046TIP3    H133553   2.657   4.996   3.972  1.2285  0.1674 -0.0025
 4046TIP3    H233554   2.723   4.862   3.996 -0.6531 -0.6503  0.7042
 4047TIP3   OH233555   5.726   2.069   0.429  0.4892  0.2571 -0.7776
 4047TIP3    H133556   5.709   2.130   0.501  0.7454 -0.9163  0.2896
 4047TIP3    H233557   5.657   2.087   0.366  0.2801  1.3276 -0.2543
 4048TIP3   OH233558   1.154   2.438   2.254  0.5617  0.1556 -0.5952
 4048TIP3    H133559   1.222   2.490   2.213 -0.5875  1.2497 -1.1573
 4048TIP3    H233560   1.134   2.484   2.336  0.7327 -0.3526 -0.2602
 4049TIP3   OH233561   1.560   5.008  12.478 -0.1049  0.4238 -0.0944
 4049TIP3    H133562   1.469   5.036  12.470 -1.1889 -2.5865  0.8607
 4049TIP3    H233563   1.554   4.914  12.497  3.1711  0.4910  1.5408
 4050TIP3   OH233564   1.241   5.074   3.233  0.5314 -0.3432 -0.5627
 4050TIP3    H133565   1.208   4.989   3.262 -1.9675 -0.0419 -2.3964
 4050TIP3    H233566   1.284   5.054   3.150  0.4052  0.1079 -0.7322
 4051TIP3   OH233567   6.035   4.699   2.467 -0.1801  0.1080 -0.6225
 4051TIP3    H133568   6.016   4.764   2.534  1.0709  2.6473 -2.6457
 4051TIP3    H233569   5.952   4.686   2.422 -0.1229  1.4490 -1.1462
 4052TIP3   OH233570   6.188   2.464  14.114  0.2695 -0.1362  0.3491
 4052TIP3    H133571   6.166   2.371  14.117 -1.0683  0.1550 -0.1230
 4052TIP3    H233572   6.117   2.507  14.163 -0.8062  0.9219 -2.0326
 4053TIP3   OH233573   4.861   3.836  14.212  0.3809 -0.0828 -0.8221
 4053TIP3    H133574   4.899   3.800  14.292 -1.7839  2.1147  1.2554
 4053TIP3    H233575   4.910   3.917  14.196 -0.0307  0.1402 -0.9753
 4054TIP3   OH233576   2.249   2.769  11.669  0.2446  0.9652  0.2235
 4054TIP3    H133577   2.203   2.722  11.599 -3.8107  3.6407  0.9221
 4054TIP3    H233578   2.253   2.706  11.741  0.4344 -0.3345 -0.9068
 4055TIP3   OH233579   4.357   6.695  10.762  0.1885 -0.0989  0.4630
 4055TIP3    H133580   4.327   6.605  10.779  1.7454 -0.6665  0.3133
 4055TIP3    H233581   4.373   6.731  10.849 -3.1339  1.0207  0.6679
 4056TIP3   OH233582   0.223   5.570  12.214 -0.4382 -0.1697 -0.4180
 4056TIP3    H133583   0.139   5.524  12.220  0.6285 -2.0262  0.8852
 4056TIP3    H233584   0.231   5.616  12.298 -0.7129  0.9864 -1.0290
 4057TIP3   OH233585   3.649   1.637  12.655  0.1754  0.0907 -0.4524
 4057TIP3    H133586   3.609   1.722  12.670  0.0442 -0.2807  1.3623
 4057TIP3    H233587   3.612   1.607  12.572 -2.0985  0.4515  0.4038
 4058TIP3   OH233588   1.632   3.061  11.404  0.4965 -0.0729 -0.4452
 4058TIP3    H133589   1.720   3.092  11.379  0.8439  0.4395  1.3404
 4058TIP3    H233590   1.572   3.119  11.357  1.1408  2.6006  1.8747
 4059TIP3   OH233591   4.670   0.054  16.404  0.3637 -0.5152 -0.1155
 4059TIP3    H133592   4.758   0.018  16.394  1.4516  1.3647  2.1243
 4059TIP3    H233593   4.630  -0.000  16.473  0.4279 -0.2368  0.1429
 4060TIP3   OH233594   3.345   0.424   5.019  0.1237 -0.1005  0.2678
 4060TIP3    H133595   3.314   0.334   5.028  0.7441 -0.1094  2.7937
 4060TIP3    H233596   3.440   0.414   5.007  0.1595  0.1948  0.3213
 4061TIP3   OH233597   4.283   1.081  12.661 -0.0256  0.1908 -0.0144
 4061TIP3    H133598   4.268   1.129  12.580 -0.3852  0.7245  0.3625
 4061TIP3    H233599   4.283   1.148  12.729 -0.8794 -0.3739  0.5547
 4062TIP3   OH233600   2.809   0.773   1.808  0.0056 -0.4977 -0.3090
 4062TIP3    H133601   2.801   0.868   1.814  1.7071 -0.2764 -1.2337
 4062TIP3    H233602   2.866   0.750   1.882 -0.7109 -0.8459  0.1370
 4063TIP3   OH233603   3.563   5.047   5.298  0.6881 -0.0344  0.2285
 4063TIP3    H133604   3.607   5.132   5.293 -1.0936  0.8789 -0.0614
 4063TIP3    H233605   3.470   5.067   5.292  0.2524 -2.0270  0.0114
 4064TIP3   OH233606   1.303   3.528  16.300  0.1269  0.1907 -0.1284
 4064TIP3    H133607   1.318   3.590  16.229 -1.7381  0.9242  0.0844
 4064TIP3    H233608   1.327   3.443  16.263 -0.2987  0.6300 -1.4538
 4065TIP3   OH233609   4.568   2.270   3.669  0.3795  0.3279  0.0406
 4065TIP3    H133610   4.556   2.195   3.727  0.0521 -1.2719 -2.0251
 4065TIP3    H233611   4.526   2.343   3.714 -1.0883 -1.1898  1.1641
 4066TIP3   OH233612   5.754   1.575  11.868  0.2572 -0.4709 -0.0854
 4066TIP3    H133613   5.791   1.633  11.801 -1.0329 -1.3909 -1.6495
 4066TIP3    H233614   5.820   1.571  11.936  0.6747  2.2866 -0.2638
 4067TIP3   OH233615   0.684   1.906   0.769  0.1544 -0.0665 -0.1658
 4067TIP3    H133616   0.596   1.868   0.764  1.1792 -2.5873  0.5573
 4067TIP3    H233617   0.713   1.909   0.678 -0.0692 -0.7177 -0.2639
 4068TIP3   OH233618   4.614   4.426   0.071  0.1834 -0.3140  0.2427
 4068TIP3    H133619   4.689   4.484   0.079  0.5820 -0.7587 -0.2115
 4068TIP3    H233620   4.639   4.364   0.002 -1.0188  0.1933 -0.6787
 4069TIP3   OH233621   4.406   2.158   5.812 -0.2225 -0.1270 -0.0800
 4069TIP3    H133622   4.346   2.141   5.738 -0.3424 -0.4193  0.0837
 4069TIP3    H233623   4.453   2.076   5.824  0.2757  0.1310 -0.2621
 4070TIP3   OH233624   6.387   0.017  11.736  0.3702 -0.2747 -0.1108
 4070TIP3    H133625   6.375   0.050  11.647 -0.2715 -1.9473 -0.6560
 4070TIP3    H233626   6.482   0.020  11.750  0.5786 -1.0679 -1.2683
 4071TIP3   OH233627   5.227   3.954  13.872 -0.4157  0.1453 -0.0853
 4071TIP3    H133628   5.266   4.039  13.855  0.3258 -0.2167 -0.2446
 4071TIP3    H233629   5.159   3.971  13.937 -0.7042  0.9503 -0.5992
 4072TIP3   OH233630   4.279   5.743  13.975 -0.0335  0.4396  0.5420
 4072TIP3    H133631   4.297   5.719  13.884  0.0817 -3.6474  1.5363
 4072TIP3    H233632   4.189   5.715  13.989  0.2743  0.1352  1.9651
 4073TIP3   OH233633   2.401   4.128   1.041  0.6116 -0.1185 -0.0320
 4073TIP3    H133634   2.402   4.124   0.946 -0.0235  2.0255 -0.1562
 4073TIP3    H233635   2.490   4.155   1.065  0.2687  1.1198 -0.1307
 4074TIP3   OH233636   3.638   1.042   0.142 -0.1432  0.1032 -0.0200
 4074TIP3    H133637   3.637   1.005   0.230  0.9120  1.0504  0.4007
 4074TIP3    H233638   3.666   1.133   0.154  0.0513  0.2288 -1.3330
 4075TIP3   OH233639   0.776   4.023   4.527  0.6372  0.1651  0.7566
 4075TIP3    H133640   0.751   3.947   4.579  0.0500 -0.2889 -0.1889
 4075TIP3    H233641   0.693   4.066   4.505  0.8438 -0.0256 -0.3825
 4076TIP3   OH233642   0.308   1.536   6.956 -0.7041  0.2690 -0.5326
 4076TIP3    H133643   0.360   1.616   6.959  0.4901 -0.4704 -1.1776
 4076TIP3    H233644   0.218   1.566   6.941 -0.2670  1.4872 -0.7409
 4077TIP3   OH233645   0.532   2.023  13.161  0.0856  0.4070 -0.2116
 4077TIP3    H133646   0.518   1.955  13.095 -0.7526  1.1209 -0.7914
 4077TIP3    H233647   0.608   1.994  13.211 -0.5285 -1.1746 -0.1681
 4078TIP3   OH233648   3.753   3.511   4.673 -0.5910 -0.0451  0.5046
 4078TIP3    H133649   3.711   3.513   4.759 -0.2922 -0.6468  0.6697
 4078TIP3    H233650   3.847   3.513   4.693 -0.5260  0.1037  0.1825
 4079TIP3   OH233651   2.435   3.064  14.613 -0.0036 -0.4731  0.5927
 4079TIP3    H133652   2.440   3.148  14.660  2.7980  0.8098 -1.8207
 4079TIP3    H233653   2.520   3.024  14.626  0.1906 -0.9324 -1.8003
 4080TIP3   OH233654   2.572   2.858  14.289  0.1371 -0.0764 -0.3881
 4080TIP3    H133655   2.491   2.848  14.339 -1.0572  2.2976 -1.7704
 4080TIP3    H233656   2.639   2.875  14.355 -0.8840  0.0822  0.6158
 4081TIP3   OH233657   2.483   3.784   4.071  0.3786 -0.0106 -0.1831
 4081TIP3    H133658   2.429   3.760   3.995 -0.5222  1.2708  0.0453
 4081TIP3    H233659   2.568   3.744   4.054 -0.0216 -0.2856 -1.5522
 4082TIP3   OH233660   3.249   0.935  14.287 -0.2311 -0.0500 -0.2015
 4082TIP3    H133661   3.336   0.957  14.255  0.2953 -1.8597 -0.0529
 4082TIP3    H233662   3.225   1.008  14.344  1.3311  0.2825  0.0488
 4083TIP3   OH233663   0.871   1.187   5.051 -0.4317 -0.4259 -1.1894
 4083TIP3    H133664   0.784   1.225   5.043  0.0610  1.3907  1.3852
 4083TIP3    H233665   0.855   1.099   5.085 -1.2958 -0.3973 -1.4999
 4084TIP3   OH233666   2.290   2.325   4.164  0.1776 -0.8284 -0.2706
 4084TIP3    H133667   2.222   2.388   4.140  0.0003 -0.3708  1.3377
 4084TIP3    H233668   2.330   2.300   4.081 -1.9778 -1.1537 -1.2610
 4085TIP3   OH233669   4.451   1.534   4.521  0.1814  0.1903  0.1405
 4085TIP3    H133670   4.470   1.606   4.581  1.1899  1.3844 -1.5630
 4085TIP3    H233671   4.368   1.559   4.479  0.6271  0.4689 -0.5872
 4086TIP3   OH233672   1.066   3.870  11.678 -0.3000  0.2288 -1.0543
 4086TIP3    H133673   1.065   3.780  11.711 -1.6142  1.2840  1.9662
 4086TIP3    H233674   0.993   3.874  11.617 -0.4394 -0.6597 -0.9567
 4087TIP3   OH233675   4.862   3.844   3.302 -0.8265 -0.3714 -0.0017
 4087TIP3    H133676   4.885   3.767   3.249  0.4576 -0.8891  1.2531
 4087TIP3    H233677   4.816   3.902   3.242 -1.0257 -1.7449 -1.2044
 4088TIP3   OH233678   0.069   5.788   3.731 -0.1930  0.2685 -0.1905
 4088TIP3    H133679  -0.004   5.728   3.722 -0.3944  0.3852  0.6966
 4088TIP3    H233680   0.128   5.765   3.659  1.2172 -3.0815  1.9197
 4089TIP3   OH233681   5.360   6.495   3.268  1.0035  0.1410 -0.2693
 4089TIP3    H133682   5.450   6.510   3.297  1.9526 -1.6117 -2.1744
 4089TIP3    H233683   5.365   6.418   3.212 -1.9823 -1.0086  0.9150
 4090TIP3   OH233684   2.071   4.736  13.296 -0.1071 -0.2835 -0.2919
 4090TIP3    H133685   2.114   4.768  13.217  0.1990  0.5260  0.1895
 4090TIP3    H233686   2.085   4.806  13.361 -0.9337 -0.6331  0.2756
 4091TIP3   OH233687   1.349   3.095   0.910  0.2775  0.0127  0.3581
 4091TIP3    H133688   1.338   3.057   0.823 -0.5543 -0.3074  0.5940
 4091TIP3    H233689   1.425   3.051   0.947 -0.1081 -0.7393  0.2636
 4092TIP3   OH233690   3.456   4.776   1.607  0.2420 -0.3156  0.3045
 4092TIP3    H133691   3.544   4.740   1.622  0.1182 -1.1260 -0.8316
 4092TIP3    H233692   3.468   4.870   1.609  1.1013 -0.4244  0.4260
 4093TIP3   OH233693   3.712   2.937   5.815  0.3248 -0.0157  0.2545
 4093TIP3    H133694   3.701   2.844   5.834  0.5998 -0.0016  0.4709
 4093TIP3    H233695   3.757   2.939   5.731 -0.7249 -0.0762 -0.3258
 4094TIP3   OH233696   4.263   5.965   2.048 -0.1781 -0.4889  0.1136
 4094TIP3    H133697   4.186   5.938   2.099 -0.1702 -0.8010 -0.0369
 4094TIP3    H233698   4.316   5.886   2.042 -0.2422 -0.4889 -0.4877
 4095TIP3   OH233699   3.191   5.929   2.875  0.2495  0.7306 -0.8975
 4095TIP3    H133700   3.267   5.935   2.934 -0.3637  0.7391 -0.1058
 4095TIP3    H233701   3.217   5.864   2.809 -0.7699 -2.7207  1.9497
 4096TIP3   OH233702   2.685   3.347   2.418 -0.1271 -0.0396 -0.4414
 4096TIP3    H133703   2.768   3.378   2.454 -0.6586  3.0781 -1.7231
 4096TIP3    H233704   2.692   3.252   2.421  2.8954  0.1500  0.8196
 4097TIP3   OH233705   0.817   5.572  13.628  0.2828 -0.0504  0.1857
 4097TIP3    H133706   0.756   5.597  13.698  0.9477  1.1252  0.3541
 4097TIP3    H233707   0.822   5.477  13.633 -0.8497 -0.0810  0.7571
 4098TIP3   OH233708   6.529   2.924   5.807 -0.3805 -0.0061 -0.3501
 4098TIP3    H133709   6.613   2.911   5.851 -0.8124  2.1556  1.2131
 4098TIP3    H233710   6.540   3.004   5.757 -1.6766  0.6254  0.3443
 4099TIP3   OH233711   3.791   5.700  14.208  0.8534  0.4413 -0.6289
 4099TIP3    H133712   3.787   5.729  14.116 -0.5248  1.5134 -0.2470
 4099TIP3    H233713   3.814   5.780  14.256  0.6068  0.0897  0.0674
 4100TIP3   OH233714   2.627   6.768  13.524 -0.1628  0.4981  0.1833
 4100TIP3    H133715   2.657   6.825  13.595 -2.1472  1.6826  0.1048
 4100TIP3    H233716   2.564   6.709  13.565 -0.8117  0.7392 -0.4584
 4101TIP3   OH233717   0.699   5.862  12.933 -0.5855 -0.3612 -0.3542
 4101TIP3    H133718   0.768   5.802  12.960 -0.5094  0.1879  0.7222
 4101TIP3    H233719   0.643   5.870  13.011  1.2822  3.5930  0.6984
 4102TIP3   OH233720   5.410   2.364  16.919 -0.1812  0.6866  0.1541
 4102TIP3    H133721   5.446   2.445  16.883 -0.0327 -0.2548 -1.8539
 4102TIP3    H233722   5.412   2.302  16.846 -0.6305 -1.0234  1.5669
 4103TIP3   OH233723   4.756   0.488  13.412 -0.1441 -0.1266 -0.7283
 4103TIP3    H133724   4.791   0.555  13.471  0.9024  0.7630 -2.3008
 4103TIP3    H233725   4.661   0.494  13.423  0.0651 -1.0566  1.9695
 4104TIP3   OH233726   6.697   6.327  10.309  0.1454 -0.4279 -0.1558
 4104TIP3    H133727   6.603   6.328  10.291  0.1328  1.2718 -0.0726
 4104TIP3    H233728   6.708   6.382  10.387  1.1415 -1.1219  0.2117
 4105TIP3   OH233729   3.037   3.126  14.654 -0.6549  0.4738  1.0769
 4105TIP3    H133730   3.082   3.045  14.677  0.4658  0.6116 -0.5699
 4105TIP3    H233731   2.948   3.115  14.687 -1.0220 -2.1576 -0.7153
 4106TIP3   OH233732   3.738   4.770  13.091 -0.1756  0.4221  0.2963
 4106TIP3    H133733   3.813   4.783  13.149 -0.9176 -0.0033  1.3550
 4106TIP3    H233734   3.753   4.685  13.050 -1.2434 -0.7408  2.2732
 4107TIP3   OH233735   4.998   4.310  16.269 -0.6179  0.1730 -0.6085
 4107TIP3    H133736   5.057   4.381  16.243  0.9719 -1.3425 -1.1723
 4107TIP3    H233737   4.923   4.319  16.210  0.4248  0.2236 -1.9420
 4108TIP3   OH233738   4.407   5.740   3.761 -0.4206  0.1574 -0.3969
 4108TIP3    H133739   4.498   5.768   3.749 -0.4034  0.7266  0.9824
 4108TIP3    H233740   4.365   5.814   3.804 -1.4810 -0.2066 -0.7974
 4109TIP3   OH233741   0.351   1.972   2.343 -0.1132  0.5494  0.5982
 4109TIP3    H133742   0.296   1.893   2.343 -0.0787  0.5257  0.7255
 4109TIP3    H233743   0.421   1.951   2.281 -1.9862  1.7934 -2.0121
 4110TIP3   OH233744   0.247   3.655   0.114  0.3011  0.4117 -0.3297
 4110TIP3    H133745   0.228   3.570   0.152 -1.1062  1.3268  1.0619
 4110TIP3    H233746   0.228   3.644   0.021 -0.6610 -0.5634 -0.0270
 4111TIP3   OH233747   3.413   2.687   2.069  0.0385  0.3775  0.1221
 4111TIP3    H133748   3.372   2.774   2.066  0.8639  0.7528 -0.5078
 4111TIP3    H233749   3.495   2.700   2.116  0.5485  0.1124 -0.6696
 4112TIP3   OH233750   5.313   5.654   1.956 -0.6212 -0.4300  0.2626
 4112TIP3    H133751   5.346   5.696   1.876  0.1708 -0.8146  0.3912
 4112TIP3    H233752   5.268   5.725   2.003  0.4870  0.2136  0.3599
 4113TIP3   OH233753   0.749   4.040   1.685 -0.4529 -0.1916 -0.0913
 4113TIP3    H133754   0.814   3.970   1.693  0.6858  0.8771  0.0217
 4113TIP3    H233755   0.677   4.000   1.635  0.3556 -1.3302 -0.3536
 4114TIP3   OH233756   2.913   3.003  15.342  0.7359  0.2856 -0.3717
 4114TIP3    H133757   2.910   3.083  15.289 -3.8154  0.9493  0.7383
 4114TIP3    H233758   2.835   2.954  15.317  0.6195 -1.3052  2.8476
 4115TIP3   OH233759   6.392   3.873   1.467  0.4158  0.1080  0.1167
 4115TIP3    H133760   6.400   3.876   1.562 -2.3987  0.1836  0.4037
 4115TIP3    H233761   6.349   3.789   1.450  2.7124 -0.8291 -1.2739
 4116TIP3   OH233762   5.892   6.431  15.122  0.5134 -0.0480 -0.3401
 4116TIP3    H133763   5.889   6.355  15.181  2.1565 -0.0218 -0.2066
 4116TIP3    H233764   5.842   6.499  15.168  0.3824 -0.5451  0.2608
 4117TIP3   OH233765   0.204   3.341  11.146 -0.3679  0.4345  0.5517
 4117TIP3    H133766   0.273   3.386  11.195 -1.1293  0.4474  1.6346
 4117TIP3    H233767   0.229   3.248  11.150  0.9113  0.6744 -1.2185
 4118TIP3   OH233768   4.609   2.165   5.536  0.1081  0.0670  0.0900
 4118TIP3    H133769   4.531   2.116   5.508 -0.7232  0.8633  0.9665
 4118TIP3    H233770   4.671   2.155   5.464 -0.8454 -0.4858 -0.6680
 4119TIP3   OH233771   6.481   2.747   6.067 -0.0358 -0.4714  0.2202
 4119TIP3    H133772   6.387   2.735   6.053  0.1086 -0.9393 -0.3472
 4119TIP3    H233773   6.490   2.841   6.084 -0.7950 -0.6706  1.7984
 4120TIP3   OH233774   6.083   0.519  15.940 -0.7238 -0.7447  0.4699
 4120TIP3    H133775   6.103   0.433  15.976 -0.7277  0.0217  2.3220
 4120TIP3    H233776   5.992   0.536  15.966 -0.5068  0.1041  0.7083
 4121TIP3   OH233777   1.719   1.541  11.978 -0.2894 -0.1766 -0.3815
 4121TIP3    H133778   1.679   1.495  11.904 -0.4564 -2.2209  0.9383
 4121TIP3    H233779   1.811   1.549  11.953 -0.1065 -1.9053 -0.3429
 4122TIP3   OH233780   5.081   4.058   0.185 -0.0773  0.5028 -0.1503
 4122TIP3    H133781   5.166   4.101   0.192  0.8684 -1.3031 -0.0932
 4122TIP3    H233782   5.083   3.991   0.253 -0.5470 -1.1617 -1.7132
 4123TIP3   OH233783   6.718   4.675   0.660 -0.2527 -0.2404 -0.0038
 4123TIP3    H133784   6.665   4.714   0.591  0.9458 -0.9342 -1.3359
 4123TIP3    H233785   6.786   4.741   0.678 -1.6693  0.7704  1.8956
 4124TIP3   OH233786   4.893   4.054   1.203  0.8304 -0.5489  0.1808
 4124TIP3    H133787   4.887   3.975   1.257  1.5659 -1.0431 -0.4508
 4124TIP3    H233788   4.812   4.053   1.151  0.9675 -1.0537 -0.0359
 4125TIP3   OH233789   6.174   5.805   2.818  0.3087 -0.4948 -0.4831
 4125TIP3    H133790   6.253   5.817   2.766  0.5643 -2.1665 -0.5212
 4125TIP3    H233791   6.102   5.804   2.754  0.4326 -0.6612 -0.6204
 4126TIP3   OH233792   3.477   4.270   1.763  0.8908 -0.1450  0.5228
 4126TIP3    H133793   3.408   4.337   1.758  0.7810 -0.2483  0.6275
 4126TIP3    H233794   3.462   4.215   1.686  1.0170 -0.0153  0.4052
 4127TIP3   OH233795   1.911   5.829   3.315 -0.4050  0.3496  0.0143
 4127TIP3    H133796   1.856   5.823   3.237  1.3779 -2.4074 -1.0954
 4127TIP3    H233797   1.870   5.769   3.378 -0.3505  0.5690  0.2615
 4128TIP3   OH233798   5.593   1.664  16.761  0.2124 -0.0317 -0.0544
 4128TIP3    H133799   5.559   1.659  16.851 -0.1302  0.9044 -0.1255
 4128TIP3    H233800   5.518   1.641  16.707  0.2784 -0.0854 -0.1224
 4129TIP3   OH233801   3.964   1.503  15.366 -0.2684  0.3783 -0.0064
 4129TIP3    H133802   4.000   1.478  15.451 -2.7103 -1.4235  0.5482
 4129TIP3    H233803   4.041   1.509  15.309  1.1986 -0.4532  1.8177
 4130TIP3   OH233804   5.796   3.508   2.783 -0.3739  0.1245  0.3258
 4130TIP3    H133805   5.732   3.580   2.786  0.1889  0.6574 -0.2518
 4130TIP3    H233806   5.870   3.540   2.836  0.8970  0.9831 -1.9060
 4131TIP3   OH233807   3.076   2.394   3.555 -0.1388 -0.2219  0.9293
 4131TIP3    H133808   3.086   2.370   3.463  0.3811 -0.6177  1.0863
 4131TIP3    H233809   3.162   2.430   3.579 -1.2586  3.0108  0.3528
 4132TIP3   OH233810   3.104   4.159   1.839  0.4605 -0.6117  0.2295
 4132TIP3    H133811   3.158   4.086   1.871  1.5014  0.5020  1.0393
 4132TIP3    H233812   3.076   4.204   1.919 -0.1217 -0.0685 -0.2787
 4133TIP3   OH233813   5.337   1.369  12.675 -0.3123 -0.7285 -0.5963
 4133TIP3    H133814   5.278   1.409  12.739  1.6307  1.3389 -0.0281
 4133TIP3    H233815   5.337   1.430  12.602  1.4950 -0.4298 -0.3709
 4134TIP3   OH233816   3.818   3.266  10.936  0.3567  0.0948 -0.1472
 4134TIP3    H133817   3.825   3.359  10.914 -0.0398  0.2624  0.4262
 4134TIP3    H233818   3.819   3.222  10.851  0.7980  0.6015 -0.4156
 4135TIP3   OH233819   3.970   6.236   1.041 -0.0541 -0.3465 -0.4727
 4135TIP3    H133820   3.976   6.196   0.954  1.0876  0.8363 -0.9588
 4135TIP3    H233821   3.949   6.328   1.023 -1.2787 -0.4164  0.5650
 4136TIP3   OH233822   3.723   1.168   6.014 -0.3110 -0.1285  0.4813
 4136TIP3    H133823   3.722   1.118   6.096 -1.2609 -0.9164 -0.0144
 4136TIP3    H233824   3.631   1.184   5.994 -0.0815  0.1257 -0.4038
 4137TIP3   OH233825   1.397   2.422   0.490  0.1811  0.3601  0.1832
 4137TIP3    H133826   1.481   2.444   0.450 -0.1349  1.0742 -0.1063
 4137TIP3    H233827   1.333   2.429   0.419 -0.4633  2.1538  0.8907
 4138TIP3   OH233828   2.148   4.209   2.415 -0.0936  0.4093 -0.2244
 4138TIP3    H133829   2.085   4.246   2.477 -1.0288 -0.9934 -0.3099
 4138TIP3    H233830   2.142   4.265   2.338 -4.1036 -1.8832 -1.7232
 4139TIP3   OH233831   0.050   5.755  12.382  0.3369 -0.4774  0.5116
 4139TIP3    H133832  -0.030   5.730  12.335  1.0590 -1.0612 -0.4230
 4139TIP3    H233833   0.047   5.850  12.385  1.0319 -0.3492 -2.0859
 4140TIP3   OH233834   3.884   6.499  10.434  0.3653  0.2954  0.0932
 4140TIP3    H133835   3.860   6.528  10.522  2.4756  1.2182  0.4001
 4140TIP3    H233836   3.933   6.418  10.447  0.3459  0.2240 -0.2647
 4141TIP3   OH233837   6.507   5.750   3.902 -0.5023 -0.0860  0.2294
 4141TIP3    H133838   6.454   5.671   3.892  0.4563 -0.6935 -0.1712
 4141TIP3    H233839   6.585   5.721   3.950 -0.4810  0.7707  0.7236
 4142TIP3   OH233840   5.183   1.354  12.039  0.2078 -0.4586 -0.0128
 4142TIP3    H133841   5.202   1.427  11.980  0.0211  1.1959  1.9005
 4142TIP3    H233842   5.256   1.352  12.100  0.1246 -1.7735  0.0612
 4143TIP3   OH233843   2.501   6.463  16.539 -0.1056  0.0305  0.0388
 4143TIP3    H133844   2.484   6.549  16.577  0.9559  0.7668 -1.0988
 4143TIP3    H233845   2.438   6.456  16.467 -1.0748 -0.6998  0.9627
 4144TIP3   OH233846   0.683   5.207  10.617 -0.3867 -0.2819 -0.4003
 4144TIP3    H133847   0.670   5.263  10.540 -0.3236  1.4871  0.8488
 4144TIP3    H233848   0.747   5.143  10.588 -1.2406 -0.3817 -2.1983
 4145TIP3   OH233849   6.746   6.127  10.480  0.1887  0.2128  0.2193
 4145TIP3    H133850   6.736   6.190  10.409 -1.3851  1.4367  1.4823
 4145TIP3    H233851   6.693   6.052  10.453  2.6661 -0.9122 -1.6320
 4146TIP3   OH233852   3.992   1.032  14.554  0.6652  0.6004  0.1234
 4146TIP3    H133853   4.055   1.033  14.483  1.6291  1.5389  0.9646
 4146TIP3    H233854   3.957   0.943  14.555  0.7242  0.5539 -1.4378
 4147TIP3   OH233855   3.056   2.239   2.524 -0.0026 -0.0086  0.4394
 4147TIP3    H133856   3.115   2.208   2.593 -0.9138  0.6464  1.5436
 4147TIP3    H233857   3.016   2.318   2.561 -1.5506 -0.4255 -0.2779
 4148TIP3   OH233858   5.137   0.084  11.122  0.0615  0.3876 -0.0407
 4148TIP3    H133859   5.045   0.098  11.097 -0.3047 -1.7632 -0.0202
 4148TIP3    H233860   5.157  -0.005  11.091  1.8382  0.4610  0.8287
 4149TIP3   OH233861   5.991   3.497  16.940 -0.4449 -0.2274 -0.3707
 4149TIP3    H133862   6.055   3.450  16.886  1.2499  0.6832  0.8039
 4149TIP3    H233863   5.988   3.447  17.022 -1.6369 -0.5541 -0.6016
 4150TIP3   OH233864   4.902   5.336  11.265 -0.0862  0.5689 -0.1476
 4150TIP3    H133865   4.958   5.315  11.189  0.0345  1.1361 -0.2141
 4150TIP3    H233866   4.833   5.270  11.262  0.4249  0.0320 -0.2287
 4151TIP3   OH233867   2.448   4.138   3.805 -0.5482  0.0484  0.1193
 4151TIP3    H133868   2.421   4.048   3.822 -1.0053  0.2452  0.4403
 4151TIP3    H233869   2.436   4.149   3.711  1.9567 -1.0290 -0.3626
 4152TIP3   OH233870   5.756   4.052   5.952  0.3742 -0.2771 -0.5224
 4152TIP3    H133871   5.691   4.087   5.891 -0.0000 -0.7186 -0.3736
 4152TIP3    H233872   5.705   4.023   6.028  0.8038 -0.0448 -0.1361
 4153TIP3   OH233873   4.713   3.061  13.509 -0.2561  0.0673 -0.3201
 4153TIP3    H133874   4.792   3.008  13.509 -1.0078 -1.0714 -0.2992
 4153TIP3    H233875   4.724   3.120  13.434  1.3245  1.0247  0.6554
 4154TIP3   OH233876   5.090   5.567   3.740 -0.2542  0.5621  0.3008
 4154TIP3    H133877   5.072   5.645   3.688 -0.7183  0.3607  0.1595
 4154TIP3    H233878   5.037   5.499   3.700  0.9350 -0.0762 -0.2148
 4155TIP3   OH233879   4.559   0.005  11.983  0.3083  0.3666  0.4994
 4155TIP3    H133880   4.616   0.075  12.016  3.1176 -0.8374 -1.5523
 4155TIP3    H233881   4.546   0.026  11.891 -1.1074 -0.3340  0.5343
 4156TIP3   OH233882   1.410   6.637   2.506  0.1060 -0.0448  0.3817
 4156TIP3    H133883   1.367   6.723   2.514  0.9151  0.2991  1.1019
 4156TIP3    H233884   1.412   6.620   2.411 -1.5868 -0.0551  0.3386
 4157TIP3   OH233885   5.837   6.210  14.379  0.4880 -0.1758  0.4642
 4157TIP3    H133886   5.863   6.209  14.287  1.7038 -0.3126  0.7983
 4157TIP3    H233887   5.798   6.124  14.394  1.6061 -0.6933  0.4382
 4158TIP3   OH233888   5.970   6.653  13.022  0.3914  0.0211  0.4275
 4158TIP3    H133889   5.968   6.676  12.929  0.9023 -0.7658  0.2160
 4158TIP3    H233890   6.059   6.675  13.050 -0.1546  1.4742  1.0530
 4159TIP3   OH233891   6.287   1.022  12.402  0.0636 -0.1992  0.1785
 4159TIP3    H133892   6.346   0.971  12.346  1.6513  0.0126  1.6486
 4159TIP3    H233893   6.201   0.982  12.386  0.0465  1.2535 -4.0565
 4160TIP3   OH233894   3.901   3.134  15.152 -0.0534 -0.3978 -0.5229
 4160TIP3    H133895   3.899   3.045  15.189 -1.3323 -0.6915 -1.2794
 4160TIP3    H233896   3.812   3.149  15.121  0.5323  0.5871 -1.7513
 4161TIP3   OH233897   1.416   4.873  14.704  0.1773  0.3886  0.3116
 4161TIP3    H133898   1.375   4.958  14.720 -1.8262 -0.5013  0.0243
 4161TIP3    H233899   1.507   4.894  14.683  0.0051  2.3668  1.4747
 4162TIP3   OH233900   2.862   2.373   3.076  0.3211 -0.1354  0.3304
 4162TIP3    H133901   2.859   2.291   3.126  0.2702 -0.7637 -0.6720
 4162TIP3    H233902   2.806   2.355   3.000 -0.6400  1.2451  0.7032
 4163TIP3   OH233903   1.522   0.646   3.664 -0.0330 -0.1763  0.2243
 4163TIP3    H133904   1.564   0.710   3.721  0.0125 -0.3875  0.4295
 4163TIP3    H233905   1.429   0.654   3.683 -0.1582  0.9108 -0.8737
 4164TIP3   OH233906   6.295   5.752  14.676  0.0440 -0.9071 -0.6507
 4164TIP3    H133907   6.365   5.745  14.740  0.0699  0.8368 -0.4484
 4164TIP3    H233908   6.315   5.833  14.628 -0.9117 -1.2792 -1.7038
 4165TIP3   OH233909   0.498   4.110   5.523  0.2742  0.1744 -0.1925
 4165TIP3    H133910   0.405   4.128   5.513 -0.1550 -2.2582 -1.0139
 4165TIP3    H233911   0.508   4.018   5.495  2.5490 -0.2998  2.0115
 4166TIP3   OH233912   2.472   6.770   0.376  0.2755  0.0885 -0.3585
 4166TIP3    H133913   2.525   6.693   0.354 -0.8749 -1.3114  1.5990
 4166TIP3    H233914   2.382   6.741   0.364 -0.2052  0.7415  1.5470
 4167TIP3   OH233915   4.095   2.653  15.627  1.1774  0.1271 -0.3858
 4167TIP3    H133916   4.180   2.632  15.666 -0.4734 -0.7524  2.9469
 4167TIP3    H233917   4.085   2.747  15.643  0.9756 -0.0240  0.4145
 4168TIP3   OH233918   3.013   2.633   4.042 -0.1643  0.2611 -0.7576
 4168TIP3    H133919   3.024   2.711   4.096  1.5818 -1.2398  1.1391
 4168TIP3    H233920   2.984   2.666   3.957 -1.4133  2.7936  0.6105
 4169TIP3   OH233921   0.806   0.880   0.582 -0.7870  0.3839 -0.1172
 4169TIP3    H133922   0.711   0.879   0.594 -1.0766 -0.5694 -2.1906
 4169TIP3    H233923   0.817   0.898   0.488  1.0839  0.1765  0.0535
 4170TIP3   OH233924   4.948   6.542   1.303 -0.3232 -0.6527  0.0672
 4170TIP3    H133925   5.042   6.543   1.284 -0.1572 -0.7776  0.8585
 4170TIP3    H233926   4.906   6.552   1.218  0.3969 -1.3833 -0.3815
 4171TIP3   OH233927   0.524   3.132  16.780 -0.4123  0.1999  0.4669
 4171TIP3    H133928   0.554   3.055  16.827 -1.4648 -1.3488 -1.3275
 4171TIP3    H233929   0.603   3.167  16.739  0.3047  0.9068  2.4337
 4172TIP3   OH233930   3.916   4.951  13.744 -0.1929  0.0289 -0.1770
 4172TIP3    H133931   3.935   5.033  13.698 -0.3446  0.3089  0.2572
 4172TIP3    H233932   3.852   4.975  13.811  0.0159 -0.3790  0.1699
 4173TIP3   OH233933   1.268   2.853  12.772 -0.3303 -0.4750  0.0317
 4173TIP3    H133934   1.183   2.865  12.813 -1.2673 -3.2863 -0.9471
 4173TIP3    H233935   1.276   2.927  12.712 -2.7276 -0.8960 -0.8651
 4174TIP3   OH233936   0.112   4.146  12.615  0.2512  0.3512  0.2720
 4174TIP3    H133937   0.074   4.063  12.643  0.5250 -0.0616 -0.5772
 4174TIP3    H233938   0.162   4.125  12.536 -0.5946  1.5193 -0.6037
 4175TIP3   OH233939   6.442   1.145   4.376 -0.1775 -0.6000  0.3329
 4175TIP3    H133940   6.468   1.175   4.289  0.8959  0.3537  0.9741
 4175TIP3    H233941   6.354   1.109   4.363  0.2848 -1.2075 -1.2968
 4176TIP3   OH233942   3.322   4.401  14.758 -0.3972 -0.1338 -0.3702
 4176TIP3    H133943   3.291   4.491  14.749 -2.2881 -0.7717 -0.5202
 4176TIP3    H233944   3.313   4.364  14.670  1.1475 -0.2457 -0.4926
 4177TIP3   OH233945   3.275   0.718  12.334  0.3420 -0.3868 -0.0548
 4177TIP3    H133946   3.229   0.738  12.416 -0.6145  0.0672 -0.6944
 4177TIP3    H233947   3.297   0.804  12.298 -0.6027 -0.5500 -1.0382
 4178TIP3   OH233948   6.746   1.678  14.323  0.6394 -0.1199 -0.3864
 4178TIP3    H133949   6.666   1.668  14.376  0.6469  0.5497 -0.2514
 4178TIP3    H233950   6.803   1.733  14.376  1.8344 -1.9121  0.2223
 4179TIP3   OH233951   1.909   5.000  14.814  0.2031 -0.3537 -0.2140
 4179TIP3    H133952   1.821   4.974  14.787  0.5787 -0.7250 -1.1059
 4179TIP3    H233953   1.965   4.971  14.742  1.0423 -0.0512  0.3175
 4180TIP3   OH233954   0.198   5.012  15.703 -0.7537  0.2427 -0.1317
 4180TIP3    H133955   0.283   5.038  15.669 -0.9155  0.2853 -0.4993
 4180TIP3    H233956   0.198   5.044  15.794 -0.8795  1.3766 -0.5215
 4181TIP3   OH233957   5.916   4.811   0.635  0.1884  0.0565  0.2554
 4181TIP3    H133958   5.859   4.873   0.680  2.0347  1.3154  0.9048
 4181TIP3    H233959   5.924   4.845   0.546 -1.6108 -1.1867 -0.4130
 4182TIP3   OH233960   2.244   6.062   5.671 -0.2219 -0.0812 -0.0639
 4182TIP3    H133961   2.213   6.151   5.652 -1.9372 -0.1756  2.1437
 4182TIP3    H233962   2.238   6.016   5.587  0.0556  1.6857 -1.0748
 4183TIP3   OH233963   4.385   1.110   0.356 -0.6789  0.4281 -0.2802
 4183TIP3    H133964   4.442   1.181   0.326  1.1564 -0.2433  1.5659
 4183TIP3    H233965   4.409   1.035   0.302 -0.9026  0.5469 -0.5479
 4184TIP3   OH233966   1.044   6.583  10.699 -1.1105 -0.2398 -0.6324
 4184TIP3    H133967   1.126   6.591  10.651 -1.0111  2.5149 -0.0891
 4184TIP3    H233968   0.979   6.623  10.641 -1.6602 -0.2866 -0.0493
 4185TIP3   OH233969   5.769   2.445   5.638  0.0747  0.4355  0.1671
 4185TIP3    H133970   5.818   2.473   5.715 -0.9274  0.2932  0.8628
 4185TIP3    H233971   5.742   2.356   5.657 -2.9623  1.4801  1.0837
 4186TIP3   OH233972   2.424   5.983  15.403  0.7610 -0.1181 -0.0014
 4186TIP3    H133973   2.410   6.002  15.311  2.7163 -0.7892 -0.4678
 4186TIP3    H233974   2.351   5.925  15.427  1.2602 -1.4564 -1.6259
 4187TIP3   OH233975   5.320   5.217   2.193 -0.4827  0.1689  0.5249
 4187TIP3    H133976   5.397   5.218   2.249 -0.5562 -1.7787  0.7154
 4187TIP3    H233977   5.346   5.265   2.114  0.3343  1.0482  1.3277
 4188TIP3   OH233978   0.878   1.110  16.785  0.3848  0.0891 -0.4524
 4188TIP3    H133979   0.859   1.025  16.825 -0.2555  0.2199 -0.4657
 4188TIP3    H233980   0.795   1.158  16.790  1.1531  1.3559  1.1346
 4189TIP3   OH233981   3.106   3.647   5.840 -0.1400  0.0383 -0.0329
 4189TIP3    H133982   3.054   3.569   5.858 -0.2401 -0.1211 -1.0194
 4189TIP3    H233983   3.188   3.633   5.887  0.9484 -1.9152 -2.3983
 4190TIP3   OH233984   1.231   0.237   6.223 -0.4486 -0.0554 -0.6851
 4190TIP3    H133985   1.235   0.251   6.318  0.7585 -0.2664 -0.6936
 4190TIP3    H233986   1.143   0.266   6.198 -0.5917  0.4988  0.4187
 4191TIP3   OH233987   5.638   4.400   2.387  0.2408  0.3262 -0.0710
 4191TIP3    H133988   5.710   4.463   2.382 -0.4239  1.1846  0.8672
 4191TIP3    H233989   5.590   4.425   2.466 -0.5654 -0.7969 -0.1950
 4192TIP3   OH233990   5.191   0.823  17.024 -0.1691 -0.3073 -0.3130
 4192TIP3    H133991   5.252   0.839  16.951  1.2548 -1.2871  0.6328
 4192TIP3    H233992   5.115   0.877  17.003  1.2955  1.5022 -1.1877
 4193TIP3   OH233993   5.956   2.943   5.577  0.5927 -0.2249  0.0453
 4193TIP3    H133994   5.909   2.877   5.526 -0.7137  0.1807  0.7086
 4193TIP3    H233995   5.990   2.895   5.652  1.2457 -0.5151 -0.4268
 4194TIP3   OH233996   5.118   0.009  13.371  0.6689 -0.3647 -0.0831
 4194TIP3    H133997   5.208   0.036  13.356  1.2528 -2.1166  0.1426
 4194TIP3    H233998   5.123  -0.055  13.442 -0.8810  0.3173  0.6782
 4195TIP3   OH233999   4.983   1.948  16.314 -0.1206  0.6002 -0.1334
 4195TIP3    H134000   5.048   1.975  16.379 -1.0409 -0.3016  1.1974
 4195TIP3    H234001   5.015   1.863  16.283  0.3633  1.0708 -0.9375
 4196TIP3   OH234002   1.731   5.571   0.911 -0.6259  0.2766 -0.1346
 4196TIP3    H134003   1.668   5.534   0.849  0.0535  2.7827 -2.4138
 4196TIP3    H234004   1.717   5.665   0.906  1.9752  0.7424  0.7829
 4197TIP3   OH234005   4.498   0.235   5.101 -0.3152 -0.3126  0.0231
 4197TIP3    H134006   4.562   0.177   5.060 -0.6872  0.5933 -1.8723
 4197TIP3    H234007   4.547   0.315   5.120 -0.2077 -0.6311  1.1791
 4198TIP3   OH234008   3.807   5.435   5.586 -0.1750  0.2498 -0.0581
 4198TIP3    H134009   3.722   5.472   5.564  0.0883 -0.5947 -2.5983
 4198TIP3    H234010   3.788   5.364   5.648 -1.1370  1.1265  0.6641
 4199TIP3   OH234011   0.602   0.201  12.034 -0.0235 -0.3364  0.0563
 4199TIP3    H134012   0.522   0.148  12.043 -0.9154  1.5014  3.7369
 4199TIP3    H234013   0.641   0.170  11.952 -3.8138 -2.1968 -1.2017
 4200TIP3   OH234014   6.046   0.971   1.643 -0.4997  0.2053  0.3096
 4200TIP3    H134015   6.125   0.980   1.590  0.5236 -1.3971  1.5039
 4200TIP3    H234016   5.974   0.971   1.580  0.6555 -1.1089 -1.0443
 4201TIP3   OH234017   2.997   1.224   5.248  0.2994  0.1584 -0.0568
 4201TIP3    H134018   2.937   1.185   5.312  0.8134  1.4081  1.2203
 4201TIP3    H234019   2.957   1.205   5.163 -2.3835  1.7235  0.7892
 4202TIP3   OH234020   0.876   2.712  12.513  0.0277  0.3866 -0.1029
 4202TIP3    H134021   0.854   2.654  12.439 -2.8324  1.2354  0.0255
 4202TIP3    H234022   0.948   2.766  12.480 -0.5672  0.0938 -1.9643
 4203TIP3   OH234023   5.072   5.536  16.877 -0.2605 -0.4521  0.3845
 4203TIP3    H134024   5.097   5.627  16.891 -2.2095  0.3416 -1.0356
 4203TIP3    H234025   5.046   5.505  16.964  0.0405  0.4589  0.7991
 4204TIP3   OH234026   2.641   2.511   2.570 -0.0986  0.5233  0.1600
 4204TIP3    H134027   2.626   2.549   2.484  3.0125  0.4060 -0.4913
 4204TIP3    H234028   2.653   2.418   2.554  3.6375  0.9132  0.2276
 4205TIP3   OH234029   6.043   6.324  15.891 -0.0693 -0.7304 -0.2412
 4205TIP3    H134030   6.001   6.386  15.951 -0.9351 -1.0928 -0.4679
 4205TIP3    H234031   5.976   6.258  15.874  0.2055 -0.6913 -1.5272
 4206TIP3   OH234032   5.141   4.264   5.184  0.2188 -0.0850  0.3656
 4206TIP3    H134033   5.213   4.325   5.193 -0.1408  0.3854  0.1262
 4206TIP3    H234034   5.150   4.229   5.095  0.2136 -0.1011  0.3710
 4207TIP3   OH234035   3.029   0.156   2.958 -0.0962  0.1461  0.1568
 4207TIP3    H134036   3.084   0.081   2.936 -0.8732 -0.3057 -0.3004
 4207TIP3    H234037   3.078   0.232   2.927  0.4935 -0.2107  0.2148
 4208TIP3   OH234038   0.113   5.345   1.325 -0.5904  0.2117 -0.6603
 4208TIP3    H134039   0.020   5.335   1.346 -0.3711 -0.8281 -0.1730
 4208TIP3    H234040   0.119   5.432   1.286 -1.8627  0.0762 -1.1856
 4209TIP3   OH234041   2.834   1.776  15.730 -0.1767  0.5757 -0.3263
 4209TIP3    H134042   2.874   1.787  15.816 -0.8529  1.0448 -0.0743
 4209TIP3    H234043   2.907   1.747  15.674 -0.2918 -2.5699  1.0030
 4210TIP3   OH234044   2.717   0.959  10.800  0.1208  0.0813  0.2772
 4210TIP3    H134045   2.729   0.871  10.763  0.7795  0.4744 -0.4343
 4210TIP3    H234046   2.655   0.945  10.872 -1.6239 -0.6026 -1.3128
 4211TIP3   OH234047   4.711   2.379  12.010 -0.2421 -0.0744 -0.2193
 4211TIP3    H134048   4.617   2.362  12.014 -0.2465 -0.3040 -1.2431
 4211TIP3    H234049   4.729   2.431  12.089 -0.7767 -2.0883  1.2666
 4212TIP3   OH234050   0.542   1.441   2.125 -0.1968  0.3117 -0.6600
 4212TIP3    H134051   0.615   1.469   2.070  0.9480  0.0087  0.6668
 4212TIP3    H234052   0.547   1.346   2.125 -1.8015  0.2023 -2.1349
 4213TIP3   OH234053   5.227   5.326   3.940 -0.0058 -0.4946  0.4513
 4213TIP3    H134054   5.219   5.320   3.845  0.8775 -0.2028  0.3477
 4213TIP3    H234055   5.239   5.235   3.969 -0.2693 -0.5824  0.2850
 4214TIP3   OH234056   4.818   0.051  16.735  0.0876 -0.2823  0.8826
 4214TIP3    H134057   4.769  -0.011  16.682 -0.7486  0.2177  1.0569
 4214TIP3    H234058   4.751   0.106  16.775  0.8261  0.8848  0.5372
 4215TIP3   OH234059   5.297   4.490  15.471 -0.1184  0.3109 -0.2967
 4215TIP3    H134060   5.327   4.485  15.562  0.1667  1.0396 -0.3445
 4215TIP3    H234061   5.214   4.538  15.475 -0.4162 -0.2007 -0.3528
 4216TIP3   OH234062   0.371   4.406   3.916  0.7089 -0.5308  0.3736
 4216TIP3    H134063   0.303   4.390   3.981  0.2096 -1.4745 -0.3754
 4216TIP3    H234064   0.335   4.474   3.859  1.1371  0.2792  1.0476
 4217TIP3   OH234065   3.585   4.163  15.409 -0.1353  0.1214 -0.1846
 4217TIP3    H134066   3.547   4.126  15.489  0.7155  1.7397  0.9889
 4217TIP3    H234067   3.520   4.144  15.341 -0.7500 -1.5052  0.8262
 4218TIP3   OH234068   0.644   1.293  16.782  0.2986  0.0059 -0.7465
 4218TIP3    H134069   0.620   1.360  16.846 -1.5303 -1.9998  0.7717
 4218TIP3    H234070   0.579   1.303  16.712  2.1613  2.0512 -2.2512
 4219TIP3   OH234071   0.430   2.564  16.993  0.2154 -0.7493  0.1210
 4219TIP3    H134072   0.511   2.522  17.021  1.0066  1.5559  1.4670
 4219TIP3    H234073   0.369   2.549  17.066  0.2747 -0.1803  0.2868
 4220TIP3   OH234074   1.283   4.050   5.212  0.4015  0.6285  0.4302
 4220TIP3    H134075   1.249   4.139   5.220 -0.5140  0.2749  0.6160
 4220TIP3    H234076   1.377   4.059   5.222  0.2563  1.5032  1.1098
 4221TIP3   OH234077   1.189   1.338  11.847  0.4951 -0.0156 -0.6214
 4221TIP3    H134078   1.114   1.280  11.833  0.3731 -0.1221  0.3904
 4221TIP3    H234079   1.262   1.294  11.803  0.0381 -0.0983 -1.2966
 4222TIP3   OH234080   2.669   0.869   5.073  0.1575  0.0224  0.2661
 4222TIP3    H134081   2.694   0.825   5.155  2.4252 -1.2354 -1.0417
 4222TIP3    H234082   2.664   0.962   5.096  4.5260  0.1625  1.0446
 4223TIP3   OH234083   4.992   3.140  16.749  0.2760  0.0363 -0.0843
 4223TIP3    H134084   5.065   3.111  16.804  0.5161  1.2985  0.2898
 4223TIP3    H234085   4.957   3.060  16.710  0.1918 -0.8707  1.8001
 4224TIP3   OH234086   1.347   1.483  14.469 -0.2719  0.0051  0.2380
 4224TIP3    H134087   1.259   1.490  14.507 -0.9766 -1.2666 -1.1344
 4224TIP3    H234088   1.345   1.540  14.392  0.0224 -0.2272  0.0582
 4225TIP3   OH234089   0.620   6.615  14.480  0.6383  0.8738 -0.3158
 4225TIP3    H134090   0.658   6.560  14.549  0.7525  2.2633  0.7397
 4225TIP3    H234091   0.658   6.579  14.399  0.5206 -0.7550  0.3215
 4226TIP3   OH234092   6.532   1.945   4.012  0.4618 -0.0001 -0.1384
 4226TIP3    H134093   6.499   2.035   4.009  0.1826 -0.0367  1.4350
 4226TIP3    H234094   6.527   1.921   4.105  2.7361 -0.8373 -0.2203
 4227TIP3   OH234095   1.642   2.057   1.947 -0.0404 -0.1195  0.1612
 4227TIP3    H134096   1.585   2.121   1.989 -0.4799 -0.3173 -0.1262
 4227TIP3    H234097   1.682   2.104   1.875 -1.6422 -0.5999 -1.0874
 4228TIP3   OH234098   2.370   0.220  12.389  0.4555 -0.5940 -0.3424
 4228TIP3    H134099   2.313   0.287  12.352  0.2770 -0.8021 -0.4447
 4228TIP3    H234100   2.452   0.230  12.341  0.9141  0.5173  0.6541
 4229TIP3   OH234101   4.066   2.211  14.647 -0.4004 -0.3355 -0.0218
 4229TIP3    H134102   4.052   2.250  14.560 -0.1775 -0.8158 -0.2711
 4229TIP3    H234103   4.101   2.283  14.700  1.2947 -0.5378 -0.8334
 4230TIP3   OH234104   6.495   0.956   4.571  0.0083 -0.1061 -0.2740
 4230TIP3    H134105   6.492   1.031   4.511 -1.7837 -0.3082 -0.4635
 4230TIP3    H234106   6.415   0.964   4.622  0.7405 -0.8514  0.9971
 4231TIP3   OH234107   1.465   0.035  11.494 -0.3950 -0.1241  0.0853
 4231TIP3    H134108   1.524   0.030  11.570  0.0500  0.4313 -0.2198
 4231TIP3    H234109   1.510   0.094  11.433 -1.5639  0.8159  0.1214
 4232TIP3   OH234110   4.349   1.567   4.245 -0.4567 -0.0439 -0.1787
 4232TIP3    H134111   4.318   1.525   4.165 -0.5276  1.5599 -1.0230
 4232TIP3    H234112   4.432   1.608   4.219 -0.2655  0.1140  0.6823
 4233TIP3   OH234113   4.201   1.746   1.083  0.3760  0.1566 -0.7487
 4233TIP3    H134114   4.169   1.753   1.173  0.9866  1.8335 -0.6584
 4233TIP3    H234115   4.125   1.767   1.029  0.0159 -0.8239 -0.6452
 4234TIP3   OH234116   0.368   5.380  12.048 -0.5501  0.1456  0.6686
 4234TIP3    H134117   0.295   5.358  11.990 -0.2487  0.8491  0.0155
 4234TIP3    H234118   0.344   5.464  12.087  0.2273  0.7368 -0.0984
 4235TIP3   OH234119   2.804   6.777   2.576 -0.1376  0.5599 -0.3461
 4235TIP3    H134120   2.733   6.808   2.631 -0.4560 -0.6726 -0.0401
 4235TIP3    H234121   2.843   6.856   2.539  1.0561  1.5163  2.8151
 4236TIP3   OH234122   1.130   1.775  15.398 -0.2942  0.5091 -0.0547
 4236TIP3    H134123   1.179   1.738  15.324 -1.4961 -1.0727 -0.0651
 4236TIP3    H234124   1.073   1.840  15.358 -0.9043 -0.3068 -0.5168
 4237TIP3   OH234125   5.586   1.001  11.445 -0.2193  0.3114  0.4633
 4237TIP3    H134126   5.531   0.924  11.455  1.0235 -0.8450 -1.3081
 4237TIP3    H234127   5.525   1.073  11.434 -1.4078 -0.9495 -1.4842
 4238TIP3   OH234128   2.904   0.215   2.473 -0.0777  0.8443  0.0186
 4238TIP3    H134129   2.908   0.307   2.447 -0.9590  0.2306 -2.3259
 4238TIP3    H234130   2.989   0.179   2.446 -0.6517  0.4166 -1.2417
 4239TIP3   OH234131   6.190   6.532   0.324  0.1513 -0.0784 -0.2336
 4239TIP3    H134132   6.207   6.568   0.411  1.9835 -2.7603  0.5886
 4239TIP3    H234133   6.228   6.597   0.264 -1.7041  2.1167  0.8886
 4240TIP3   OH234134   4.789   6.372  16.310 -0.0672 -0.0569  0.5690
 4240TIP3    H134135   4.767   6.294  16.260  2.0467 -1.5322  1.8726
 4240TIP3    H234136   4.714   6.386  16.368  0.5360 -2.5846  2.0399
 4241TIP3   OH234137   4.090   1.647   1.702 -0.5889 -0.9257 -0.4013
 4241TIP3    H134138   4.004   1.606   1.693 -1.0976 -0.3705  1.6646
 4241TIP3    H234139   4.077   1.715   1.768  1.4792 -0.9643  0.0653
 4242TIP3   OH234140   6.192   5.483   5.097  0.0926 -0.4148  1.1100
 4242TIP3    H134141   6.157   5.397   5.072  0.8081  0.2631 -2.5673
 4242TIP3    H234142   6.287   5.470   5.100  0.1396  0.0214  1.4294
 4243TIP3   OH234143   1.188   3.661   2.409 -0.3300  0.1505  0.1590
 4243TIP3    H134144   1.223   3.726   2.349 -1.1336  0.0396 -0.4367
 4243TIP3    H234145   1.262   3.602   2.427 -0.3381 -0.3572 -1.4610
 4244TIP3   OH234146   4.920   5.492   4.926 -0.4392  0.2273  0.6696
 4244TIP3    H134147   4.848   5.549   4.955 -0.3571  0.8962 -0.4003
 4244TIP3    H234148   4.932   5.514   4.834  0.7984 -0.2537  0.7038
 4245TIP3   OH234149   3.667   3.110   5.568  0.0920  0.5986 -0.0826
 4245TIP3    H134150   3.724   3.073   5.501  0.7178 -1.1181  1.3614
 4245TIP3    H234151   3.637   3.193   5.531 -0.3005 -0.7165 -2.8748
 4246TIP3   OH234152   5.255   1.589  11.908 -0.1111  0.1839 -0.2726
 4246TIP3    H134153   5.225   1.678  11.929 -0.3249 -0.2666  1.4158
 4246TIP3    H234154   5.334   1.577  11.962 -1.3218 -1.4279  1.1861
 4247TIP3   OH234155   4.628   2.436  14.369 -0.2775  0.0326  0.4265
 4247TIP3    H134156   4.574   2.395  14.437 -0.7852 -2.0284 -1.1771
 4247TIP3    H234157   4.684   2.366  14.336 -0.7593  0.7260 -1.9870
 4248TIP3   OH234158   0.616   5.032  11.181 -0.2101  0.0945 -0.3915
 4248TIP3    H134159   0.522   5.015  11.172 -0.5285  1.0647  1.0771
 4248TIP3    H234160   0.638   5.003  11.269  0.9446 -0.3895 -0.8260
 4249TIP3   OH234161   5.966   4.151  12.179 -0.2433  0.3984 -0.4042
 4249TIP3    H134162   6.009   4.161  12.094  0.3354  0.8085 -0.0702
 4249TIP3    H234163   6.038   4.157  12.242 -0.9732  2.9216  0.2701
 4250TIP3   OH234164   1.955   0.858   3.366  0.2447 -0.6686  0.8408
 4250TIP3    H134165   1.907   0.777   3.383 -0.1483 -0.8332 -1.0015
 4250TIP3    H234166   2.046   0.836   3.383  0.5318 -2.3889 -2.5837
 4251TIP3   OH234167   2.380   4.781  11.848  0.6220  0.1272 -1.0398
 4251TIP3    H134168   2.388   4.688  11.868  0.1907 -0.1386 -2.0643
 4251TIP3    H234169   2.470   4.812  11.841  0.7710 -0.5062 -1.9899
 4252TIP3   OH234170   4.701   0.281  15.909 -0.2614 -0.1332 -0.4176
 4252TIP3    H134171   4.660   0.343  15.970  0.7513  0.0826  0.0602
 4252TIP3    H234172   4.761   0.230  15.963 -0.0594 -0.5945 -1.0646
 4253TIP3   OH234173   5.863   4.636  15.076 -0.5680  0.6780  0.0847
 4253TIP3    H134174   5.915   4.712  15.050 -1.2161  1.3844  0.8112
 4253TIP3    H234175   5.927   4.569  15.096 -0.0007  0.8830 -1.0128
 4254TIP3   OH234176   2.880   6.298  13.450 -0.5178  0.6717  0.1516
 4254TIP3    H134177   2.911   6.372  13.501 -2.7684  1.5627  0.2766
 4254TIP3    H234178   2.817   6.335  13.389 -1.0443 -1.0216 -0.3658
 4255TIP3   OH234179   2.337   1.677   6.095  0.2871 -0.2982  0.3552
 4255TIP3    H134180   2.255   1.715   6.126  0.5476  0.1617  0.4915
 4255TIP3    H234181   2.314   1.589   6.066  0.3072 -1.2939  3.2592
 4256TIP3   OH234182   4.430   3.778   2.030  0.6542  0.4423 -0.4190
 4256TIP3    H134183   4.351   3.748   2.076  0.4347 -0.6527 -1.5001
 4256TIP3    H234184   4.412   3.761   1.938  2.2412  0.0082 -0.6550
 4257TIP3   OH234185   0.266   1.085  14.923 -0.2514 -0.1560 -0.5577
 4257TIP3    H134186   0.246   1.033  15.000  1.4539  0.0849  0.0545
 4257TIP3    H234187   0.185   1.083  14.871 -0.5999 -2.3441  0.0486
 4258TIP3   OH234188   1.904   4.201  14.776  0.2215 -0.1600  0.0242
 4258TIP3    H134189   1.968   4.195  14.848  1.0996 -0.8379 -0.8064
 4258TIP3    H234190   1.825   4.237  14.818  0.8350 -0.2013  1.2550
 4259TIP3   OH234191   1.303   5.449  14.557 -0.2021  0.0780 -0.3507
 4259TIP3    H134192   1.350   5.517  14.509 -0.8638 -0.7702 -2.2638
 4259TIP3    H234193   1.218   5.489  14.577 -0.7061 -0.2442 -1.7390
 4260TIP3   OH234194   3.127   2.828   2.306  0.5370  0.5863  0.3417
 4260TIP3    H134195   3.080   2.820   2.389  1.1212 -0.8779  0.5320
 4260TIP3    H234196   3.214   2.857   2.331  1.3793 -1.9457  0.4315
 4261TIP3   OH234197   1.953   2.084  15.570 -0.5363  0.4646 -0.1390
 4261TIP3    H134198   1.949   2.138  15.649 -1.4208  0.1582  0.0331
 4261TIP3    H234199   2.035   2.034  15.579  0.1287  1.5360 -0.1513
 4262TIP3   OH234200   1.103   0.744  15.408  0.2683  0.1937  0.8296
 4262TIP3    H134201   1.054   0.738  15.326  0.0249 -0.5016  1.0254
 4262TIP3    H234202   1.182   0.793  15.385  0.3469 -0.2624  0.1198
 4263TIP3   OH234203   0.946   1.005  14.099 -0.0201 -0.1628 -0.0807
 4263TIP3    H134204   1.036   0.985  14.073 -0.5773 -1.9792 -0.6886
 4263TIP3    H234205   0.946   0.996  14.194  0.2258 -1.0800 -0.1685
 4264TIP3   OH234206   3.625   1.214  11.797 -0.6549 -0.0026 -0.4343
 4264TIP3    H134207   3.632   1.277  11.725  0.1773 -1.1562 -1.3890
 4264TIP3    H234208   3.554   1.156  11.770 -0.6150 -0.1959 -0.1212
 4265TIP3   OH234209   0.817   3.372   3.643  0.1801 -0.0880 -0.4536
 4265TIP3    H134210   0.887   3.307   3.632 -0.6253 -0.6312 -2.7466
 4265TIP3    H234211   0.743   3.321   3.678  0.6941  0.3403  1.2739
 4266TIP3   OH234212   4.481   6.088   0.305 -0.6777 -0.3201  0.2361
 4266TIP3    H134213   4.551   6.153   0.296 -0.7773 -0.2543 -0.0448
 4266TIP3    H234214   4.401   6.134   0.278 -0.6519 -0.7548 -0.6059
 4267TIP3   OH234215   4.945   4.920  15.685 -0.1098 -0.0535  0.8885
 4267TIP3    H134216   4.942   5.002  15.734 -1.4493 -0.1890  1.0454
 4267TIP3    H234217   4.865   4.920  15.633  1.2706  0.0495 -1.2717
 4268TIP3   OH234218   3.856   0.555  16.260 -0.0465 -0.5237 -0.1281
 4268TIP3    H134219   3.838   0.564  16.354  1.1572  0.2298  0.0402
 4268TIP3    H234220   3.945   0.521  16.255  0.5059  0.9796 -1.0095
 4269TIP3   OH234221   6.708   3.503  10.956  0.4848 -0.0329  0.2329
 4269TIP3    H134222   6.698   3.597  10.972 -0.1431  0.2162 -1.5652
 4269TIP3    H234223   6.619   3.471  10.942  0.8741 -0.5270 -1.1685
 4270TIP3   OH234224   5.666   5.815  12.281 -0.0689  0.4466 -0.1178
 4270TIP3    H134225   5.667   5.898  12.232  0.3345 -0.2865 -1.3571
 4270TIP3    H234226   5.573   5.794  12.291 -0.1394  0.2867 -1.1029
 4271TIP3   OH234227   4.536   0.838   3.483 -0.1320  0.1663 -0.2137
 4271TIP3    H134228   4.621   0.834   3.527 -0.1719 -0.2075 -0.1697
 4271TIP3    H234229   4.544   0.913   3.424  1.0325 -1.1847 -1.8497
 4272TIP3   OH234230   2.295   5.570  11.803 -0.8123  0.0744 -0.1861
 4272TIP3    H134231   2.343   5.489  11.824  2.3750  1.6832 -0.9884
 4272TIP3    H234232   2.214   5.539  11.763  0.1735 -2.7439 -0.1850
 4273TIP3   OH234233   2.493   2.716  10.837  0.2202 -0.4143 -0.0261
 4273TIP3    H134234   2.473   2.736  10.746  1.0124  1.8886  0.2661
 4273TIP3    H234235   2.408   2.708  10.880 -0.1488 -1.0219 -0.8638
 4274TIP3   OH234236   0.730   5.009   0.977 -0.3946 -0.0036  0.3548
 4274TIP3    H134237   0.762   5.034   1.063 -0.0803  1.1757 -0.0939
 4274TIP3    H234238   0.783   4.933   0.951  0.3225  0.3921  0.6781
 4275TIP3   OH234239   3.206   0.062   4.177 -0.2623 -0.1787  0.4227
 4275TIP3    H134240   3.134   0.091   4.120 -0.5462  0.3026  1.0183
 4275TIP3    H234241   3.167  -0.005   4.233  0.1265 -0.9597 -0.2397
 4276TIP3   OH234242   5.831   3.951   1.426 -0.1640 -0.0303  0.7536
 4276TIP3    H134243   5.812   3.968   1.518  0.2014 -0.4237  0.9044
 4276TIP3    H234244   5.905   3.890   1.427  0.1452  0.3226  0.1953
 4277TIP3   OH234245   2.471   2.243   3.661 -0.3699 -0.2074 -0.0416
 4277TIP3    H134246   2.427   2.189   3.596 -0.0938  0.5406 -0.8567
 4277TIP3    H234247   2.420   2.231   3.741 -0.4238 -1.5195 -0.2599
 4278TIP3   OH234248   2.467   5.651   2.882 -0.3616  0.2754  0.2522
 4278TIP3    H134249   2.394   5.665   2.822 -1.8981  2.2607  2.4769
 4278TIP3    H234250   2.476   5.555   2.886 -2.1748  0.0262 -0.8289
 4279TIP3   OH234251   6.489   4.502  15.879  0.3076  0.4442 -0.2392
 4279TIP3    H134252   6.584   4.511  15.879  0.2999  0.5309  0.3220
 4279TIP3    H234253   6.456   4.591  15.894  0.1857 -0.0119  2.4030
 4280TIP3   OH234254   5.684   3.771   2.772  0.2653 -0.3428 -0.0574
 4280TIP3    H134255   5.659   3.858   2.803  0.8537 -0.5273  0.9565
 4280TIP3    H234256   5.748   3.788   2.703  1.4822  0.0099  1.1355
 4281TIP3   OH234257   5.878   0.214  16.372  0.5304  0.1264  0.6319
 4281TIP3    H134258   5.954   0.268  16.350  0.3143 -0.5894 -1.9867
 4281TIP3    H234259   5.807   0.276  16.384  0.3129  0.5024 -2.2329
 4282TIP3   OH234260   4.916   0.138  11.444 -0.4688  0.2847  0.5801
 4282TIP3    H134261   4.902   0.049  11.412 -0.0608  0.1683  0.7179
 4282TIP3    H234262   4.883   0.195  11.374 -1.4824  0.0226  0.8450
 4283TIP3   OH234263   4.410   6.784   1.301 -0.0313  0.0234 -0.2611
 4283TIP3    H134264   4.391   6.835   1.223  1.1212  2.5350  1.0499
 4283TIP3    H234265   4.487   6.826   1.340  0.8937 -2.6340  0.9396
 4284TIP3   OH234266   5.709   5.953  11.627 -0.3364 -0.3585 -0.1483
 4284TIP3    H134267   5.775   6.022  11.641 -2.0054  1.7960 -2.5810
 4284TIP3    H234268   5.653   5.958  11.704 -0.4163  0.9719 -0.2867
 4285TIP3   OH234269   0.280   1.121   3.047 -0.2691  0.2130  0.2969
 4285TIP3    H134270   0.280   1.086   3.136  0.4659  0.6521  0.4774
 4285TIP3    H234271   0.203   1.179   3.043  0.1507  0.8203  0.9063
 4286TIP3   OH234272   4.983   0.036  17.220  0.4560  0.1311 -0.0945
 4286TIP3    H134273   4.998   0.002  17.308  0.7887  0.2789 -0.0937
 4286TIP3    H234274   5.067   0.076  17.195  0.0344  1.0454 -0.0528
 4287TIP3   OH234275   0.334   5.825   1.262  0.7413  0.3507  0.3434
 4287TIP3    H134276   0.245   5.816   1.296  0.3076  0.9304 -0.6222
 4287TIP3    H234277   0.339   5.915   1.231  1.0906 -0.1888 -1.2175
 4288TIP3   OH234278   2.715   5.036  12.186 -0.1681 -0.0329 -0.0149
 4288TIP3    H134279   2.652   5.075  12.125  0.3086  0.5469 -0.1509
 4288TIP3    H234280   2.691   5.072  12.271 -1.9774 -2.2602  0.4692
 4289TIP3   OH234281   3.959   2.884  13.163  0.2161  0.7680 -0.1691
 4289TIP3    H134282   4.039   2.863  13.211  1.9218  2.8663 -2.0003
 4289TIP3    H234283   3.902   2.927  13.226  0.8108 -0.0797  0.9527
 4290TIP3   OH234284   0.093   2.314   0.431 -0.2578 -0.0847 -0.3747
 4290TIP3    H134285   0.012   2.281   0.393 -0.0310  0.8404 -1.6910
 4290TIP3    H234286   0.163   2.275   0.378  0.1666 -1.0283  0.8715
 4291TIP3   OH234287   3.643   4.549  11.913  0.6827 -0.0413  0.6548
 4291TIP3    H134288   3.611   4.598  11.988  0.7160  2.5778 -0.9596
 4291TIP3    H234289   3.735   4.533  11.932  0.2563 -1.0585  1.9682
 4292TIP3   OH234290   4.022   0.419   1.473  0.7662 -0.0100  0.0522
 4292TIP3    H134291   4.099   0.465   1.505 -0.3939  0.5736  2.1355
 4292TIP3    H234292   3.992   0.367   1.547 -2.0219  1.3974  0.0105
 4293TIP3   OH234293   0.942   5.327   4.531  0.1219 -0.0384 -0.6891
 4293TIP3    H134294   0.858   5.354   4.568  0.2567  1.4735 -1.4642
 4293TIP3    H234295   0.955   5.238   4.565 -0.5631  0.6615  1.5121
 4294TIP3   OH234296   5.000   3.818   5.629  0.1997 -0.0580 -0.5408
 4294TIP3    H134297   5.003   3.861   5.714  0.6101 -0.6415 -0.2588
 4294TIP3    H234298   4.937   3.869   5.578 -1.4295 -0.7548  0.7148
 4295TIP3   OH234299   4.528   4.215   1.259  0.0553  0.2832 -0.1025
 4295TIP3    H134300   4.508   4.309   1.259 -1.2580  0.0326  2.2851
 4295TIP3    H234301   4.446   4.173   1.232 -0.0289 -0.2813  0.9973
 4296TIP3   OH234302   3.715   4.389   1.851 -0.1327 -0.2062 -0.8952
 4296TIP3    H134303   3.635   4.339   1.831  0.3566 -1.1367 -0.5398
 4296TIP3    H234304   3.780   4.356   1.789  0.1380  0.1481 -0.8013
 4297TIP3   OH234305   6.008   5.791  11.288 -0.2426 -0.0245  0.4287
 4297TIP3    H134306   5.957   5.710  11.283 -0.8701  0.3450  0.7755
 4297TIP3    H234307   5.945   5.857  11.314  0.5206  0.3481  1.3654
 4298TIP3   OH234308   0.988   2.885  13.450  0.1666  0.0606 -0.1922
 4298TIP3    H134309   1.046   2.816  13.417  0.4836  0.1857  0.1058
 4298TIP3    H234310   1.012   2.963  13.399  0.0446  0.0352 -0.2883
 4299TIP3   OH234311   4.595   0.540  15.503 -0.3982 -0.4900 -0.3304
 4299TIP3    H134312   4.678   0.501  15.475  1.9074  2.5470  1.8899
 4299TIP3    H234313   4.559   0.480  15.568  0.8439 -1.0997 -0.2090
 4300TIP3   OH234314   4.604   3.135   1.020  0.4632 -0.1177  0.2239
 4300TIP3    H134315   4.541   3.196   1.058 -0.1077  0.5191 -1.6996
 4300TIP3    H234316   4.689   3.173   1.040  0.1045  1.7905 -1.6647
 4301TIP3   OH234317   0.428   5.943   1.829 -0.0795 -0.0645 -0.6333
 4301TIP3    H134318   0.403   6.003   1.899 -1.0266 -0.3304 -0.7382
 4301TIP3    H234319   0.521   5.926   1.844  0.0564  0.9548 -0.2501
 4302TIP3   OH234320   5.588   3.604  11.195  0.1675  0.8014 -0.0939
 4302TIP3    H134321   5.531   3.674  11.228  0.6321  2.3508 -2.5098
 4302TIP3    H234322   5.676   3.630  11.223  0.1061  0.0979  0.7853
 4303TIP3   OH234323   3.498   5.186  14.152 -0.1946  0.4703  0.1317
 4303TIP3    H134324   3.430   5.238  14.110  0.9122  1.5200 -0.3831
 4303TIP3    H234325   3.569   5.248  14.169  0.8418 -0.7136  0.1949
 4304TIP3   OH234326   2.905   2.358   5.385  0.0426  0.4491 -0.3271
 4304TIP3    H134327   2.941   2.409   5.458  0.9689 -0.4073 -0.1634
 4304TIP3    H234328   2.981   2.313   5.348 -0.8682 -1.4642  0.0622
 4305TIP3   OH234329   3.883   4.002   4.222 -0.2519  0.2109  0.8699
 4305TIP3    H134330   3.972   4.022   4.193 -0.4393 -0.9249 -0.5519
 4305TIP3    H234331   3.894   3.959   4.306  0.4817  0.9643  1.1704
 4306TIP3   OH234332   1.660   3.822   0.806 -0.2521  0.2030 -0.1793
 4306TIP3    H134333   1.638   3.737   0.843 -1.9520  0.4308 -0.6053
 4306TIP3    H234334   1.680   3.805   0.714 -2.4626  0.4837 -0.7435
 4307TIP3   OH234335   2.230   3.832   1.981  0.4385 -0.5344  0.3441
 4307TIP3    H134336   2.290   3.892   2.026 -1.2598 -0.1975  2.2369
 4307TIP3    H234337   2.145   3.851   2.020 -0.3776 -3.1702 -0.1072
 4308TIP3   OH234338   0.743   6.671  16.837 -0.6610 -0.5216  0.0200
 4308TIP3    H134339   0.661   6.680  16.886 -0.3764 -0.0296  0.4169
 4308TIP3    H234340   0.722   6.610  16.766 -1.1250 -1.1046  0.6524
 4309TIP3   OH234341   0.375   0.974  16.191 -0.2303 -0.0907 -1.0888
 4309TIP3    H134342   0.435   0.902  16.172 -1.5851 -1.4263 -0.4492
 4309TIP3    H234343   0.377   0.983  16.286 -0.5217  0.3060 -1.1177
 4310TIP3   OH234344   1.354   0.812  12.157 -0.0747  0.2516  0.3322
 4310TIP3    H134345   1.274   0.863  12.144 -0.3865 -0.1895  0.5122
 4310TIP3    H234346   1.406   0.830  12.079  0.2100  1.5680  0.8235
 4311TIP3   OH234347   1.053   1.241   0.571  0.7662  0.5002 -0.0583
 4311TIP3    H134348   1.072   1.256   0.479 -2.2150 -0.5453 -0.8774
 4311TIP3    H234349   1.001   1.318   0.598  0.8124  0.3396  0.5039
 4312TIP3   OH234350   6.132   4.105  17.237  0.5512  1.0920 -0.0716
 4312TIP3    H134351   6.225   4.095  17.214  0.7868  3.7701 -0.4167
 4312TIP3    H234352   6.089   4.122  17.153 -0.5837 -2.0474 -0.1818
 4313TIP3   OH234353   2.863   6.084  13.055 -0.0792  0.2342 -0.2742
 4313TIP3    H134354   2.942   6.109  13.102  0.4351 -1.1623 -0.3678
 4313TIP3    H234355   2.799   6.063  13.123 -0.7526  2.4118 -0.1812
 4314TIP3   OH234356   3.293   3.204  16.186 -0.0181  0.0908  0.2721
 4314TIP3    H134357   3.388   3.205  16.174 -0.2891  0.3270 -2.2462
 4314TIP3    H234358   3.258   3.202  16.097 -2.3918  0.2895  1.1603
 4315TIP3   OH234359   2.816   6.164  12.271 -0.2084  0.4612 -0.0668
 4315TIP3    H134360   2.871   6.173  12.192  0.9120  0.3306  0.6891
 4315TIP3    H234361   2.859   6.219  12.336 -0.6649 -0.1082  0.7136
 4316TIP3   OH234362   1.452   0.979   5.606 -0.0896  0.2835 -0.0614
 4316TIP3    H134363   1.494   0.935   5.531  2.0227  1.8302  0.1554
 4316TIP3    H234364   1.485   0.933   5.683  0.5264  0.9260  0.0669
 4317TIP3   OH234365   3.812   3.826   0.083  0.0016  0.9592 -0.1429
 4317TIP3    H134366   3.855   3.887   0.144 -0.2828  0.6223  0.3917
 4317TIP3    H234367   3.883   3.798   0.025  0.1930  1.5924 -0.2244
 4318TIP3   OH234368   1.381   2.883   3.317 -0.8269  0.1495 -0.7485
 4318TIP3    H134369   1.389   2.788   3.308 -1.1028  0.3296 -3.4224
 4318TIP3    H234370   1.289   2.902   3.300 -0.3635  1.0638 -2.3831
 4319TIP3   OH234371   6.533   3.415  10.624 -0.1628  0.3341  0.0882
 4319TIP3    H134372   6.548   3.433  10.717 -0.0540  1.7692 -0.1928
 4319TIP3    H234373   6.438   3.421  10.613 -0.2835 -0.9770  0.3211
 4320TIP3   OH234374   6.541   0.829  15.287  0.5610 -0.0707 -0.2598
 4320TIP3    H134375   6.503   0.847  15.373  1.7616  1.2980  0.0165
 4320TIP3    H234376   6.472   0.782  15.240 -0.4243 -0.1007  1.1626
 4321TIP3   OH234377   2.110   6.120  13.495  0.0780 -0.2668 -0.4167
 4321TIP3    H134378   2.123   6.026  13.508  1.1001 -0.0205  0.4699
 4321TIP3    H234379   2.015   6.131  13.490 -0.0049 -1.4973 -1.7634
 4322TIP3   OH234380   0.981   5.078   0.460  0.9321  0.2114  0.5174
 4322TIP3    H134381   1.026   5.051   0.540  0.3639  1.2721  1.1972
 4322TIP3    H234382   0.947   5.165   0.479  1.9243  1.0352 -1.3160
 4323TIP3   OH234383   4.175   5.842   3.285  0.7204 -0.1371  0.1920
 4323TIP3    H134384   4.173   5.858   3.379  2.9768  0.0760  0.2441
 4323TIP3    H234385   4.088   5.807   3.264 -0.2462  1.0707  2.1031
 4324TIP3   OH234386   0.091   2.426   0.137 -0.1215 -0.1009  0.2331
 4324TIP3    H134387   0.079   2.478   0.217 -0.8600  1.6106 -0.9456
 4324TIP3    H234388   0.023   2.458   0.078  0.1061 -1.6939 -0.9147
 4325TIP3   OH234389   3.099   6.040  14.185 -0.1041 -0.4229  0.5540
 4325TIP3    H134390   3.116   5.970  14.122  1.3912  0.1919  0.2374
 4325TIP3    H234391   3.018   6.080  14.155  0.2068 -0.6081 -0.5652
 4326TIP3   OH234392   4.486   5.418   2.005 -0.2330  0.2128  0.0917
 4326TIP3    H134393   4.456   5.461   2.085  1.5864  2.0496 -0.1726
 4326TIP3    H234394   4.553   5.356   2.035  1.7733  2.2272 -0.1796
 4327TIP3   OH234395   6.325   0.637   4.670 -0.4849  0.0572  0.0569
 4327TIP3    H134396   6.261   0.693   4.627  1.1301  2.2890  0.4402
 4327TIP3    H234397   6.292   0.627   4.760 -1.3453 -0.5400 -0.3222
 4328TIP3   OH234398   3.320   5.007  14.902 -0.4007 -0.0996 -0.1109
 4328TIP3    H134399   3.255   4.960  14.849  0.7804  0.5987 -2.2251
 4328TIP3    H234400   3.400   4.954  14.895  0.6567  1.6721 -1.6649
 4329TIP3   OH234401   2.794   2.629  16.612  0.0193 -0.4359 -0.6982
 4329TIP3    H134402   2.765   2.721  16.613 -1.2604 -0.8327 -1.2843
 4329TIP3    H234403   2.751   2.590  16.688  0.6138 -0.5488 -0.4150
 4330TIP3   OH234404   2.332   6.341   1.003  0.1516  0.1482 -0.6612
 4330TIP3    H134405   2.236   6.345   1.006  0.1567 -0.5100  1.1991
 4330TIP3    H234406   2.359   6.431   0.985 -0.7443  0.9175  1.6671
 4331TIP3   OH234407   1.644   3.520   3.722 -0.1349 -0.0495 -0.3708
 4331TIP3    H134408   1.671   3.497   3.633  1.0506 -1.2305  0.2843
 4331TIP3    H234409   1.589   3.447   3.750  3.3718 -2.0450  1.5944
 4332TIP3   OH234410   1.489   6.691  12.286 -0.4128  0.2914 -0.7312
 4332TIP3    H134411   1.538   6.773  12.286  1.3620 -0.7562 -0.3912
 4332TIP3    H234412   1.404   6.715  12.324  0.9730  1.4582  1.7837
 4333TIP3   OH234413   6.082   6.157   4.981  0.0803 -0.3746  0.7136
 4333TIP3    H134414   6.159   6.139   5.036 -0.2566 -1.5574  0.8144
 4333TIP3    H234415   6.023   6.205   5.039  0.3941 -0.1903  0.8882
 4334TIP3   OH234416   6.084   0.843  16.810 -0.0027 -0.3558  0.2309
 4334TIP3    H134417   6.048   0.880  16.890  0.0963  0.1768  0.0346
 4334TIP3    H234418   6.107   0.920  16.757 -0.4172 -0.7035 -0.4598
 4335TIP3   OH234419   6.590   1.701   2.119  0.3201  0.0314 -0.1635
 4335TIP3    H134420   6.630   1.788   2.116  1.0386 -0.2325  1.3288
 4335TIP3    H234421   6.664   1.640   2.127 -0.2351 -0.6401 -0.0558
 4336TIP3   OH234422   1.730   1.804   2.376  0.0311  0.2977  0.0897
 4336TIP3    H134423   1.791   1.764   2.314 -0.3030 -1.0852  0.6343
 4336TIP3    H234424   1.714   1.892   2.341  1.2988  0.1959 -0.7678
 4337TIP3   OH234425   6.152   4.242   5.225  0.1906 -0.4401 -0.0117
 4337TIP3    H134426   6.226   4.188   5.252  0.8344  0.2872 -0.3361
 4337TIP3    H234427   6.077   4.182   5.228  0.7797 -1.1650  0.3441
 4338TIP3   OH234428   6.226   1.254  12.583  0.2459 -0.3815 -0.5640
 4338TIP3    H134429   6.233   1.176  12.528  3.3663 -1.9692  1.8931
 4338TIP3    H234430   6.248   1.223  12.671 -0.8914  2.8026  0.9110
 4339TIP3   OH234431   1.177   3.526  14.348 -0.6695 -0.2101  0.1849
 4339TIP3    H134432   1.271   3.516  14.332 -0.3140  1.9890  0.7479
 4339TIP3    H234433   1.136   3.462  14.290  1.1689 -1.2738  0.0006
 4340TIP3   OH234434   6.082   3.256  13.529 -0.8594 -0.6437 -0.0805
 4340TIP3    H134435   6.176   3.251  13.546 -0.7762  0.2520 -0.2811
 4340TIP3    H234436   6.043   3.206  13.601 -0.3592  0.9936  1.3853
 4341TIP3   OH234437   3.689   5.396   3.031 -0.2759 -0.3325  0.0773
 4341TIP3    H134438   3.595   5.404   3.018 -0.2590  0.3183  0.3592
 4341TIP3    H234439   3.722   5.357   2.950 -0.6097  0.6238 -0.5167
 4342TIP3   OH234440   4.873   6.577  11.053 -0.4558 -0.4822  0.7168
 4342TIP3    H134441   4.799   6.629  11.022 -0.5730 -0.6697  0.6807
 4342TIP3    H234442   4.859   6.490  11.016 -0.5706 -0.6967  1.2579
 4343TIP3   OH234443   5.945   0.093  15.332  0.3441  0.3645  0.4202
 4343TIP3    H134444   6.018   0.073  15.273  0.6470  2.4353  0.0482
 4343TIP3    H234445   5.931   0.012  15.381  0.8090 -1.0344 -1.7133
 4344TIP3   OH234446   5.635   3.290  14.459 -0.2452 -0.3046 -0.2423
 4344TIP3    H134447   5.572   3.271  14.390 -2.0435 -1.4601  1.6486
 4344TIP3    H234448   5.619   3.382  14.482  0.5996  0.1863 -1.5673
 4345TIP3   OH234449   6.231   0.346   3.096  0.2926 -0.1531 -0.1892
 4345TIP3    H134450   6.161   0.380   3.039  0.3878 -0.8282 -0.7228
 4345TIP3    H234451   6.264   0.422   3.143 -0.7952  0.1756  0.0512
 4346TIP3   OH234452   6.593   4.537   1.204 -0.2781 -0.8452 -0.5532
 4346TIP3    H134453   6.684   4.525   1.175 -0.5199  1.4843 -2.4864
 4346TIP3    H234454   6.541   4.490   1.139 -0.5162 -1.4737  0.0845
 4347TIP3   OH234455   2.319   5.509  12.846 -0.0850  0.3721 -0.8396
 4347TIP3    H134456   2.261   5.448  12.892  1.2501 -0.3235 -0.0528
 4347TIP3    H234457   2.393   5.455  12.819  1.0423  1.6132 -0.2498
 4348TIP3   OH234458   5.405   0.842   2.650  0.0927 -0.1106 -0.0849
 4348TIP3    H134459   5.458   0.922   2.651  0.4113 -0.3198  1.7057
 4348TIP3    H234460   5.469   0.771   2.652 -0.2242 -0.3673  1.6414
 4349TIP3   OH234461   6.745   1.090  13.578 -0.1289  0.0542  0.3166
 4349TIP3    H134462   6.780   1.063  13.493 -2.2125 -0.1544 -0.5047
 4349TIP3    H234463   6.789   1.034  13.641  1.0854 -0.1234 -0.6685
 4350TIP3   OH234464   2.818   1.324  15.876 -0.2256 -0.6884  0.0927
 4350TIP3    H134465   2.761   1.266  15.927  0.3182 -2.6562 -1.4690
 4350TIP3    H234466   2.900   1.326  15.925 -0.5321 -0.5345  0.6002
 4351TIP3   OH234467   2.896   0.235  15.552  0.6113  0.4077 -0.5987
 4351TIP3    H134468   2.902   0.213  15.459 -1.4637  1.8500 -1.1216
 4351TIP3    H234469   2.984   0.265  15.576  1.1505  0.0453 -2.0873
 4352TIP3   OH234470   3.039   2.198   5.852  0.1601  0.1870  0.7035
 4352TIP3    H134471   3.044   2.144   5.931  1.0145 -0.9391 -0.0946
 4352TIP3    H234472   3.130   2.220   5.833  0.0426 -0.3042 -0.4619
 4353TIP3   OH234473   5.504   0.350  15.267  0.0751  0.1736 -0.2872
 4353TIP3    H134474   5.594   0.361  15.297  0.1488  0.7030 -0.7027
 4353TIP3    H234475   5.457   0.317  15.344  0.8732 -1.2823 -0.4005
 4354TIP3   OH234476   5.095   4.673  12.393 -0.0795  0.4127 -0.4367
 4354TIP3    H134477   5.133   4.685  12.480  0.8171  0.4272 -0.8156
 4354TIP3    H234478   5.134   4.592  12.361 -3.4597 -1.7287  0.7257
 4355TIP3   OH234479   5.677   5.391  12.575 -0.1459 -0.3647  0.2596
 4355TIP3    H134480   5.714   5.304  12.559 -0.9364 -0.4375 -1.2545
 4355TIP3    H234481   5.739   5.432  12.636  0.5815 -1.7333  0.4768
 4356TIP3   OH234482   6.021   4.849  14.906 -0.2212 -0.5314 -0.3405
 4356TIP3    H134483   5.928   4.840  14.884 -0.6833  0.6234  1.0673
 4356TIP3    H234484   6.039   4.943  14.899  0.4657 -0.5623  0.8335
 4357TIP3   OH234485   3.608   6.329   0.943 -0.7225 -0.2566  0.4977
 4357TIP3    H134486   3.692   6.374   0.959  0.2689 -1.3700 -1.4495
 4357TIP3    H234487   3.580   6.300   1.029  2.0185 -1.8094  0.9179
 4358TIP3   OH234488   3.247   6.007  12.993 -0.2521  0.3491  0.3794
 4358TIP3    H134489   3.229   5.948  12.920  0.8116 -1.0231  1.2097
 4358TIP3    H234490   3.342   6.022  12.989 -0.8517  4.4522 -1.6363
 4359TIP3   OH234491   0.661   6.596   4.154  0.3130  0.2322 -0.2481
 4359TIP3    H134492   0.679   6.639   4.237  0.6755 -1.4087  0.5512
 4359TIP3    H234493   0.744   6.599   4.107  0.2387  0.7272 -0.3503
 4360TIP3   OH234494   3.145   5.621  14.369 -0.0026 -0.3168  0.8817
 4360TIP3    H134495   3.223   5.668  14.338 -1.0388  0.9272  0.1058
 4360TIP3    H234496   3.118   5.669  14.447 -0.8983  0.2385  0.2447
 4361TIP3   OH234497   5.744   0.381   3.823 -0.3433 -0.4942 -0.2264
 4361TIP3    H134498   5.767   0.474   3.825 -1.4890 -0.1740 -1.2316
 4361TIP3    H234499   5.828   0.335   3.824  0.2520  0.5688 -0.6896
 4362TIP3   OH234500   6.169   4.884  13.950 -1.0066  0.7221  0.3931
 4362TIP3    H134501   6.264   4.881  13.965 -0.9305 -0.5324 -0.2537
 4362TIP3    H234502   6.136   4.944  14.017  0.1979  0.8568  0.8826
 4363TIP3   OH234503   0.497   1.097  13.090 -0.0738 -0.1896 -0.1078
 4363TIP3    H134504   0.410   1.062  13.071  0.8883 -1.8357 -1.7174
 4363TIP3    H234505   0.511   1.163  13.022  0.1697 -0.3892 -0.2560
 4364TIP3   OH234506   5.601   1.606  11.174 -0.0493  0.7447  1.0241
 4364TIP3    H134507   5.545   1.580  11.247 -0.7618  0.2313  0.3124
 4364TIP3    H234508   5.646   1.526  11.148  0.9510  1.1384  1.5305
 4365TIP3   OH234509   1.916   6.640   0.616 -0.1784 -0.0183 -0.6214
 4365TIP3    H134510   1.949   6.552   0.597  0.4100  0.5106 -2.0913
 4365TIP3    H234511   1.982   6.699   0.581  1.1318  1.0453  3.3793
 4366TIP3   OH234512   0.400   0.577   1.293 -0.5252  0.2642 -0.4308
 4366TIP3    H134513   0.411   0.492   1.337 -0.3832 -0.4036 -1.7062
 4366TIP3    H234514   0.315   0.571   1.250 -1.2235  1.3981  0.8099
 4367TIP3   OH234515   4.638   4.712  11.502  0.2486  0.1670  0.4703
 4367TIP3    H134516   4.618   4.691  11.593  1.2296 -1.1227  0.4023
 4367TIP3    H234517   4.582   4.653  11.451  0.3750  0.2362  0.2518
 4368TIP3   OH234518   2.737   1.280  16.887  0.4946  0.2304 -0.2048
 4368TIP3    H134519   2.704   1.203  16.842 -1.5888  1.5898 -1.1189
 4368TIP3    H234520   2.792   1.325  16.822  1.5987 -0.4010  0.2833
 4369TIP3   OH234521   0.643   2.230   0.993 -0.5459  0.2523 -0.0526
 4369TIP3    H134522   0.710   2.194   0.935 -1.9281  0.9946 -2.1857
 4369TIP3    H234523   0.692   2.270   1.065  1.1046 -3.4675  1.0148
 4370TIP3   OH234524   0.987   3.133   3.163  0.1415  0.2158  0.3801
 4370TIP3    H134525   0.962   3.224   3.148 -0.3301  0.2767  1.5187
 4370TIP3    H234526   1.012   3.130   3.255  2.3083 -0.3106 -0.1914
 4371TIP3   OH234527   0.759   0.618   2.722 -0.7219  0.8597 -0.3828
 4371TIP3    H134528   0.703   0.544   2.743 -1.5208  1.5788  0.1008
 4371TIP3    H234529   0.800   0.596   2.639  0.8444 -1.1400  0.8888
 4372TIP3   OH234530   0.599   4.997  14.486  0.4198 -0.4674  0.0974
 4372TIP3    H134531   0.656   5.010  14.410  0.3708 -1.9094 -0.2018
 4372TIP3    H234532   0.648   4.938  14.543 -0.2468 -0.7398  0.3966
 4373TIP3   OH234533   1.942   1.989   5.156  0.1414  0.4490 -0.6263
 4373TIP3    H134534   2.033   1.992   5.185  0.1536 -2.3143 -0.2806
 4373TIP3    H234535   1.892   1.970   5.236 -0.6983  1.2579 -0.9402
 4374TIP3   OH234536   5.955   4.389   1.668  0.1936 -0.1278  0.0771
 4374TIP3    H134537   5.875   4.338   1.651  0.1472  0.3698 -1.3167
 4374TIP3    H234538   5.971   4.435   1.585  1.8078 -0.0575  0.4221
 4375TIP3   OH234539   1.316   6.711   1.853  0.0740  0.1614 -0.1909
 4375TIP3    H134540   1.232   6.713   1.806  0.3458  2.0695 -0.6415
 4375TIP3    H234541   1.382   6.704   1.783  0.3445 -0.1902  0.0980
 4376TIP3   OH234542   1.520   6.717  16.157 -0.2020 -0.1074 -0.0804
 4376TIP3    H134543   1.464   6.795  16.156  0.1008  0.1168  0.3873
 4376TIP3    H234544   1.518   6.685  16.067  0.8785  1.3175 -0.6256
 4377TIP3   OH234545   0.216   1.615   0.837  0.5121  0.7151  0.1227
 4377TIP3    H134546   0.287   1.552   0.824  2.6513  2.8760  0.9998
 4377TIP3    H234547   0.190   1.640   0.748  0.9507 -0.0085 -0.2088
 4378TIP3   OH234548   2.719   4.706  12.763  0.0732 -0.6376  0.1603
 4378TIP3    H134549   2.801   4.756  12.753  0.6938 -1.4365  1.1233
 4378TIP3    H234550   2.734   4.626  12.714 -1.0810  0.2723 -1.7262
 4379TIP3   OH234551   2.771   4.926  13.774  0.2314  0.0318  0.0222
 4379TIP3    H134552   2.711   4.906  13.703  0.9047  0.3902 -0.6587
 4379TIP3    H234553   2.824   4.846  13.784 -1.5782 -0.9881  1.8953
 4380TIP3   OH234554   1.866   0.410   1.199  0.2260 -0.3386  0.2073
 4380TIP3    H134555   1.846   0.448   1.285  1.7763 -0.5417  0.6738
 4380TIP3    H234556   1.837   0.319   1.205 -2.2170  0.3384 -0.4445
 4381TIP3   OH234557   3.939   2.609   1.546  0.5734 -0.7639 -0.1360
 4381TIP3    H134558   3.859   2.591   1.497  0.1791  0.3673  0.0883
 4381TIP3    H234559   3.913   2.601   1.638  1.1937 -2.3780 -0.0724
 4382TIP3   OH234560   5.664   3.882   5.193  0.3376  0.4958  0.0219
 4382TIP3    H134561   5.627   3.955   5.242  0.1657  0.4915 -0.1010
 4382TIP3    H234562   5.658   3.808   5.253  0.2081  0.5104  0.0275
 4383TIP3   OH234563   1.460   0.871  16.678 -0.0192 -0.5568 -0.4822
 4383TIP3    H134564   1.540   0.871  16.626 -0.5541  1.0008 -1.3529
 4383TIP3    H234565   1.489   0.881  16.768  0.8437 -1.8502 -0.6041
 4384TIP3   OH234566   5.415   3.364  17.140  0.2239 -0.2169  0.5097
 4384TIP3    H134567   5.450   3.284  17.178 -0.3236 -0.0299  1.4231
 4384TIP3    H234568   5.332   3.337  17.100 -0.9211  0.2521  2.5105
 4385TIP3   OH234569   5.700   0.561  14.757  0.4229 -0.3706 -0.2145
 4385TIP3    H134570   5.792   0.547  14.781  0.0440  1.0311  2.1506
 4385TIP3    H234571   5.652   0.495  14.806  0.1386 -1.1576 -1.5166
 4386TIP3   OH234572   0.212   2.507   5.424 -0.3240  0.1721  0.2947
 4386TIP3    H134573   0.169   2.441   5.478  0.2660 -0.2304  0.2728
 4386TIP3    H234574   0.299   2.517   5.463 -0.2690  0.6487  0.0583
 4387TIP3   OH234575   1.614   3.045   0.992  0.2391 -0.0488  0.0815
 4387TIP3    H134576   1.623   2.968   1.048  1.8102  0.4857  0.5944
 4387TIP3    H234577   1.673   3.028   0.918  1.5009  1.1655  0.7895
 4388TIP3   OH234578   3.497   6.062   2.680  0.2722  0.4270 -0.7876
 4388TIP3    H134579   3.508   5.968   2.666  2.1021  0.1708  2.1028
 4388TIP3    H234580   3.454   6.069   2.765 -0.3489  2.2209 -1.2178
 4389TIP3   OH234581   3.090   6.391   3.027  0.5035 -1.1951  0.4018
 4389TIP3    H134582   3.134   6.437   3.099 -0.5810 -0.7569  0.8056
 4389TIP3    H234583   3.151   6.323   3.000  1.2741 -0.8181  1.1865
 4390TIP3   OH234584   5.295   6.582  14.737 -0.3631  0.2185  0.6296
 4390TIP3    H134585   5.217   6.571  14.790 -1.8073 -3.1617 -2.0432
 4390TIP3    H234586   5.327   6.493  14.722  0.7795  1.1482 -2.9165
 4391TIP3   OH234587   5.740   6.241  15.999  0.6544 -0.1527 -0.0402
 4391TIP3    H134588   5.657   6.196  15.982  0.6071 -0.8393  1.8648
 4391TIP3    H234589   5.717   6.333  16.005  0.0238 -0.3391  0.4596
 4392TIP3   OH234590   5.594   1.391  17.133  0.1644 -0.3805  0.5427
 4392TIP3    H134591   5.521   1.400  17.194 -1.3508  0.4945 -1.3640
 4392TIP3    H234592   5.582   1.304  17.094 -1.1895  0.6718 -1.4337
 4393TIP3   OH234593   1.680   2.827  16.071 -0.1587 -0.3627 -0.2155
 4393TIP3    H134594   1.690   2.840  15.977  1.2108  0.8355  0.0725
 4393TIP3    H234595   1.661   2.734  16.081  1.9375 -0.9422 -1.5174
 4394TIP3   OH234596   1.625   3.374  14.384  0.3545 -0.1602  0.1119
 4394TIP3    H134597   1.679   3.340  14.455  1.1287  1.8866  0.5397
 4394TIP3    H234598   1.684   3.380  14.309  0.7629  2.1102  0.5894
 4395TIP3   OH234599   2.023   4.426   4.942 -0.2993  0.5442  0.0225
 4395TIP3    H134600   2.102   4.375   4.923 -1.0574 -0.4254 -0.5811
 4395TIP3    H234601   2.051   4.517   4.936  0.8072  0.2023 -0.0349
 4396TIP3   OH234602   5.934   0.185  14.860  0.2738  0.2496 -0.0637
 4396TIP3    H134603   5.852   0.144  14.887  0.9263 -0.2987  1.0695
 4396TIP3    H234604   5.984   0.115  14.820  0.9127  0.1897  0.8331
 4397TIP3   OH234605   5.562   2.612   2.648  0.3395 -0.3511 -0.2795
 4397TIP3    H134606   5.478   2.580   2.681 -0.0238 -1.8038 -2.5500
 4397TIP3    H234607   5.579   2.560   2.570  2.6861  0.9013 -0.6464
 4398TIP3   OH234608   0.784   1.612  12.243 -0.3085 -0.5654 -0.0649
 4398TIP3    H134609   0.809   1.597  12.152 -0.2745 -0.6316 -0.0453
 4398TIP3    H234610   0.694   1.645  12.238 -0.1283 -0.0839 -0.1542
 4399TIP3   OH234611   4.932   2.244  12.144  0.1059  1.0379 -0.1023
 4399TIP3    H134612   4.998   2.218  12.081  0.7759  1.4945  0.3990
 4399TIP3    H234613   4.860   2.277  12.092  0.4239  0.8874 -0.6393
 4400TIP3   OH234614   6.336   6.669  11.122 -0.0583  0.3208  0.1035
 4400TIP3    H134615   6.268   6.601  11.111  0.5592 -0.2704 -0.0725
 4400TIP3    H234616   6.384   6.668  11.039  0.6609  0.1978  0.5250
 4401TIP3   OH234617   5.837   2.303   6.624 -0.3340  0.2030  0.2089
 4401TIP3    H134618   5.853   2.334   6.535 -0.3896  1.5156  0.6293
 4401TIP3    H234619   5.747   2.271   6.623 -0.8365  1.5867  0.1429
 4402TIP3   OH234620   1.348   2.734   4.006  0.5283  0.3168  0.2840
 4402TIP3    H134621   1.426   2.743   3.950 -0.0173 -1.2894 -0.7828
 4402TIP3    H234622   1.278   2.777   3.958  0.2108 -0.4614  0.0352
 4403TIP3   OH234623   4.297   0.072  16.963  0.7162 -0.2371  0.4941
 4403TIP3    H134624   4.271  -0.014  16.932 -1.2750  0.7393 -0.6174
 4403TIP3    H234625   4.315   0.060  17.057  0.6191 -1.8604  0.3162
 4404TIP3   OH234626   3.946   1.438  17.012 -0.2343 -0.2271  0.3037
 4404TIP3    H134627   3.954   1.392  16.928 -1.7151 -1.4757  0.8133
 4404TIP3    H234628   3.859   1.479  17.009  0.7468  1.9067  0.1900
 4405TIP3   OH234629   3.885   3.269  16.305 -0.7140  0.3476 -0.0555
 4405TIP3    H134630   3.799   3.297  16.273 -0.4308  0.5968 -0.6005
 4405TIP3    H234631   3.941   3.346  16.293 -0.3025  0.0362 -0.1313
 4406TIP3   OH234632   1.820   0.043  12.318  0.3485  0.1869 -0.3869
 4406TIP3    H134633   1.911   0.018  12.305  0.3656 -0.4302  0.7979
 4406TIP3    H234634   1.772  -0.003  12.250  0.7108 -0.9050  0.0939
 4407TIP3   OH234635   2.065   5.636   1.646  0.5238  0.0621 -0.2936
 4407TIP3    H134636   2.073   5.723   1.606 -1.4398 -0.4078 -1.8157
 4407TIP3    H234637   2.017   5.652   1.728  1.0962  0.5448 -0.0501
 4408TIP3   OH234638   0.244   6.305  12.339  0.5932 -0.4074 -0.3966
 4408TIP3    H134639   0.320   6.252  12.361  0.5326 -0.9154 -1.3929
 4408TIP3    H234640   0.182   6.289  12.411  0.0676 -2.7049 -1.2997
 4409TIP3   OH234641   1.292   2.867   4.241 -0.8180  0.3324 -0.1632
 4409TIP3    H134642   1.230   2.836   4.307 -0.6820 -0.5756 -0.4517
 4409TIP3    H234643   1.257   2.833   4.158 -0.6882  0.9915 -0.4915
 4410TIP3   OH234644   5.031   3.343  11.505  0.4842 -0.0335 -0.2795
 4410TIP3    H134645   5.107   3.302  11.462 -0.8336 -1.8280 -0.9434
 4410TIP3    H234646   5.002   3.409  11.442  1.1940  0.3328 -0.2343
 4411TIP3   OH234647   6.103   1.912  12.445  0.2313  0.8281  0.3372
 4411TIP3    H134648   6.029   1.920  12.384  0.0689 -0.9590  0.2857
 4411TIP3    H234649   6.081   1.971  12.517 -0.6701  1.2385 -0.2605
 4412TIP3   OH234650   4.621   4.766   4.430  0.0005  0.2894  0.2226
 4412TIP3    H134651   4.632   4.671   4.433  0.9079  0.3755 -0.4824
 4412TIP3    H234652   4.707   4.801   4.449 -0.1741  0.9708 -0.2323
 4413TIP3   OH234653   4.529   2.091  16.571  0.3921  0.2603 -0.3053
 4413TIP3    H134654   4.506   2.052  16.486  2.9045 -0.5464 -0.6598
 4413TIP3    H234655   4.524   2.185  16.557 -0.4707  0.1201 -0.9725
 4414TIP3   OH234656   1.040   0.826  16.795 -0.0417  0.4279  0.0039
 4414TIP3    H134657   1.116   0.787  16.837  0.6277  0.6713 -0.9760
 4414TIP3    H234658   0.965   0.794  16.846  0.6652 -0.3506  0.5530
 4415TIP3   OH234659   1.909   3.353   5.079  0.2612  0.0482  0.1384
 4415TIP3    H134660   1.872   3.367   4.992  0.3325  0.9197  0.2396
 4415TIP3    H234661   2.004   3.358   5.066  0.3249 -1.3702  0.0140
 4416TIP3   OH234662   5.271   5.886  16.273  0.6743  0.3935 -0.1671
 4416TIP3    H134663   5.324   5.820  16.229 -0.5499  0.1277 -1.2652
 4416TIP3    H234664   5.235   5.842  16.350 -1.6968 -0.7980 -1.9351
 4417TIP3   OH234665   3.646   0.191   6.251 -0.0533 -0.4212  0.4483
 4417TIP3    H134666   3.726   0.240   6.271  0.9098 -0.4169 -3.1010
 4417TIP3    H234667   3.584   0.219   6.317  1.4215  3.2851  0.3891
 4418TIP3   OH234668   3.554   6.050  13.697 -0.6534  0.0952  0.0818
 4418TIP3    H134669   3.568   6.112  13.768 -1.4834  1.1785 -0.6812
 4418TIP3    H234670   3.642   6.022  13.671  0.1758  5.1760 -3.2547
 4419TIP3   OH234671   2.427   1.880   0.479 -0.6050  0.1742 -0.1761
 4419TIP3    H134672   2.426   1.846   0.569 -0.2110 -1.7597 -0.8755
 4419TIP3    H234673   2.458   1.807   0.426  2.8024  2.4164 -1.4770
 4420TIP3   OH234674   0.555   2.328  14.231 -0.2369  0.1301 -0.2127
 4420TIP3    H134675   0.619   2.398  14.244  1.4630 -0.9611 -2.4290
 4420TIP3    H234676   0.599   2.249  14.263 -1.8322 -0.1125  1.5125
 4421TIP3   OH234677   0.311   4.749   0.590  0.4056  0.5331 -0.1394
 4421TIP3    H134678   0.270   4.783   0.669 -0.7612  1.2112 -1.0297
 4421TIP3    H234679   0.341   4.827   0.543 -1.4626  0.3090 -1.7440
 4422TIP3   OH234680   5.519   2.916   0.601 -0.3698  0.1195 -0.4231
 4422TIP3    H134681   5.535   2.908   0.507 -2.1384 -2.0930 -0.5609
 4422TIP3    H234682   5.545   3.006   0.621  2.2373 -0.0721 -2.5446
 4423TIP3   OH234683   6.282   3.806  11.678 -0.4751  0.6042  0.3531
 4423TIP3    H134684   6.338   3.731  11.659 -1.5694  0.5568 -2.9481
 4423TIP3    H234685   6.321   3.846  11.755  1.6521 -1.8180  0.6092
 4424TIP3   OH234686   3.207   3.192  15.928  0.1375  0.3294  0.1967
 4424TIP3    H134687   3.209   3.170  15.835  1.4275 -0.9350  0.4978
 4424TIP3    H234688   3.147   3.266  15.934  1.5502  1.7193 -1.9330
 4425TIP3   OH234689   6.645   5.262  14.364 -0.1864  0.9330  0.3153
 4425TIP3    H134690   6.634   5.357  14.359 -0.9848  0.9385  1.9838
 4425TIP3    H234691   6.581   5.227  14.301  0.3738  1.4994 -0.5784
 4426TIP3   OH234692   6.507   1.049   0.608 -0.0225 -0.5149  0.0229
 4426TIP3    H134693   6.457   1.118   0.652  0.7867 -0.4565  0.8488
 4426TIP3    H234694   6.496   1.068   0.515 -0.0300  0.5728  0.2347
 4427TIP3   OH234695   4.894   3.781   1.294  0.3156  0.0970 -0.0297
 4427TIP3    H134696   4.846   3.698   1.299 -0.2653  0.3307 -1.5709
 4427TIP3    H234697   4.974   3.760   1.247 -0.2655  0.6029 -1.2504
 4428TIP3   OH234698   4.404   1.150   1.461  0.0543 -0.2888 -0.6068
 4428TIP3    H134699   4.432   1.106   1.541  2.7164 -0.9654 -1.8476
 4428TIP3    H234700   4.380   1.080   1.401 -1.3914  0.1995 -0.6323
 4429TIP3   OH234701   4.012   3.225   3.148  0.1099  0.0674  0.2344
 4429TIP3    H134702   4.016   3.177   3.065  1.0123 -0.2009  0.4275
 4429TIP3    H234703   3.926   3.266   3.148 -0.0019 -0.1580 -0.7132
 4430TIP3   OH234704   2.844   2.287   1.429 -0.2219  0.6147  0.1390
 4430TIP3    H134705   2.759   2.265   1.467  0.6313 -1.5407  0.8570
 4430TIP3    H234706   2.861   2.218   1.365  1.0955  0.8939  0.1702
 4431TIP3   OH234707   3.242   3.989   4.669  0.3764  0.9027  0.7616
 4431TIP3    H134708   3.239   3.996   4.764  1.1990  0.7301  0.8034
 4431TIP3    H234709   3.303   3.916   4.652  0.0477  0.7741  0.1137
 4432TIP3   OH234710   5.967   6.537   1.934 -0.0544  0.1332 -0.0333
 4432TIP3    H134711   5.984   6.629   1.914 -2.4364  1.1724  2.2803
 4432TIP3    H234712   6.051   6.493   1.924  1.0011  2.4597 -1.7061
 4433TIP3   OH234713   1.563   1.970   1.638  0.0162 -0.1253 -0.0678
 4433TIP3    H134714   1.551   1.901   1.572  0.0112  0.3488 -0.5614
 4433TIP3    H234715   1.655   1.995   1.630  0.0880 -0.2723  0.3049
 4434TIP3   OH234716   5.767   1.273   5.761  0.2743 -0.1789  0.0095
 4434TIP3    H134717   5.769   1.199   5.823  0.8934 -0.0772  0.1106
 4434TIP3    H234718   5.699   1.331   5.796  0.9512  0.1123  0.8704
 4435TIP3   OH234719   5.038   1.877   4.450 -0.0545 -0.0924  0.1203
 4435TIP3    H134720   5.120   1.878   4.400  0.7039  0.9365  1.3388
 4435TIP3    H234721   4.977   1.930   4.398  0.3118 -0.1643 -0.3850
 4436TIP3   OH234722   6.036   1.067  16.413 -0.2611  0.1645 -0.4684
 4436TIP3    H134723   5.949   1.036  16.389 -0.4408  1.1504 -1.1296
 4436TIP3    H234724   6.051   1.142  16.355  1.1783 -0.2302 -0.6181
 4437TIP3   OH234725   6.704   2.717  12.500 -0.1465  0.1704 -0.0890
 4437TIP3    H134726   6.706   2.775  12.575 -0.8506  1.3861 -0.9912
 4437TIP3    H234727   6.795   2.711  12.471  0.1154 -0.2559  0.8105
 4438TIP3   OH234728   1.885   5.016   3.818  0.0193  0.3677  0.1759
 4438TIP3    H134729   1.917   4.932   3.787  0.0827  0.5947 -0.3717
 4438TIP3    H234730   1.832   5.051   3.746 -0.6981  0.4187  0.7146
 4439TIP3   OH234731   0.226   5.499  13.574  0.8889  0.2871  0.3992
 4439TIP3    H134732   0.320   5.483  13.566  0.5462 -1.2282 -0.7128
 4439TIP3    H234733   0.185   5.418  13.544 -0.7816  0.9324  0.8794
 4440TIP3   OH234734   3.438   0.724   3.567 -0.1780 -0.7282  0.6794
 4440TIP3    H134735   3.428   0.810   3.527 -0.9777 -0.6267  1.0887
 4440TIP3    H234736   3.361   0.675   3.538 -0.6810 -0.7062  1.9515
 4441TIP3   OH234737   6.574   5.238  15.233 -0.2742 -0.0019 -0.0964
 4441TIP3    H134738   6.583   5.181  15.310 -2.9883  2.1904  1.9371
 4441TIP3    H234739   6.645   5.210  15.175  1.6061 -2.0206  2.9993
 4442TIP3   OH234740   0.986   6.035   5.424 -0.6562 -0.1191  0.3582
 4442TIP3    H134741   1.077   6.025   5.397 -0.5273 -0.3336  0.8587
 4442TIP3    H234742   0.951   6.102   5.365 -0.2299 -0.1762  0.0342
 4443TIP3   OH234743   4.097   4.256  13.138 -0.2914 -0.2046 -0.4832
 4443TIP3    H134744   4.058   4.302  13.064 -1.4398 -1.2455 -0.5456
 4443TIP3    H234745   4.142   4.325  13.188 -0.5411  0.6966 -1.4868
 4444TIP3   OH234746   1.676   2.561   3.035 -0.4869 -0.3653  0.2983
 4444TIP3    H134747   1.690   2.641   2.985  0.6374  0.2641  1.5944
 4444TIP3    H234748   1.595   2.524   2.999 -0.3385  0.6810 -1.1646
 4445TIP3   OH234749   1.308   0.672  16.081 -0.1696  0.8053 -0.2752
 4445TIP3    H134750   1.320   0.713  16.167  2.0770  1.2300 -0.7612
 4445TIP3    H234751   1.303   0.745  16.020 -2.4054  0.5234 -0.4594
 4446TIP3   OH234752   4.270   4.618   2.632 -0.3702  0.1578 -0.0257
 4446TIP3    H134753   4.306   4.587   2.549 -2.7055  1.2504 -1.5092
 4446TIP3    H234754   4.195   4.560   2.648 -1.6844  1.7818 -0.2056
 4447TIP3   OH234755   2.088   0.268   3.517  0.1632  0.2132 -0.0816
 4447TIP3    H134756   2.105   0.358   3.488  1.1719 -0.6163 -2.1484
 4447TIP3    H234757   2.063   0.221   3.437 -1.5937 -1.0650  1.1856
 4448TIP3   OH234758   3.146   0.299  15.622  0.4596 -0.0138  0.0240
 4448TIP3    H134759   3.222   0.303  15.563 -0.4108  5.6755 -0.9696
 4448TIP3    H234760   3.181   0.319  15.709  0.5430 -0.2183  0.0375
 4449TIP3   OH234761   1.766   2.498  16.583  0.3873  0.0481 -0.2245
 4449TIP3    H134762   1.818   2.569  16.545 -0.0600  2.0085  2.6825
 4449TIP3    H234763   1.687   2.541  16.617 -1.1086 -2.2372 -0.6731
 4450TIP3   OH234764   0.273   4.214   2.900 -0.4493 -0.2390  0.4712
 4450TIP3    H134765   0.340   4.206   2.968  0.0826 -0.8301 -0.1120
 4450TIP3    H234766   0.305   4.158   2.829  0.8042  3.0417 -1.6891
 4451TIP3   OH234767   3.454   1.219   5.988  0.0149 -0.2681 -0.3504
 4451TIP3    H134768   3.385   1.265   6.035  0.4395 -0.8906  0.8994
 4451TIP3    H234769   3.412   1.139   5.956  0.5003 -1.3905  1.7040
 4452TIP3   OH234770   3.099   3.216  14.413  0.0657  0.8941  0.3286
 4452TIP3    H134771   3.165   3.149  14.392  0.1477  0.8937  0.5847
 4452TIP3    H234772   3.064   3.189  14.497 -1.6084 -0.1551 -0.6769
 4453TIP3   OH234773   5.627   6.237   5.416 -0.1866 -0.7950  0.4291
 4453TIP3    H134774   5.574   6.316   5.408  0.3508 -0.4357  0.3663
 4453TIP3    H234775   5.565   6.169   5.441 -0.8768 -0.6376 -0.8179
 4454TIP3   OH234776   1.609   1.665  16.766 -0.2314  0.2558  0.2301
 4454TIP3    H134777   1.615   1.612  16.846 -2.2241  0.8861  0.8165
 4454TIP3    H234778   1.699   1.690  16.747  0.3284 -0.4144  1.9315
 4455TIP3   OH234779   2.124   6.321   5.606 -0.0027 -0.0716  0.8642
 4455TIP3    H134780   2.030   6.304   5.599 -0.0891  0.6867  0.2211
 4455TIP3    H234781   2.131   6.409   5.642  0.4631 -0.1829  1.0613
 4456TIP3   OH234782   1.533   1.296  14.797 -1.0242 -0.5079  0.1085
 4456TIP3    H134783   1.438   1.301  14.790 -1.0253 -1.8820 -1.1259
 4456TIP3    H234784   1.557   1.217  14.747  0.9472  0.9920 -1.3874
 4457TIP3   OH234785   5.109   1.128  15.720 -0.1175  0.0052 -0.5767
 4457TIP3    H134786   5.191   1.175  15.734 -0.5970  0.6809 -0.0175
 4457TIP3    H234787   5.080   1.104  15.808 -0.5860 -0.1250 -0.7652
 4458TIP3   OH234788   1.701   6.308  15.747  0.1214  0.1360 -0.1654
 4458TIP3    H134789   1.640   6.264  15.688 -0.3834 -0.3968  0.7287
 4458TIP3    H234790   1.715   6.245  15.818 -1.0797  1.6394  1.4549
 4459TIP3   OH234791   2.730   6.482   1.593 -0.0669 -0.5369 -0.5797
 4459TIP3    H134792   2.726   6.575   1.618 -0.1716 -0.1225 -2.0743
 4459TIP3    H234793   2.644   6.448   1.616  0.1456 -0.3840  0.4439
 4460TIP3   OH234794   6.200   5.136  12.483 -0.2569 -0.6361 -0.0513
 4460TIP3    H134795   6.239   5.093  12.559  0.7930  1.6313  0.7282
 4460TIP3    H234796   6.147   5.207  12.520  0.3510  0.5662 -1.4344
 4461TIP3   OH234797   5.719   3.264   2.819  0.2124  0.1217  0.0074
 4461TIP3    H134798   5.789   3.232   2.877  0.6124 -0.8339 -0.9754
 4461TIP3    H234799   5.749   3.351   2.792  0.6200  0.0622  0.2522
 4462TIP3   OH234800   0.420   0.101   4.046  0.4141  0.0785 -0.3010
 4462TIP3    H134801   0.485   0.036   4.074 -0.5951 -0.3027  1.2217
 4462TIP3    H234802   0.454   0.184   4.080  1.5715  0.3462 -2.0254
 4463TIP3   OH234803   3.726   3.041  11.908 -0.0385 -0.1506  0.6882
 4463TIP3    H134804   3.675   2.984  11.966 -1.2599  1.3760  1.1564
 4463TIP3    H234805   3.745   3.118  11.962  1.1402  0.1152 -0.0967
 4464TIP3   OH234806   4.193   1.922  15.151  0.0189  0.0891 -0.0218
 4464TIP3    H134807   4.140   1.884  15.222 -0.1144 -0.9642 -0.6713
 4464TIP3    H234808   4.228   1.846  15.105  1.8516  0.7897  0.2087
 4465TIP3   OH234809   5.607   3.649  17.170 -0.4899 -0.0192  0.7596
 4465TIP3    H134810   5.516   3.679  17.171  0.2276  2.2100  0.5939
 4465TIP3    H234811   5.657   3.721  17.210  0.9426 -2.1146  2.9294
 4466TIP3   OH234812   4.103   3.333   3.988 -0.1548  0.4909  0.0965
 4466TIP3    H134813   4.094   3.428   3.992  1.5368  0.7111 -0.9946
 4466TIP3    H234814   4.093   3.304   4.079  1.6654  1.9338  0.7774
 4467TIP3   OH234815   1.195   0.162  14.235 -0.0197 -1.2234  0.7867
 4467TIP3    H134816   1.153   0.239  14.274 -0.9220 -0.6744 -1.2428
 4467TIP3    H234817   1.135   0.134  14.166  1.7315 -1.9466 -0.4795
 4468TIP3   OH234818   5.433   2.255   2.848  0.0291  0.0134  0.5113
 4468TIP3    H134819   5.405   2.237   2.938  1.4109  1.5203  1.2794
 4468TIP3    H234820   5.386   2.335   2.824  2.3571  1.6903  1.2599
 4469TIP3   OH234821   2.938   6.718   0.231  0.0801 -0.0976 -0.1540
 4469TIP3    H134822   2.857   6.751   0.194  0.3933  0.5964 -0.2233
 4469TIP3    H234823   2.919   6.626   0.251 -1.1027  0.3649  0.9307
 4470TIP3   OH234824   6.700   3.937   1.263 -0.2742 -0.0270 -0.0595
 4470TIP3    H134825   6.626   3.882   1.236  0.2605 -0.5272 -0.5027
 4470TIP3    H234826   6.661   4.024   1.274 -0.8670 -0.2144 -0.6113
 4471TIP3   OH234827   1.595   6.348   2.793 -0.4026 -0.4668 -0.6031
 4471TIP3    H134828   1.597   6.423   2.734  1.0295 -1.4148 -1.7889
 4471TIP3    H234829   1.611   6.385   2.879  1.1412  0.4888 -1.2835
 4472TIP3   OH234830   1.624   6.314   1.086 -0.6486  0.9727  0.7618
 4472TIP3    H134831   1.704   6.291   1.133  0.0331 -0.1298 -0.9213
 4472TIP3    H234832   1.574   6.232   1.080 -0.8516  1.1575 -0.1981
 4473TIP3   OH234833   1.356   2.125   6.643  0.0420  0.0307  0.3430
 4473TIP3    H134834   1.390   2.056   6.587 -1.4125 -0.0133 -0.5137
 4473TIP3    H234835   1.380   2.206   6.599 -1.6124 -0.0144 -0.6699
 4474TIP3   OH234836   1.042   0.530  11.351  0.9088 -0.1783  0.0108
 4474TIP3    H134837   0.964   0.499  11.398  1.3706 -0.4303  0.6165
 4474TIP3    H234838   1.069   0.608  11.400  0.1537  0.7857 -1.0968
 4475TIP3   OH234839   6.020   1.329   5.940 -0.0134  0.1785  0.3381
 4475TIP3    H134840   5.999   1.258   5.880 -0.7627 -0.7918  1.7245
 4475TIP3    H234841   6.061   1.286   6.015  0.8299  1.3700  0.5801
 4476TIP3   OH234842   4.433   1.963   4.148  0.0706 -0.0606  0.1791
 4476TIP3    H134843   4.415   2.056   4.132  1.3907 -0.3051 -3.0276
 4476TIP3    H234844   4.358   1.918   4.110 -0.3395 -0.3882  1.3273
 4477TIP3   OH234845   1.487   5.989   1.957  0.0807 -0.9788  0.8460
 4477TIP3    H134846   1.423   5.944   2.013 -0.3954 -2.5941 -0.9535
 4477TIP3    H234847   1.501   5.929   1.884 -0.4809  1.7347 -1.5690
 4478TIP3   OH234848   2.231   6.577  16.379  0.3000  0.7964 -0.0695
 4478TIP3    H134849   2.168   6.631  16.331  0.8966 -1.1467 -3.1967
 4478TIP3    H234850   2.316   6.600  16.342  0.8759 -0.2312  0.5784
 4479TIP3   OH234851   3.153   0.246  12.185 -0.6282 -0.5333 -0.5321
 4479TIP3    H134852   3.162   0.255  12.090 -1.5317 -0.6384 -0.6322
 4479TIP3    H234853   3.134   0.153  12.198  0.1090 -0.6399 -0.1944
 4480TIP3   OH234854   0.777   2.361  16.505 -0.3176  0.1514 -0.1739
 4480TIP3    H134855   0.843   2.381  16.572 -0.0617 -2.6924  0.4650
 4480TIP3    H234856   0.794   2.424  16.435  3.2227 -0.6441 -0.1133
 4481TIP3   OH234857   0.343   2.492  14.370  0.0041 -0.1821  0.5505
 4481TIP3    H134858   0.385   2.545  14.302 -0.9208  0.9268  0.8416
 4481TIP3    H234859   0.361   2.401  14.343  0.9924  0.2574 -0.3210
 4482TIP3   OH234860   0.132   2.257   6.368 -0.1141  0.3483  0.4308
 4482TIP3    H134861   0.059   2.292   6.420 -0.6904 -1.3682  0.8079
 4482TIP3    H234862   0.145   2.168   6.402  0.5321 -0.2404 -1.3038
 4483TIP3   OH234863   5.200   5.573  11.545  0.3039  0.5379 -0.1329
 4483TIP3    H134864   5.108   5.575  11.571  0.2423 -1.4769 -0.0617
 4483TIP3    H234865   5.215   5.482  11.517  2.1580  0.9363 -0.5322
 4484TIP3   OH234866   1.360   4.786  13.748  0.0688 -0.3647  0.6421
 4484TIP3    H134867   1.275   4.828  13.733  1.1226  1.2753 -0.9345
 4484TIP3    H234868   1.343   4.723  13.817 -1.9942  1.3555  1.7713
 4485TIP3   OH234869   4.083   2.300  11.709  0.2672 -0.2838 -0.3623
 4485TIP3    H134870   3.996   2.268  11.683  0.0484  0.9708 -1.2213
 4485TIP3    H234871   4.072   2.328  11.800  0.2185 -1.7152  0.0865
 4486TIP3   OH234872   2.330   0.646   4.652  0.2537  0.4006 -0.1823
 4486TIP3    H134873   2.241   0.620   4.676 -0.0112  0.8995 -0.6139
 4486TIP3    H234874   2.384   0.615   4.724 -0.6684  2.8050  1.5940
 4487TIP3   OH234875   2.091   1.183   0.874  0.6997 -0.2523 -0.2549
 4487TIP3    H134876   2.081   1.274   0.846  0.4489 -0.6538 -1.5012
 4487TIP3    H234877   2.147   1.188   0.951 -1.0814  1.1579  0.9930
 4488TIP3   OH234878   6.182   1.747   2.495 -0.2446 -0.0463 -0.8085
 4488TIP3    H134879   6.222   1.739   2.408 -0.4801 -0.7521 -0.8529
 4488TIP3    H234880   6.090   1.727   2.481 -0.1479 -0.9147 -0.2667
 4489TIP3   OH234881   3.478   1.794  13.885 -0.0885  0.1124  0.0638
 4489TIP3    H134882   3.554   1.851  13.874 -0.5590  1.1951  2.1868
 4489TIP3    H234883   3.489   1.756  13.972  0.1030 -2.9416 -1.2232
 4490TIP3   OH234884   0.668   6.184  10.712  0.8461  0.6529 -0.2876
 4490TIP3    H134885   0.721   6.254  10.750  0.1677  0.0325  1.8484
 4490TIP3    H234886   0.721   6.105  10.724 -0.1079  0.1913  0.9340
 4491TIP3   OH234887   0.636   0.239   2.076 -0.9305  0.3814  0.4496
 4491TIP3    H134888   0.711   0.218   2.020  1.1451  0.3532  3.1755
 4491TIP3    H234889   0.614   0.329   2.052  1.9057  1.4634  1.6961
 4492TIP3   OH234890   2.623   5.669   5.343 -0.3273  0.3597  0.4845
 4492TIP3    H134891   2.710   5.684   5.307 -1.2825  2.9440 -0.9222
 4492TIP3    H234892   2.618   5.728   5.418 -1.2358  1.0896 -0.1276
 4493TIP3   OH234893   3.311   1.212  13.624 -0.2071 -0.0234  0.2460
 4493TIP3    H134894   3.321   1.248  13.712  1.4547 -0.9148  0.4342
 4493TIP3    H234895   3.338   1.283  13.566 -1.4230  0.6102  0.4242
 4494TIP3   OH234896   6.133   6.490   6.375 -0.0608  0.7912 -0.0057
 4494TIP3    H134897   6.043   6.514   6.351 -0.5817  0.1775  1.3033
 4494TIP3    H234898   6.163   6.436   6.301 -1.1173  0.1966 -0.0156
 4495TIP3   OH234899   4.073   0.213  10.430  0.1508 -0.0617  0.1432
 4495TIP3    H134900   4.111   0.151  10.492  0.4083 -0.3606 -0.3070
 4495TIP3    H234901   3.994   0.246  10.473  0.9477  0.6014  1.1082
 4496TIP3   OH234902   3.363   4.017   1.964 -0.0473 -0.2448 -0.2338
 4496TIP3    H134903   3.351   3.922   1.961  0.4954 -0.3448  0.5436
 4496TIP3    H234904   3.428   4.035   1.896 -0.0235 -0.4510 -0.2665
 4497TIP3   OH234905   1.490   1.799  15.335 -0.3093  0.1187  0.3129
 4497TIP3    H134906   1.424   1.786  15.267 -1.0316  1.9732  0.6339
 4497TIP3    H234907   1.558   1.851  15.292 -0.9137  1.5578  1.0849
 4498TIP3   OH234908   4.421   3.296   5.254 -0.3795 -0.0309 -0.2833
 4498TIP3    H134909   4.452   3.253   5.334  1.2171 -2.4746 -2.1098
 4498TIP3    H234910   4.469   3.379   5.251 -0.4591  0.0848  1.2742
 4499TIP3   OH234911   6.210   1.953  13.410  0.0443 -0.2236 -0.2696
 4499TIP3    H134912   6.216   1.955  13.506 -1.0955  1.9883 -0.2182
 4499TIP3    H234913   6.120   1.978  13.391  0.6934  0.9254 -1.9520
 4500TIP3   OH234914   2.481   6.073  10.914  0.4058 -0.4772  0.2497
 4500TIP3    H134915   2.555   6.012  10.914  0.5621 -0.3148 -1.2968
 4500TIP3    H234916   2.483   6.112  10.827 -1.4869 -0.4467  0.2065
 4501TIP3   OH234917   6.728   0.958  14.978 -0.1950  0.0123 -0.7624
 4501TIP3    H134918   6.634   0.963  14.961 -0.8510 -1.4945  2.1671
 4501TIP3    H234919   6.764   0.914  14.901 -2.1113 -0.6852 -1.2849
 4502TIP3   OH234920   4.932   1.088  15.497  0.0025 -0.2305  0.4564
 4502TIP3    H134921   4.939   0.995  15.520 -0.2184 -0.3099  0.1932
 4502TIP3    H234922   5.017   1.125  15.523  1.5924 -1.2524 -2.9775
 4503TIP3   OH234923   4.214   5.498  13.298  0.2335  0.5628  0.2894
 4503TIP3    H134924   4.277   5.518  13.367  0.1885  0.7728  0.2682
 4503TIP3    H234925   4.177   5.413  13.324  1.4613 -0.1860 -0.3671
 4504TIP3   OH234926   0.929   3.227  15.493  0.5473  0.0546 -0.0261
 4504TIP3    H134927   0.962   3.316  15.484  1.2965  0.2252  3.5992
 4504TIP3    H234928   0.835   3.234  15.480  0.5551  1.4497  0.5958
 4505TIP3   OH234929   2.713   4.402   4.874 -0.5204  0.4926 -0.3480
 4505TIP3    H134930   2.694   4.435   4.786  0.8482  2.7596  0.1844
 4505TIP3    H234931   2.708   4.478   4.931 -1.8402 -1.0387  1.6574
 4506TIP3   OH234932   3.972   1.434   5.595 -0.0069 -0.1076 -0.2935
 4506TIP3    H134933   3.990   1.490   5.519  0.9314  0.8166  0.6022
 4506TIP3    H234934   3.893   1.386   5.571 -0.9474  1.7481 -0.9939
 4507TIP3   OH234935   4.741   0.459  12.634 -0.6003  0.3365 -0.2256
 4507TIP3    H134936   4.792   0.479  12.713  1.4335 -0.6771 -1.2546
 4507TIP3    H234937   4.703   0.373  12.650 -2.4335  1.2727  0.7194
 4508TIP3   OH234938   0.484   2.235   3.928  0.0840  0.1263 -0.7069
 4508TIP3    H134939   0.399   2.221   3.885  0.3654 -1.1924 -0.8354
 4508TIP3    H234940   0.468   2.310   3.986 -1.3770 -0.5666 -0.1798
 4509TIP3   OH234941   4.312   3.993  14.487  0.0031 -0.0409 -0.0596
 4509TIP3    H134942   4.404   3.974  14.510  0.3018  0.2710 -0.9893
 4509TIP3    H234943   4.306   3.972  14.394 -0.6213  0.8930 -0.2329
 4510TIP3   OH234944   1.717   2.123   1.224  0.5295  0.4608  0.2093
 4510TIP3    H134945   1.804   2.085   1.222  1.2816  2.0607  1.7912
 4510TIP3    H234946   1.716   2.185   1.150  0.5979  0.1969 -0.0145
 4511TIP3   OH234947   2.309   5.468   3.256 -0.0919 -0.2921  0.1171
 4511TIP3    H134948   2.282   5.533   3.321 -1.2162 -0.6322  0.0112
 4511TIP3    H234949   2.284   5.384   3.294  1.1477 -0.6557  0.1533
 4512TIP3   OH234950   5.394   3.247  14.902  0.5219 -0.1814  0.2005
 4512TIP3    H134951   5.477   3.212  14.870  0.3301  0.8481 -1.4420
 4512TIP3    H234952   5.407   3.342  14.905 -0.3702 -0.0632  0.5809
 4513TIP3   OH234953   1.216   1.149  15.742 -0.0718 -0.3128 -0.1494
 4513TIP3    H134954   1.128   1.142  15.779 -0.4660 -0.7317 -1.1318
 4513TIP3    H234955   1.221   1.238  15.709 -0.7423 -0.7873 -1.5715
 4514TIP3   OH234956   5.084   5.917  11.640  0.2970  0.5528  0.4450
 4514TIP3    H134957   5.109   5.948  11.727  0.0459 -3.4787  2.0741
 4514TIP3    H234958   4.989   5.930  11.636  0.0936 -0.5559  1.3765
 4515TIP3   OH234959   2.934   0.936  11.978  0.0534 -0.4967  0.0681
 4515TIP3    H134960   2.945   0.936  12.073  0.8608 -0.3382 -0.0213
 4515TIP3    H234961   3.020   0.911  11.944 -0.7715 -2.5599 -0.5580
 4516TIP3   OH234962   2.496   6.155  12.889  0.3077 -1.7214  0.1724
 4516TIP3    H134963   2.571   6.184  12.838  0.2747 -1.7850  0.0893
 4516TIP3    H234964   2.428   6.219  12.871  1.0246 -0.4155  1.9547
 4517TIP3   OH234965   2.230   0.466   5.825  0.1320 -0.2172 -0.5428
 4517TIP3    H134966   2.256   0.557   5.835  0.3017 -0.2395 -0.7773
 4517TIP3    H234967   2.285   0.433   5.755  0.2648 -0.5774 -0.2726
 4518TIP3   OH234968   2.741   3.611  15.690  0.2718 -0.5807 -0.1998
 4518TIP3    H134969   2.747   3.668  15.613  0.5160 -1.4162 -0.8064
 4518TIP3    H234970   2.796   3.536  15.669 -0.1758 -1.1229  0.5281
 4519TIP3   OH234971   2.318   2.668   0.512 -0.1886  0.0823  0.5666
 4519TIP3    H134972   2.414   2.670   0.518 -0.0840 -1.4369 -0.3692
 4519TIP3    H234973   2.292   2.608   0.582 -0.6016  1.8569  1.9881
 4520TIP3   OH234974   2.221   4.888   0.385 -0.3845  0.4608 -0.2408
 4520TIP3    H134975   2.245   4.960   0.443  0.9119 -0.2645  0.1225
 4520TIP3    H234976   2.132   4.865   0.412  0.9034 -1.1982  2.8394
 4521TIP3   OH234977   0.277   3.676   3.878 -0.1697 -0.1400  0.5354
 4521TIP3    H134978   0.235   3.691   3.793 -1.5726 -1.4162  0.9674
 4521TIP3    H234979   0.359   3.630   3.856 -1.1099 -1.5766 -0.0827
 4522TIP3   OH234980   4.790   4.565  12.283 -0.6610  0.3992  0.5280
 4522TIP3    H134981   4.875   4.595  12.314 -0.3475 -1.0315  1.0931
 4522TIP3    H234982   4.736   4.562  12.362 -1.7082  2.7356 -0.0391
 4523TIP3   OH234983   4.400   6.471   1.356 -0.1194 -0.3676 -0.1854
 4523TIP3    H134984   4.434   6.555   1.325  1.0667 -1.2060 -1.1582
 4523TIP3    H234985   4.440   6.459   1.442  2.3222 -1.4925 -1.4505
 4524TIP3   OH234986   0.969   2.201  14.734  0.1949  0.2176  0.5726
 4524TIP3    H134987   1.042   2.234  14.682 -0.3132 -0.1042 -0.3586
 4524TIP3    H234988   0.976   2.248  14.817 -0.8466  3.1457 -0.9351
 4525TIP3   OH234989   2.163   5.448  15.216 -0.1092  0.1919  0.3593
 4525TIP3    H134990   2.222   5.395  15.269 -0.7842 -0.0931  0.8301
 4525TIP3    H234991   2.191   5.538  15.232 -0.3677  0.1111  1.2677
 4526TIP3   OH234992   6.671   5.212   4.298 -0.2915 -0.0291 -0.2841
 4526TIP3    H134993   6.694   5.121   4.318  0.9082  0.5933  1.3170
 4526TIP3    H234994   6.744   5.245   4.247 -0.2450  0.3153 -0.0024
 4527TIP3   OH234995   1.529   1.203  13.946 -0.0569 -0.6635  0.5978
 4527TIP3    H134996   1.444   1.164  13.928 -0.0287 -1.6761  2.5733
 4527TIP3    H234997   1.520   1.244  14.032  0.8061  1.1462 -0.1307
 4528TIP3   OH234998   1.624   6.557  13.380  0.0077 -0.0807 -0.1092
 4528TIP3    H134999   1.621   6.488  13.313  2.2264  1.3197 -1.7481
 4528TIP3    H235000   1.605   6.637  13.331  1.2402  0.9107  1.0220
 4529TIP3   OH235001   4.050   5.195   0.771 -0.4461  0.6390 -0.2554
 4529TIP3    H135002   4.082   5.184   0.682 -0.8895  0.0861 -0.3544
 4529TIP3    H235003   3.979   5.260   0.763 -2.8936 -1.9933 -0.9096
 4530TIP3   OH235004   1.485   2.410   3.453  0.1804 -0.0121  0.1152
 4530TIP3    H135005   1.441   2.487   3.415  0.0331 -0.7437 -1.2350
 4530TIP3    H235006   1.500   2.352   3.378  1.3741 -0.7790  0.9388
 4531TIP3   OH235007   3.664   1.409  16.179  0.0096  0.1555  0.3560
 4531TIP3    H135008   3.717   1.368  16.111 -0.6359 -3.0113  1.6412
 4531TIP3    H235009   3.574   1.401  16.147  0.0173  2.9363 -0.5109
 4532TIP3   OH235010   0.780   4.164  16.435  0.0060  0.6334 -0.2206
 4532TIP3    H135011   0.697   4.179  16.389  0.9895  1.4515 -1.7698
 4532TIP3    H235012   0.780   4.070  16.453 -0.5124  0.3265 -1.7200
 4533TIP3   OH235013   2.616   5.565  11.798 -0.2452  0.8119 -0.4585
 4533TIP3    H135014   2.641   5.518  11.718 -1.1571  1.5804 -1.2033
 4533TIP3    H235015   2.608   5.497  11.865 -2.3102 -0.2054 -1.6916
 4534TIP3   OH235016   1.823   1.985  14.577 -0.1018 -0.7873 -0.5477
 4534TIP3    H135017   1.757   1.925  14.612  0.5409 -1.5814 -0.6744
 4534TIP3    H235018   1.798   2.071  14.610 -0.3919 -1.2988  0.5654
 4535TIP3   OH235019   0.346   6.371   2.588  0.0850  0.3157  0.3838
 4535TIP3    H135020   0.373   6.298   2.643 -2.4424 -0.0070  1.2459
 4535TIP3    H235021   0.318   6.439   2.650  0.1107  1.1136 -0.4650
 4536TIP3   OH235022   3.368   3.522   5.053  0.0078  0.0697  0.5111
 4536TIP3    H135023   3.330   3.606   5.079 -0.3811  0.1906 -0.4131
 4536TIP3    H235024   3.411   3.490   5.132  4.3691  3.4077 -0.3083
 4537TIP3   OH235025   6.415   6.750   1.412  0.0446  0.3244 -0.1292
 4537TIP3    H135026   6.327   6.768   1.446  0.0854  1.4715 -0.6038
 4537TIP3    H235027   6.420   6.800   1.331  1.1077  0.1829 -0.1544
 4538TIP3   OH235028   1.689   3.877   4.902  0.2507  0.2622 -0.3564
 4538TIP3    H135029   1.770   3.859   4.854  1.2280  1.7570  0.7043
 4538TIP3    H235030   1.716   3.932   4.975 -1.4194 -0.8885  1.1730
 4539TIP3   OH235031   0.564   3.190   3.951 -0.2815  0.0657 -0.4953
 4539TIP3    H135032   0.538   3.236   4.031 -2.1686  1.0627 -1.6353
 4539TIP3    H235033   0.495   3.124   3.938  0.9676 -1.3087 -0.3526
 4540TIP3   OH235034   2.585   1.990   3.930  0.2130  0.0872  0.0655
 4540TIP3    H135035   2.671   2.027   3.907  1.3802 -1.4652  1.8220
 4540TIP3    H235036   2.601   1.896   3.939 -1.5963 -0.1525  0.8433
 4541TIP3   OH235037   4.828   5.722  14.926 -0.0283 -0.6037 -0.8161
 4541TIP3    H135038   4.796   5.742  14.838 -2.7121 -2.1490 -0.2421
 4541TIP3    H235039   4.819   5.805  14.974 -0.2089 -0.2165 -1.5061
 4542TIP3   OH235040   5.372   5.832  12.590  0.2258 -0.5073 -0.1796
 4542TIP3    H135041   5.393   5.747  12.551  0.1469 -0.1655 -0.9780
 4542TIP3    H235042   5.438   5.892  12.555  1.0893 -0.4890  1.4005
 4543TIP3   OH235043   5.443   4.928   2.429 -0.0170  0.4125 -0.3888
 4543TIP3    H135044   5.431   4.902   2.337  0.9634  1.9190 -0.9685
 4543TIP3    H235045   5.374   4.991   2.446 -0.9294 -0.7551  0.2855
 4544TIP3   OH235046   3.795   4.415  14.695  0.4008 -0.2520 -0.0159
 4544TIP3    H135047   3.870   4.472  14.709  0.7025 -0.7637  0.4435
 4544TIP3    H235048   3.738   4.465  14.635  0.5878  0.5875  0.4986
 4545TIP3   OH235049   1.401   3.755   0.237  0.1566 -0.1937 -0.0208
 4545TIP3    H135050   1.406   3.821   0.305  0.7335  0.1825 -0.4248
 4545TIP3    H235051   1.316   3.771   0.194  0.3445  0.3537 -0.1880
 4546TIP3   OH235052   3.808   2.836  14.623  0.0339 -0.6698  0.0907
 4546TIP3    H135053   3.867   2.905  14.591 -1.3586  0.1119 -0.8486
 4546TIP3    H235054   3.853   2.799  14.699  1.4074  0.3955 -0.1900
 4547TIP3   OH235055   2.195   0.485   5.403  0.4915  0.2726 -0.3055
 4547TIP3    H135056   2.160   0.549   5.341  1.7720  2.7311  1.4278
 4547TIP3    H235057   2.135   0.490   5.478  0.5168 -0.6739 -0.2209
 4548TIP3   OH235058   2.871   1.627  14.974  0.1080 -0.3039 -0.5683
 4548TIP3    H135059   2.806   1.684  15.014  0.7008  0.7471 -1.0753
 4548TIP3    H235060   2.878   1.552  15.033  0.0382  0.6246  0.6177
 4549TIP3   OH235061   5.471   1.019  14.276 -0.1708 -0.2389  0.1893
 4549TIP3    H135062   5.544   1.054  14.224 -0.9233 -0.4910 -1.0607
 4549TIP3    H235063   5.445   0.940  14.228 -1.7363  0.2461  0.2414
 4550TIP3   OH235064   4.184   6.570  11.093  0.5211 -0.3938 -0.3545
 4550TIP3    H135065   4.184   6.553  11.187  0.3126 -0.8619 -0.4345
 4550TIP3    H235066   4.218   6.659  11.084 -0.5172  0.0768  0.2386
 4551TIP3   OH235067   0.746   5.295   5.802  0.2436 -0.0795  0.4210
 4551TIP3    H135068   0.768   5.294   5.895  1.6965 -1.7106  0.0927
 4551TIP3    H235069   0.656   5.261   5.798  0.3963 -0.5743  1.1738
 4552TIP3   OH235070   6.558   5.610   1.294  0.4573 -0.2698 -0.0304
 4552TIP3    H135071   6.585   5.699   1.312 -0.4669 -0.1980  1.0970
 4552TIP3    H235072   6.463   5.616   1.280  0.5829 -0.8841 -1.2751
 4553TIP3   OH235073   0.728   6.340  15.195 -0.2114 -0.8749 -0.5575
 4553TIP3    H135074   0.749   6.253  15.230 -0.6086 -1.0905 -0.8537
 4553TIP3    H235075   0.654   6.370  15.247  1.5409  0.3967  1.2911
 4554TIP3   OH235076   4.752   1.872  16.632  0.3450  0.1710 -0.1240
 4554TIP3    H135077   4.695   1.819  16.687 -0.8018  2.2873  0.7771
 4554TIP3    H235078   4.696   1.904  16.561  0.7080  1.2029  0.0408
 4555TIP3   OH235079   0.430   1.604   3.940 -0.2988  0.1622 -0.3924
 4555TIP3    H135080   0.349   1.635   3.900 -0.8812 -1.1007 -0.2375
 4555TIP3    H235081   0.402   1.534   4.000  1.0563 -1.4046 -1.5427
 4556TIP3   OH235082   1.253   3.326  14.696  0.3508  0.2831 -0.4313
 4556TIP3    H135083   1.312   3.351  14.768  1.4847  1.5466 -1.7842
 4556TIP3    H235084   1.166   3.320  14.738  1.0037  0.9407  1.0586
 4557TIP3   OH235085   6.589   0.851   1.613 -0.5765 -0.1652  0.1677
 4557TIP3    H135086   6.678   0.817   1.621 -0.5826 -0.1901  0.1285
 4557TIP3    H235087   6.538   0.800   1.675 -0.4787  0.1430  0.5017
 4558TIP3   OH235088   1.189   5.666  16.684 -0.2790  0.2211  0.0983
 4558TIP3    H135089   1.102   5.653  16.648 -0.2198 -1.8099  0.5742
 4558TIP3    H235090   1.247   5.666  16.607 -0.3620 -2.0618 -0.0182
 4559TIP3   OH235091   1.839   1.987   5.433 -0.3882  0.1549 -0.1483
 4559TIP3    H135092   1.911   1.945   5.480  0.9819  0.8518 -1.5618
 4559TIP3    H235093   1.854   2.081   5.446 -1.4154  0.2884  0.0845
 4560TIP3   OH235094   3.398   0.639  13.227 -0.7482  0.4141  0.2341
 4560TIP3    H135095   3.409   0.546  13.245 -1.7583  0.3018  0.2922
 4560TIP3    H235096   3.307   0.648  13.199 -0.3636  1.2297 -0.7912
 4561TIP3   OH235097   3.384   1.478  16.429 -0.3061 -0.2112  0.5328
 4561TIP3    H135098   3.312   1.540  16.413 -1.8162 -1.9152  0.5872
 4561TIP3    H235099   3.436   1.520  16.497 -1.2059  1.0881  0.4436
 4562TIP3   OH235100   5.507   3.682   4.208  0.2247 -0.4459  0.7937
 4562TIP3    H135101   5.594   3.652   4.237  0.0268 -0.7445  1.0813
 4562TIP3    H235102   5.460   3.699   4.290  0.1204  0.0308  0.6363
 4563TIP3   OH235103   0.775   4.740  11.751  0.5771  0.0629 -0.4001
 4563TIP3    H135104   0.681   4.758  11.744  0.2326 -0.0597  2.9070
 4563TIP3    H235105   0.816   4.826  11.757  0.5749  0.0885 -0.7384
 4564TIP3   OH235106   0.401   0.680   5.943 -0.0088 -0.1915  0.1279
 4564TIP3    H135107   0.350   0.634   6.010 -1.0453  0.7067 -0.0307
 4564TIP3    H235108   0.389   0.773   5.964  0.9391  0.0455 -0.3741
 4565TIP3   OH235109   5.946   1.161   0.525 -0.1629 -0.3360 -0.2584
 4565TIP3    H135110   6.031   1.119   0.512 -0.8506 -2.2219  1.0702
 4565TIP3    H235111   5.921   1.138   0.614 -1.5143  1.2299 -0.2014
 4566TIP3   OH235112   0.688   1.101  11.381 -0.0142  0.2149 -0.4988
 4566TIP3    H135113   0.640   1.018  11.380  0.1987  0.0954 -2.5984
 4566TIP3    H235114   0.722   1.110  11.292  2.6869  0.9848  0.5617
 4567TIP3   OH235115   3.419   0.301   2.769  0.2161  0.1907  0.0205
 4567TIP3    H135116   3.494   0.357   2.789  1.1429 -1.0854  0.1886
 4567TIP3    H235117   3.417   0.238   2.841  0.6714 -1.4845 -1.3889
 4568TIP3   OH235118   6.620   2.500   3.947  0.1284 -0.0182 -0.3586
 4568TIP3    H135119   6.622   2.573   3.885 -0.1596  0.4539  0.1802
 4568TIP3    H235120   6.710   2.495   3.981 -0.0070  0.5120  0.0885
 4569TIP3   OH235121   1.551   4.520  14.278 -0.2947  0.3896 -0.1817
 4569TIP3    H135122   1.481   4.464  14.313 -0.7683  1.5338  0.7244
 4569TIP3    H235123   1.545   4.507  14.183 -1.3642  0.0258 -0.0816
 4570TIP3   OH235124   2.143   2.218  11.417 -0.1625  0.0403  0.1441
 4570TIP3    H135125   2.237   2.196  11.417 -0.5781 -1.9407 -2.5988
 4570TIP3    H235126   2.134   2.286  11.351 -0.5341  0.9107  1.0826
 4571TIP3   OH235127   6.681   5.773   3.137 -0.1823  0.0566 -0.2236
 4571TIP3    H135128   6.677   5.826   3.057  1.8267  2.3522  1.1485
 4571TIP3    H235129   6.590   5.766   3.165 -0.5533  2.2491 -0.7940
 4572TIP3   OH235130   6.138   3.938  13.430 -0.2627 -0.1376 -0.6302
 4572TIP3    H135131   6.079   3.867  13.457 -0.6586  0.1041 -0.8437
 4572TIP3    H235132   6.080   4.014  13.419 -0.0108 -0.0618 -1.4895
 4573TIP3   OH235133   0.785   3.309   1.988  0.1629 -0.6379  0.5234
 4573TIP3    H135134   0.718   3.326   2.054  1.5668  2.5368  1.2182
 4573TIP3    H235135   0.855   3.264   2.036  0.1263 -0.5466  0.6628
 4574TIP3   OH235136   3.165   3.675  15.556  0.0929  0.4880 -0.2373
 4574TIP3    H135137   3.099   3.706  15.618  0.4621  0.2382  0.2857
 4574TIP3    H235138   3.180   3.584  15.581 -1.8691 -0.5322 -2.5064
 4575TIP3   OH235139   5.612   5.343  16.394 -0.2762  0.1886 -0.7789
 4575TIP3    H135140   5.622   5.388  16.310  0.0761  0.6461 -0.4973
 4575TIP3    H235141   5.683   5.377  16.448 -0.9237  0.4288 -0.0697
 4576TIP3   OH235142   0.831   0.427  15.151 -0.4681  0.1578 -0.2569
 4576TIP3    H135143   0.737   0.409  15.150 -0.3589 -0.3899 -1.8881
 4576TIP3    H235144   0.863   0.392  15.068  0.5978  3.5068 -1.3218
 4577TIP3   OH235145   3.222   1.890   5.208  0.1817  0.4174 -0.2723
 4577TIP3    H135146   3.256   1.828   5.273  0.8293  0.0559 -0.9477
 4577TIP3    H235147   3.267   1.867   5.127 -0.5173  0.9598 -0.8202
 4578TIP3   OH235148   2.954   6.023  12.773 -0.2738  0.3967  0.2172
 4578TIP3    H135149   2.866   6.005  12.739 -0.9735  1.2270  1.5247
 4578TIP3    H235150   2.938   6.064  12.858  1.3871  0.7830  0.3536
 4579TIP3   OH235151   2.689   3.623  15.209 -0.4092 -0.3086  0.0892
 4579TIP3    H135152   2.721   3.640  15.298  0.5393  1.2712 -0.5191
 4579TIP3    H235153   2.696   3.708  15.165  0.7131 -1.4386 -1.9759
 4580TIP3   OH235154   0.807   0.218  11.280  0.2505  0.2472  0.1678
 4580TIP3    H135155   0.827   0.125  11.292  1.3375  0.4865  0.2362
 4580TIP3    H235156   0.871   0.249  11.216 -0.0075  0.9792  0.2554
 4581TIP3   OH235157   5.627   1.615   5.424  0.1955 -0.3373 -0.7683
 4581TIP3    H135158   5.569   1.636   5.496 -0.0915 -0.1384 -1.0528
 4581TIP3    H235159   5.659   1.527   5.442  0.5968 -0.0574 -0.0921
 4582TIP3   OH235160   0.317   2.935  11.433 -0.3093 -0.1523  0.2835
 4582TIP3    H135161   0.389   2.977  11.385 -0.6757  0.4880  0.3043
 4582TIP3    H235162   0.340   2.947  11.525  0.8736 -2.1829  0.3066
 4583TIP3   OH235163   4.029   1.920  13.151  0.0101 -0.0845 -0.3163
 4583TIP3    H135164   3.975   1.995  13.177  0.4147  0.4086 -0.8954
 4583TIP3    H235165   4.119   1.946  13.171  0.1886 -0.2725 -0.8511
 4584TIP3   OH235166   0.882   4.154  14.612  0.8422  0.7475  0.1315
 4584TIP3    H135167   0.920   4.165  14.525  0.8067  0.4718  0.0797
 4584TIP3    H235168   0.918   4.070  14.643  0.8664  0.8509  0.3861
 4585TIP3   OH235169   5.883   0.633  11.310 -0.7037  0.6511  0.0709
 4585TIP3    H135170   5.917   0.699  11.370  0.5346 -0.2956  0.4436
 4585TIP3    H235171   5.841   0.683  11.240  2.9761  1.9680 -1.3203
 4586TIP3   OH235172   6.504   4.995  10.357 -0.6465  0.0025 -0.3617
 4586TIP3    H135173   6.435   5.035  10.409  0.8816  1.0322  0.9206
 4586TIP3    H235174   6.510   4.906  10.390 -0.0672  0.4838  0.8505
 4587TIP3   OH235175   5.590   5.607   1.578  0.3534  0.9143  0.3774
 4587TIP3    H135176   5.559   5.624   1.489  1.2342  1.1912  0.1159
 4587TIP3    H235177   5.527   5.652   1.634 -0.7488 -0.0658 -0.0581
 4588TIP3   OH235178   6.294   0.625  12.284  0.0744  0.4331 -0.3467
 4588TIP3    H135179   6.305   0.668  12.368 -1.7281  1.3972 -0.5687
 4588TIP3    H235180   6.297   0.696  12.220  0.3648 -0.1649 -1.0102
 4589TIP3   OH235181   4.877   5.880  15.878  0.5273 -0.6073  0.2443
 4589TIP3    H135182   4.795   5.924  15.853  2.3282  2.0270 -1.2137
 4589TIP3    H235183   4.912   5.846  15.796  1.3851 -0.8697  0.7198
 4590TIP3   OH235184   1.814   6.413   1.703 -0.2027  0.3673 -0.0995
 4590TIP3    H135185   1.794   6.495   1.749 -1.6154 -0.3744  0.6608
 4590TIP3    H235186   1.848   6.355   1.770 -1.4857 -0.4505 -0.1403
 4591TIP3   OH235187   4.166   6.559   4.205 -0.1695 -0.6456  0.5369
 4591TIP3    H135188   4.203   6.518   4.283 -0.9168 -1.9119  0.2397
 4591TIP3    H235189   4.147   6.649   4.232 -0.8466 -1.2007  1.9523
 4592TIP3   OH235190   5.954   4.495   3.411  0.3174 -0.3257  0.1682
 4592TIP3    H135191   6.038   4.481   3.368  1.3489 -0.2548  2.0792
 4592TIP3    H235192   5.889   4.459   3.351  1.7306 -0.5285 -1.2571
 4593TIP3   OH235193   3.184   1.576   5.238  0.3477 -0.3250  0.0872
 4593TIP3    H135194   3.253   1.605   5.297  0.3185 -1.1748  0.5351
 4593TIP3    H235195   3.215   1.492   5.204 -0.3475 -0.5888  0.0964
 4594TIP3   OH235196   3.410   5.081  13.397  0.2660 -0.1266  0.2309
 4594TIP3    H135197   3.371   5.026  13.329 -0.9448 -0.7739  1.4172
 4594TIP3    H235198   3.349   5.155  13.405  0.2332 -0.2187  0.8323
 4595TIP3   OH235199   3.630   0.830   4.511 -0.1114 -0.2380 -0.2722
 4595TIP3    H135200   3.678   0.844   4.593  0.4086 -1.6575 -0.3192
 4595TIP3    H235201   3.554   0.888   4.518  0.0090 -0.2225  1.1467
 4596TIP3   OH235202   2.300   4.723   3.340 -0.0485 -0.0375 -0.5704
 4596TIP3    H135203   2.329   4.712   3.250  0.7384  0.4812 -0.3859
 4596TIP3    H235204   2.369   4.776   3.381 -0.8696  0.5281  0.0855
 4597TIP3   OH235205   4.759   5.120  11.198 -0.8657 -0.0776 -0.1697
 4597TIP3    H135206   4.731   5.039  11.240 -0.1814 -0.4867 -0.4985
 4597TIP3    H235207   4.801   5.092  11.117 -2.1336  0.6944 -1.1342
 4598TIP3   OH235208   2.017   1.112   4.531  0.2227 -0.2822  0.7545
 4598TIP3    H135209   1.957   1.169   4.581  0.3153  1.0177 -0.5817
 4598TIP3    H235210   2.033   1.160   4.450  0.2859 -2.2654 -0.4229
 4599TIP3   OH235211   2.444   5.678  10.959  0.8673 -0.4625  0.1093
 4599TIP3    H135212   2.540   5.686  10.960  0.7777  0.6007  0.9542
 4599TIP3    H235213   2.423   5.630  11.039  0.5748  0.8972  0.8655
 4600TIP3   OH235214   5.966   3.115  16.731 -0.0128 -0.2753  0.2031
 4600TIP3    H135215   5.975   3.130  16.825  0.7827  0.1803  0.0546
 4600TIP3    H235216   6.037   3.165  16.691 -1.2946  0.8189 -0.7531
 4601TIP3   OH235217   3.152   0.593   3.675  0.2667 -0.2858 -0.7419
 4601TIP3    H135218   3.216   0.633   3.734 -0.4387  1.6056 -1.2482
 4601TIP3    H235219   3.161   0.641   3.593 -1.0676 -0.6998 -1.1416
 4602TIP3   OH235220   3.374   1.350   0.742  0.1716  0.3692  0.3265
 4602TIP3    H135221   3.405   1.281   0.800  0.1280 -0.3357 -0.4893
 4602TIP3    H235222   3.285   1.369   0.773 -0.4277 -1.0781 -0.4745
 4603TIP3   OH235223   1.113   4.018   2.644 -0.4226 -0.4536  0.3498
 4603TIP3    H135224   1.033   4.053   2.682 -0.0958  0.0740  0.5676
 4603TIP3    H235225   1.099   3.924   2.638 -1.4212 -0.2536 -0.4859
 4604TIP3   OH235226   0.638   2.268   1.640 -0.4303 -0.4438  0.0604
 4604TIP3    H135227   0.646   2.359   1.670 -1.3320 -0.4077  0.1946
 4604TIP3    H235228   0.729   2.239   1.628 -0.1089  0.0832  1.1887
 4605TIP3   OH235229   4.640   4.748   2.146  0.3727  0.4828  0.4491
 4605TIP3    H135230   4.617   4.685   2.077  1.1585  0.5878  0.0839
 4605TIP3    H235231   4.556   4.771   2.186  0.2798 -2.9433  2.4846
 4606TIP3   OH235232   3.583   1.007   1.072 -0.0639 -0.4892 -0.2418
 4606TIP3    H135233   3.645   0.988   1.142 -0.3721 -0.3176  0.0814
 4606TIP3    H235234   3.575   0.924   1.024  2.2596  0.1478 -1.7710
 4607TIP3   OH235235   2.968   3.155  16.112 -0.0729  0.0182 -0.2240
 4607TIP3    H135236   3.020   3.234  16.094  1.4381 -0.7446  0.7470
 4607TIP3    H235237   2.922   3.139  16.030  1.3916  0.5867 -1.1918
 4608TIP3   OH235238   1.502   5.567  17.118  0.1415 -0.1116  0.2047
 4608TIP3    H135239   1.503   5.534  17.028  0.6807 -0.4406  0.3225
 4608TIP3    H235240   1.584   5.615  17.126  0.8455 -1.3934  0.9864
 4609TIP3   OH235241   2.006   3.301   6.262  0.0168  0.4167  0.8226
 4609TIP3    H135242   1.968   3.289   6.349  0.8223  0.3836  1.1764
 4609TIP3    H235243   2.072   3.369   6.275  2.1225 -1.5880  0.8424
 4610TIP3   OH235244   3.598   1.636   2.542  0.1115  0.0050  0.4619
 4610TIP3    H135245   3.601   1.580   2.619  1.2689  1.4085  1.4652
 4610TIP3    H235246   3.592   1.725   2.578 -2.3672  0.5105 -1.0876
 4611TIP3   OH235247   5.276   5.137  11.674 -0.1137  0.7184  0.1035
 4611TIP3    H135248   5.295   5.088  11.594 -0.2946 -0.3601  0.7114
 4611TIP3    H235249   5.200   5.191  11.652  0.6697  1.4628 -0.8662
 4612TIP3   OH235250   5.459   3.643  12.770 -0.0839  0.0188 -0.1339
 4612TIP3    H135251   5.504   3.563  12.797 -0.8707  0.5390  2.8568
 4612TIP3    H235252   5.518   3.714  12.793 -0.6407  0.4750 -0.0928
 4613TIP3   OH235253   5.168   3.932   1.970 -0.0780 -0.6068  0.0366
 4613TIP3    H135254   5.225   3.969   1.903 -1.2197  2.0951  0.4847
 4613TIP3    H235255   5.213   3.949   2.053  0.9837 -3.2845  0.0469
 4614TIP3   OH235256   6.105   5.731   0.294  0.0362 -0.3345  0.2047
 4614TIP3    H135257   6.129   5.647   0.334  0.5792 -0.7427 -0.9648
 4614TIP3    H235258   6.185   5.782   0.296 -0.4809  0.4401  1.5906
 4615TIP3   OH235259   4.424   3.548  16.806  0.1818  0.0321  0.7825
 4615TIP3    H135260   4.478   3.557  16.885  1.8503 -1.1988 -0.1814
 4615TIP3    H235261   4.368   3.472  16.825  0.8585 -0.5113  0.6491
 4616TIP3   OH235262   6.303   5.034  14.776 -0.2485 -0.6619  0.1309
 4616TIP3    H135263   6.342   4.963  14.724 -1.3887 -1.3003  0.1486
 4616TIP3    H235264   6.318   5.007  14.866  0.8317 -0.0429  0.1431
 4617TIP3   OH235265   3.109   6.735   4.572  0.4251  0.5618 -0.5193
 4617TIP3    H135266   3.059   6.679   4.631 -1.1782 -0.6142 -2.8913
 4617TIP3    H235267   3.147   6.674   4.508  2.1769  1.7850 -0.6857
 4618TIP3   OH235268   0.073   5.278   5.036  0.4421  0.2018 -0.0866
 4618TIP3    H135269  -0.014   5.267   4.997  0.6388 -0.6124 -0.3009
 4618TIP3    H235270   0.121   5.200   5.011  1.2412  0.6447  0.0425
 4619TIP3   OH235271   2.177   5.902  15.483  0.1471  0.0852 -0.0496
 4619TIP3    H135272   2.109   5.849  15.525  0.0348  0.9343  0.8614
 4619TIP3    H235273   2.166   5.990  15.521  3.6573 -0.4218  2.4597
 4620TIP3   OH235274   0.171   0.615  12.059  0.4063  0.3383 -0.3877
 4620TIP3    H135275   0.138   0.645  12.143  0.5721 -0.1354 -0.1539
 4620TIP3    H235276   0.216   0.533  12.078  1.3087  0.7387 -0.7745
 4621TIP3   OH235277   0.578   1.827   3.292 -0.5276 -0.0297 -0.2956
 4621TIP3    H135278   0.620   1.912   3.276  0.3638 -0.1776  1.0934
 4621TIP3    H235279   0.502   1.826   3.235 -0.1884  1.4505 -0.7919
 4622TIP3   OH235280   4.369   2.406  16.615 -0.0555 -0.1911 -0.5610
 4622TIP3    H135281   4.419   2.398  16.697 -2.0618 -0.4141  0.6669
 4622TIP3    H235282   4.374   2.499  16.593  0.6433 -0.1609 -0.3023
 4623TIP3   OH235283   5.385   4.017  13.149 -0.9037  0.4715 -0.0348
 4623TIP3    H135284   5.298   3.989  13.123 -0.5032 -0.3947 -0.4463
 4623TIP3    H235285   5.443   3.947  13.120 -0.2268  0.4015  1.4467
 4624TIP3   OH235286   5.812   4.450   0.681  0.2070  0.0213  0.3277
 4624TIP3    H135287   5.907   4.449   0.680  0.2083 -1.2986  1.1146
 4624TIP3    H235288   5.787   4.462   0.590  1.1198 -0.4248  0.0183
 4625TIP3   OH235289   6.467   1.526   4.024 -0.0708  0.2660  0.4291
 4625TIP3    H135290   6.555   1.546   3.995  0.1556  1.0350  1.6054
 4625TIP3    H235291   6.410   1.570   3.961  0.4002  1.1111  0.5833
 4626TIP3   OH235292   5.011   0.332  14.711 -0.2159 -0.1289 -0.6305
 4626TIP3    H135293   4.967   0.387  14.776  0.2040  0.3212 -0.7191
 4626TIP3    H235294   5.008   0.244  14.748 -0.6787 -0.0064 -0.3703
 4627TIP3   OH235295   0.087   5.974   4.182  0.1348  0.6853  0.1597
 4627TIP3    H135296   0.181   5.954   4.183  0.0561  0.3337  0.5205
 4627TIP3    H235297   0.064   5.970   4.089  0.5738  1.2508  0.0186
 4628TIP3   OH235298   1.972   2.147   3.308 -0.0725  0.4566  0.2821
 4628TIP3    H135299   2.019   2.224   3.275 -0.3640  0.1120 -0.9475
 4628TIP3    H235300   1.880   2.176   3.313 -0.0112  0.5437  0.9033
 4629TIP3   OH235301   2.369   0.334   5.617 -0.6071  0.0441  0.1220
 4629TIP3    H135302   2.340   0.329   5.526 -0.8988  0.5163  0.1834
 4629TIP3    H235303   2.379   0.243   5.645  0.5955 -0.0878 -0.7308
 4630TIP3   OH235304   2.154   1.806  12.262 -0.2077  0.0124 -0.7341
 4630TIP3    H135305   2.197   1.810  12.348  0.0365  0.4242 -0.8717
 4630TIP3    H235306   2.140   1.713  12.247 -0.4512 -0.0469 -0.1484
 4631TIP3   OH235307   2.670   1.974   0.967 -0.2372 -0.2773  0.2438
 4631TIP3    H135308   2.719   1.893   0.948  0.6747  0.2474  0.3362
 4631TIP3    H235309   2.596   1.945   1.019  1.0382 -0.8519  1.7928
 4632TIP3   OH235310   6.500   2.242   2.367 -0.8042 -0.2451 -0.2079
 4632TIP3    H135311   6.498   2.152   2.398 -0.7822 -0.1647  0.0273
 4632TIP3    H235312   6.466   2.294   2.439  0.1164  0.0366  0.0365
 4633TIP3   OH235313   4.302   4.000  11.972 -0.2879 -0.3085 -0.2734
 4633TIP3    H135314   4.340   4.044  11.896  1.1622 -1.0356 -0.0012
 4633TIP3    H235315   4.374   3.946  12.007 -0.8297  0.2587  1.7990
 4634TIP3   OH235316   2.618   2.736   4.861 -0.1787  0.0301 -0.5721
 4634TIP3    H135317   2.529   2.765   4.881 -0.7632 -0.8277 -1.8519
 4634TIP3    H235318   2.653   2.705   4.944 -1.1241  0.2652 -0.0866
 4635TIP3   OH235319   3.037   6.264   4.689 -0.3047 -0.2640  0.8682
 4635TIP3    H135320   3.088   6.232   4.615  0.7311 -0.1116  1.5152
 4635TIP3    H235321   3.038   6.192   4.752 -1.9594 -0.7537  0.3773
 4636TIP3   OH235322   2.851   0.387   3.042 -0.4897  0.3293  0.5788
 4636TIP3    H135323   2.773   0.425   3.003 -1.1933 -0.3215  1.3447
 4636TIP3    H235324   2.835   0.293   3.045  0.6525  0.1063  0.0126
 4637TIP3   OH235325   4.286   2.026  13.768  0.1962 -0.4856 -0.1608
 4637TIP3    H135326   4.284   2.078  13.687  1.0030 -1.6112 -0.9000
 4637TIP3    H235327   4.196   2.033  13.802 -0.2390 -0.2820 -1.3227
 4638TIP3   OH235328   6.114   4.965  16.682 -0.3480  0.3989  0.4253
 4638TIP3    H135329   6.024   4.989  16.664 -1.3774 -3.2792  0.3478
 4638TIP3    H235330   6.108   4.894  16.745  2.5413  0.5883  0.9840
 4639TIP3   OH235331   2.219   1.626   3.517 -0.2292  0.0113  0.1325
 4639TIP3    H135332   2.147   1.564   3.511 -0.9876  0.9733 -0.9852
 4639TIP3    H235333   2.298   1.572   3.520 -0.7351 -0.9805 -3.0993
 4640TIP3   OH235334   3.264   5.213  16.971 -0.2526 -0.2967  0.2385
 4640TIP3    H135335   3.257   5.304  16.999  0.0480  0.2833 -1.5200
 4640TIP3    H235336   3.214   5.164  17.036 -1.0866  1.2187  0.7556
 4641TIP3   OH235337   2.110   0.622   1.271  0.0255 -0.2152  0.2913
 4641TIP3    H135338   2.105   0.598   1.179  1.1927 -1.2414  0.4683
 4641TIP3    H235339   2.056   0.700   1.279  1.3819  0.9873 -1.6361
 4642TIP3   OH235340   6.689   1.542  12.580 -0.2078  0.0422 -0.0839
 4642TIP3    H135341   6.755   1.605  12.610  0.0362 -0.1827 -0.1491
 4642TIP3    H235342   6.626   1.537  12.652  0.5886 -0.8017  0.5680
 4643TIP3   OH235343   3.357   3.701   1.625  0.6809  0.0452 -0.1734
 4643TIP3    H135344   3.343   3.623   1.678 -3.0271 -1.1369 -2.6655
 4643TIP3    H235345   3.321   3.773   1.677 -0.5570 -0.7028 -0.0002
 4644TIP3   OH235346   3.089   6.073  11.512 -0.1353 -0.4675  0.2750
 4644TIP3    H135347   3.181   6.048  11.514 -0.5114 -1.8694  0.1889
 4644TIP3    H235348   3.044   6.004  11.560 -1.1996 -0.0079 -0.0451
 4645TIP3   OH235349   1.111   2.372  15.399  0.3853  0.2130 -0.0271
 4645TIP3    H135350   1.172   2.419  15.342  3.2780 -0.0920  2.6918
 4645TIP3    H235351   1.089   2.434  15.468 -1.7940  0.0397 -0.5443
 4646TIP3   OH235352   1.155   1.559   0.175 -0.1268 -0.0780 -0.2469
 4646TIP3    H135353   1.228   1.616   0.199 -1.5062  1.9810 -0.7968
 4646TIP3    H235354   1.191   1.498   0.112  1.5887 -0.3694  0.9807
 4647TIP3   OH235355   5.046   0.962   3.458  0.0177 -0.0297  0.1274
 4647TIP3    H135356   5.127   0.913   3.468 -0.2114 -0.1514  1.4373
 4647TIP3    H235357   5.030   1.000   3.544 -1.1112  0.3060 -0.2221
 4648TIP3   OH235358   2.966   6.400  13.838 -1.0094  0.1745 -0.7805
 4648TIP3    H135359   2.915   6.331  13.882  0.1785 -0.2094  0.0196
 4648TIP3    H235360   2.917   6.480  13.856 -1.7656 -0.2970 -0.6949
 4649TIP3   OH235361   5.719   5.333  12.900  0.0892 -0.1285  0.1430
 4649TIP3    H135362   5.769   5.378  12.833 -0.6722 -1.0072 -1.0298
 4649TIP3    H235363   5.737   5.240  12.886  0.0222 -0.3199  1.2400
 4650TIP3   OH235364   2.145   4.149   2.053 -0.5470  0.4334  0.2497
 4650TIP3    H135365   2.216   4.121   1.995 -0.8006 -0.6111  0.4197
 4650TIP3    H235366   2.186   4.206   2.117 -0.0517  0.6708 -0.2793
 4651TIP3   OH235367   0.888   3.253  17.147 -0.1200 -0.0613  0.0414
 4651TIP3    H135368   0.873   3.213  17.233  0.6605  1.1424  0.7531
 4651TIP3    H235369   0.965   3.308  17.160 -1.2300  1.7327 -0.9005
 4652TIP3   OH235370   5.023   6.065  12.492  0.0382  0.8732  0.3091
 4652TIP3    H135371   5.031   6.104  12.404 -2.0208 -0.5850 -0.5476
 4652TIP3    H235372   4.972   6.128  12.542 -1.5536  0.2357 -0.4904
 4653TIP3   OH235373   5.691   3.526  11.588 -0.0690  0.2935 -0.4770
 4653TIP3    H135374   5.718   3.495  11.501 -0.0460 -0.1440 -0.3160
 4653TIP3    H235375   5.675   3.446  11.638  0.5433  0.5398  0.1216
 4654TIP3   OH235376   0.594   3.839   5.457 -0.7401  0.2167  0.3306
 4654TIP3    H135377   0.652   3.788   5.513 -0.4597 -0.8294 -0.9016
 4654TIP3    H235378   0.647   3.859   5.379 -1.9468 -0.5354 -0.6934
 4655TIP3   OH235379   6.163   1.749  14.576  0.4309 -0.3035 -0.4710
 4655TIP3    H135380   6.121   1.829  14.607 -0.2156 -0.4456 -0.9599
 4655TIP3    H235381   6.229   1.780  14.513  2.2308  0.0261  1.5434
 4656TIP3   OH235382   0.469   4.268  14.010 -0.2435 -0.0360 -0.1037
 4656TIP3    H135383   0.417   4.216  14.071 -1.5822  1.0967 -0.2517
 4656TIP3    H235384   0.560   4.240  14.025 -0.7152 -0.8341  1.3374
 4657TIP3   OH235385   1.939   3.647   0.990  0.2387  0.2550 -0.2957
 4657TIP3    H135386   1.890   3.642   1.072  1.9690  0.0481  0.7520
 4657TIP3    H235387   2.022   3.603   1.009  0.2122 -0.8176 -2.5095
 4658TIP3   OH235388   4.769   3.564   3.068 -0.0065 -0.0155  0.3746
 4658TIP3    H135389   4.823   3.642   3.059  0.5730 -0.3674  0.7165
 4658TIP3    H235390   4.833   3.492   3.069 -0.4438 -0.3972  1.3262
 4659TIP3   OH235391   1.436   6.417   0.636 -0.6009 -0.3590  0.1633
 4659TIP3    H135392   1.520   6.461   0.643  0.4977 -2.5367  1.2014
 4659TIP3    H235393   1.450   6.349   0.571 -1.0635 -1.7629  1.4880
 4660TIP3   OH235394   5.360   3.429   5.355  0.0146  0.6270  0.8817
 4660TIP3    H135395   5.415   3.451   5.431  1.0656  1.1877 -0.0357
 4660TIP3    H235396   5.273   3.416   5.392  0.3927  1.4943  2.1147
 4661TIP3   OH235397   1.572   2.753   5.873  0.1935 -0.4443 -0.0360
 4661TIP3    H135398   1.667   2.742   5.882  0.2322 -1.4584 -1.4414
 4661TIP3    H235399   1.561   2.805   5.794 -0.4619 -2.0821 -1.0602
 4662TIP3   OH235400   2.908   6.614   3.075  0.3783  0.5251  0.5250
 4662TIP3    H135401   2.954   6.531   3.057  1.0562  1.0091  0.0113
 4662TIP3    H235402   2.897   6.654   2.989 -0.8995  0.4889  0.6531
 4663TIP3   OH235403   2.779   2.290   0.167 -0.0169  0.0694 -0.4403
 4663TIP3    H135404   2.748   2.248   0.247  0.0294  0.1091 -0.4020
 4663TIP3    H235405   2.734   2.374   0.165  1.7006  1.0267  0.6944
 4664TIP3   OH235406   5.874   3.713   1.753  0.5887  0.4210  0.4780
 4664TIP3    H135407   5.920   3.747   1.676 -0.6505  2.5047  0.6230
 4664TIP3    H235408   5.896   3.773   1.823 -0.6749  0.2563  1.0357
 4665TIP3   OH235409   1.921   0.260  12.474  0.3518 -0.3564 -0.1915
 4665TIP3    H135410   1.892   0.207  12.399  0.5144 -2.4355  1.1720
 4665TIP3    H235411   1.855   0.244  12.542  1.0147  0.3312  0.6223
 4666TIP3   OH235412   6.112   1.267  14.350  0.2664  0.1216 -0.7762
 4666TIP3    H135413   6.064   1.350  14.356  0.5861  0.4381 -2.1914
 4666TIP3    H235414   6.204   1.293  14.359  0.3010 -0.2298 -0.0915
 4667TIP3   OH235415   3.985   0.530  15.776  0.4412  0.3362 -0.2077
 4667TIP3    H135416   3.935   0.550  15.697 -1.4136  0.1885  0.9180
 4667TIP3    H235417   4.014   0.440  15.764 -0.7832 -0.0622 -0.2359
 4668TIP3   OH235418   0.654   2.652   3.880 -0.5178 -0.4747  0.4671
 4668TIP3    H135419   0.680   2.737   3.844  0.9723 -1.1798 -0.1688
 4668TIP3    H235420   0.633   2.671   3.971 -0.8858  0.7004  0.1534
 4669TIP3   OH235421   5.710   4.757  11.095 -0.8399 -0.1173 -0.2351
 4669TIP3    H135422   5.768   4.812  11.042 -1.0660 -0.9071 -1.3088
 4669TIP3    H235423   5.622   4.777  11.062 -1.1935  1.0240  1.3320
 4670TIP3   OH235424   1.203   1.330  14.124  0.1060  0.0624  0.3359
 4670TIP3    H135425   1.252   1.251  14.101 -0.6367 -0.8082  1.6811
 4670TIP3    H235426   1.258   1.402  14.092 -0.0053 -1.0091 -2.4018
 4671TIP3   OH235427   6.101   6.432   1.570 -0.2733 -0.3712  0.1568
 4671TIP3    H135428   6.029   6.495   1.579 -0.2951 -0.4599  0.6140
 4671TIP3    H235429   6.064   6.361   1.518  0.1205  0.5597 -1.4399
 4672TIP3   OH235430   6.567   3.810   0.378 -0.2633 -0.7471 -0.3066
 4672TIP3    H135431   6.651   3.809   0.332  0.6322  0.6895  1.2250
 4672TIP3    H235432   6.511   3.869   0.326  0.6910  0.7519  0.3186
 4673TIP3   OH235433   1.838   6.335  12.940 -0.1431  0.0489 -0.0722
 4673TIP3    H135434   1.784   6.269  12.896 -2.3862 -0.1045  2.7653
 4673TIP3    H235435   1.787   6.416  12.932 -0.7160 -0.0368  2.4023
 4674TIP3   OH235436   0.520   4.466   0.348 -0.0264  0.5881 -0.1660
 4674TIP3    H135437   0.597   4.492   0.399  0.6470 -0.5669 -0.5602
 4674TIP3    H235438   0.515   4.371   0.359  1.6560 -0.0962 -4.2205
 4675TIP3   OH235439   5.628   3.145   5.887 -0.4450  0.4145  0.1260
 4675TIP3    H135440   5.711   3.170   5.847 -0.2176  1.6929  1.3827
 4675TIP3    H235441   5.577   3.226   5.891 -1.2000 -0.0775  0.6807
 4676TIP3   OH235442   1.787   6.592  10.361 -0.2919 -0.1422 -0.2893
 4676TIP3    H135443   1.757   6.676  10.327 -1.7939 -1.1975 -1.6163
 4676TIP3    H235444   1.757   6.527  10.297  1.6037 -1.6187  0.2533
 4677TIP3   OH235445   3.865   2.113   5.451  0.3970  0.4588 -0.2828
 4677TIP3    H135446   3.931   2.171   5.489 -0.2675  0.7097  0.5204
 4677TIP3    H235447   3.791   2.119   5.512  0.5994 -1.8186  0.2277
 4678TIP3   OH235448   4.461   5.610  14.148  0.1068 -0.2600 -0.3830
 4678TIP3    H135449   4.450   5.664  14.226  1.2849  0.7596 -0.9216
 4678TIP3    H235450   4.388   5.635  14.091 -0.7567 -1.0051  0.3639
 4679TIP3   OH235451   5.219   1.702   0.278 -0.3846  0.5029  0.4683
 4679TIP3    H135452   5.199   1.760   0.205  0.9205  1.2177  0.6556
 4679TIP3    H235453   5.154   1.633   0.273  0.4150 -0.0865 -2.0703
 4680TIP3   OH235454   4.469   4.171  16.453  0.3594 -0.1198  0.5859
 4680TIP3    H135455   4.504   4.108  16.517 -3.1685 -0.3469  2.3947
 4680TIP3    H235456   4.492   4.256  16.490  2.7297 -0.2741 -0.4590
 4681TIP3   OH235457   3.816   5.279  14.626 -0.1520 -0.1769  0.7484
 4681TIP3    H135458   3.904   5.242  14.625 -0.9480 -2.1189 -0.9185
 4681TIP3    H235459   3.760   5.209  14.592 -2.0109  1.8243 -0.4456
 4682TIP3   OH235460   4.752   3.744   2.783 -0.2582 -0.5135  0.1716
 4682TIP3    H135461   4.806   3.735   2.705 -0.6346  0.2305 -0.1883
 4682TIP3    H235462   4.706   3.661   2.791  2.7412 -2.0771  1.8756
 4683TIP3   OH235463   2.673   2.307  13.147  0.1272  0.4957 -0.1704
 4683TIP3    H135464   2.665   2.279  13.239 -1.3846 -0.2486 -0.5155
 4683TIP3    H235465   2.767   2.314  13.133  0.5076 -2.1724  0.6421
 4684TIP3   OH235466   1.493   0.181   1.793 -0.5538 -0.1577  0.0319
 4684TIP3    H135467   1.480   0.109   1.854  0.9166 -1.1547 -0.8106
 4684TIP3    H235468   1.558   0.238   1.835  1.6537 -1.6550 -1.2349
 4685TIP3   OH235469   6.367   2.076   5.127 -0.4120  0.4323  0.3571
 4685TIP3    H135470   6.459   2.065   5.151  0.3953  2.3203 -1.7087
 4685TIP3    H235471   6.330   1.987   5.132  1.4620 -0.3231  1.3154
 4686TIP3   OH235472   4.250   4.242   1.951  0.2014 -0.2094  0.3757
 4686TIP3    H135473   4.252   4.157   1.995 -1.9229 -1.1373 -1.2434
 4686TIP3    H235474   4.171   4.285   1.983  0.9837  0.9568  0.7867
 4687TIP3   OH235475   2.731   5.170   3.164 -0.0352  0.2278  0.8007
 4687TIP3    H135476   2.731   5.264   3.146  0.1192  0.2263  0.7904
 4687TIP3    H235477   2.638   5.148   3.177 -0.1647  0.1981 -0.1421
 4688TIP3   OH235478   6.607   4.921  11.592  0.0232  0.1649 -0.2004
 4688TIP3    H135479   6.695   4.895  11.563  0.4242 -0.0666  1.1819
 4688TIP3    H235480   6.582   4.991  11.532  1.2558  0.3918 -0.4658
 4689TIP3   OH235481   5.480   2.838  10.770  0.1925  0.1011  0.0972
 4689TIP3    H135482   5.573   2.841  10.790 -0.2178  2.1801  1.8678
 4689TIP3    H235483   5.452   2.751  10.798  1.8101 -1.0217 -1.6366
 4690TIP3   OH235484   6.143   0.446   4.051  0.0631  0.0742  0.4156
 4690TIP3    H135485   6.237   0.465   4.045  0.3311 -1.5338 -1.2402
 4690TIP3    H235486   6.138   0.370   4.108 -0.1597 -0.2446 -0.0248
 4691TIP3   OH235487   3.760   0.747  14.837  0.1182  0.7129 -0.5115
 4691TIP3    H135488   3.845   0.786  14.858 -0.7875  1.7144  1.4203
 4691TIP3    H235489   3.722   0.806  14.772  0.1924  1.2008 -0.1168
 4692TIP3   OH235490   4.072   5.925   5.341  0.6486 -0.6547  0.4332
 4692TIP3    H135491   4.074   5.974   5.423  0.0219  0.2015 -0.0509
 4692TIP3    H235492   4.102   5.987   5.275  0.0790 -0.9914 -0.1523
 4693TIP3   OH235493   2.922   5.838   5.991 -0.4861 -0.6359 -0.0440
 4693TIP3    H135494   2.990   5.834   5.924  0.4940  0.8990  0.8259
 4693TIP3    H235495   2.842   5.860   5.943 -0.1307 -1.1622 -0.8988
 4694TIP3   OH235496   1.231   4.308  12.498  0.1228  0.0947 -0.3258
 4694TIP3    H135497   1.281   4.387  12.519  0.1047  0.1301 -0.4186
 4694TIP3    H235498   1.295   4.247  12.463 -0.1912  0.7519 -2.0824
 4695TIP3   OH235499   3.491   1.706  16.123  0.5229  0.3829  0.2311
 4695TIP3    H135500   3.448   1.621  16.132  0.6994  0.3064  0.3422
 4695TIP3    H235501   3.523   1.726  16.210 -1.3195  1.5127  0.6763
 4696TIP3   OH235502   5.769   0.431  13.410 -0.6446  0.3566 -0.5516
 4696TIP3    H135503   5.771   0.455  13.502 -1.6291 -0.4796 -0.3024
 4696TIP3    H235504   5.856   0.392  13.394 -0.4276  0.6185 -0.0135
 4697TIP3   OH235505   2.078   3.970   5.081  0.1922 -0.0687  0.2450
 4697TIP3    H135506   2.038   4.001   5.163 -1.1470  1.3737 -0.9229
 4697TIP3    H235507   2.148   4.032   5.063 -1.0016  0.9801 -0.8859
 4698TIP3   OH235508   5.742   1.512  13.451 -0.1022  0.3302  0.8549
 4698TIP3    H135509   5.662   1.517  13.399 -1.0020 -2.2207  1.9201
 4698TIP3    H235510   5.799   1.579  13.413 -1.6186  0.1640 -1.8380
 4699TIP3   OH235511   0.561   1.389  15.881 -0.3552  0.0398 -0.0791
 4699TIP3    H135512   0.505   1.466  15.873 -0.5383  0.4532  4.1074
 4699TIP3    H235513   0.639   1.421  15.928  0.5592 -1.8486 -0.2653
 4700TIP3   OH235514   2.870   1.085  14.189  0.6377 -0.4893  0.3189
 4700TIP3    H135515   2.892   1.167  14.235  0.2943 -0.6756  0.8263
 4700TIP3    H235516   2.907   1.096  14.102  0.3271  0.3397  0.2853
 4701TIP3   OH235517   4.621   5.416   3.366  0.0502 -0.2696 -0.4211
 4701TIP3    H135518   4.548   5.456   3.318 -0.5788  0.3694  1.0159
 4701TIP3    H235519   4.672   5.370   3.300  0.4269  2.4089 -2.0404
 4702TIP3   OH235520   0.831   3.561  12.857 -0.2981  0.3879  1.3805
 4702TIP3    H135521   0.851   3.504  12.783  0.3195 -1.1522  2.7092
 4702TIP3    H235522   0.911   3.613  12.869  0.4705 -1.0041  2.4155
 4703TIP3   OH235523   0.401   5.852   2.678  0.2977 -0.2293  0.5461
 4703TIP3    H135524   0.340   5.843   2.605 -1.4812 -2.5147  2.1976
 4703TIP3    H235525   0.479   5.805   2.650  0.1666  0.1629 -0.4648
 4704TIP3   OH235526   2.956   2.628  12.252 -0.1662  0.6551 -0.2718
 4704TIP3    H135527   2.863   2.647  12.257 -1.1696 -3.0310 -2.4684
 4704TIP3    H235528   2.970   2.556  12.314  0.7972 -0.0843 -1.3080
 4705TIP3   OH235529   5.588   2.711  13.682  0.0088  0.1798 -0.9959
 4705TIP3    H135530   5.650   2.639  13.691 -0.2075  0.3871  3.1450
 4705TIP3    H235531   5.505   2.669  13.658  0.5291 -0.6416 -1.3581
 4706TIP3   OH235532   2.837   0.683  15.758 -0.2616  0.0022 -0.2770
 4706TIP3    H135533   2.744   0.707  15.766 -0.3344 -0.5760  0.6361
 4706TIP3    H235534   2.839   0.589  15.777  0.2461 -0.3965 -2.2223
 4707TIP3   OH235535   0.313   1.161   5.440 -0.0026 -0.0487 -0.0143
 4707TIP3    H135536   0.265   1.134   5.518  2.5990 -0.0664  1.6549
 4707TIP3    H235537   0.284   1.101   5.371 -2.6187  0.2168  0.8314
 4708TIP3   OH235538   1.702   0.110  14.439  0.6913 -0.3428 -0.0207
 4708TIP3    H135539   1.733   0.168  14.509  1.3258 -0.7354  0.0250
 4708TIP3    H235540   1.645   0.165  14.386  2.0551  0.6012 -0.5433
 4709TIP3   OH235541   0.601   1.231   0.639 -0.2621 -0.3000 -0.1977
 4709TIP3    H135542   0.573   1.140   0.626  0.7808 -0.4027 -1.8604
 4709TIP3    H235543   0.689   1.225   0.676 -0.7331  0.0435  1.0046
 4710TIP3   OH235544   0.861   3.782   5.876 -0.0849 -0.5722  0.0070
 4710TIP3    H135545   0.846   3.872   5.905 -0.1777  0.1296 -2.0717
 4710TIP3    H235546   0.888   3.735   5.954  1.9032  1.7259  0.7574
 4711TIP3   OH235547   5.438   3.003   6.174 -0.7198  0.1665 -0.6529
 4711TIP3    H135548   5.358   2.964   6.209  0.0947 -0.3090  0.7099
 4711TIP3    H235549   5.483   2.931   6.129  1.1976 -0.7342  2.5884
 4712TIP3   OH235550   5.824   6.097  13.479 -0.3075  0.1573 -0.0549
 4712TIP3    H135551   5.841   6.020  13.533  0.1035 -0.3100 -0.8418
 4712TIP3    H235552   5.839   6.067  13.389 -1.1522  0.8774 -0.4474
 4713TIP3   OH235553   5.155   2.997  14.481 -0.1618  0.3830 -0.1310
 4713TIP3    H135554   5.104   3.012  14.402 -2.1172 -1.4616  0.7429
 4713TIP3    H235555   5.113   2.923  14.524  3.7601 -1.7867  0.2200
 4714TIP3   OH235556   2.480   6.525  16.249 -0.8420 -0.0647  0.0484
 4714TIP3    H135557   2.566   6.567  16.254 -0.9020  0.1980 -1.0276
 4714TIP3    H235558   2.498   6.433  16.269 -0.8753  0.6353  3.4446
 4715TIP3   OH235559   3.116   4.882   2.211  0.1067  0.4238  0.5806
 4715TIP3    H135560   3.170   4.803   2.216  0.3317  0.6027  0.9733
 4715TIP3    H235561   3.148   4.938   2.282  0.6485  1.3158 -0.3526
 4716TIP3   OH235562   3.416   1.628   0.072  0.1664 -0.2809  0.4104
 4716TIP3    H135563   3.339   1.621   0.016 -0.1313 -0.0072  0.7787
 4716TIP3    H235564   3.423   1.722   0.091  0.8055 -0.2559  0.0850
 4717TIP3   OH235565   6.388   3.544  14.393 -0.3805  0.3766  0.3167
 4717TIP3    H135566   6.356   3.463  14.352 -1.7930  1.4745 -0.7781
 4717TIP3    H235567   6.433   3.590  14.322 -0.3451  0.9693  0.7270
 4718TIP3   OH235568   4.354   0.792   5.366  0.2191 -0.3329  0.1914
 4718TIP3    H135569   4.436   0.841   5.371  0.5226 -0.9604  1.5546
 4718TIP3    H235570   4.358   0.746   5.282  0.6983  0.6139 -0.3139
 4719TIP3   OH235571   0.051   4.821   4.568 -0.6012  0.6233  0.1495
 4719TIP3    H135572   0.029   4.901   4.617  0.6448  0.7349  0.5613
 4719TIP3    H235573   0.022   4.838   4.479 -0.6369  1.4118  0.3097
 4720TIP3   OH235574   4.245   4.346   4.282  0.2694 -0.1516  0.0032
 4720TIP3    H135575   4.336   4.325   4.259 -0.1519 -0.0390 -1.7795
 4720TIP3    H235576   4.251   4.379   4.372  1.9947 -0.1673 -0.0858
 4721TIP3   OH235577   0.414   3.090   1.944  0.2527 -0.8199  0.2513
 4721TIP3    H135578   0.403   3.138   2.026 -0.9695 -0.2056 -0.2610
 4721TIP3    H235579   0.508   3.094   1.926  0.5542 -1.0642  1.6782
 4722TIP3   OH235580   1.195   3.407   5.201  0.0026  0.1373  0.0920
 4722TIP3    H135581   1.266   3.352   5.235  0.2603 -1.3763 -2.8126
 4722TIP3    H235582   1.116   3.369   5.239  0.3369 -1.1557 -0.4675
 4723TIP3   OH235583   4.952   2.970  11.858  0.4724 -0.4202  0.0968
 4723TIP3    H135584   4.979   2.878  11.857  2.1325 -0.0122  2.2062
 4723TIP3    H235585   4.881   2.975  11.795  0.7558 -3.0309 -0.4955
 4724TIP3   OH235586   0.582   5.546   3.681  0.0781  0.2506 -0.0950
 4724TIP3    H135587   0.611   5.604   3.611  0.4477 -1.6200 -1.5171
 4724TIP3    H235588   0.531   5.603   3.739  2.1648  2.4371 -0.3285
 4725TIP3   OH235589   0.814   3.375   1.416 -0.2081  0.8521  0.1822
 4725TIP3    H135590   0.891   3.346   1.465 -2.9446  0.5062  4.5910
 4725TIP3    H235591   0.781   3.296   1.373  0.1071  0.3230  0.9016
 4726TIP3   OH235592   1.623   6.180  17.228 -0.2238  0.1968  0.0259
 4726TIP3    H135593   1.535   6.142  17.234  0.3762 -1.0214  1.4667
 4726TIP3    H235594   1.611   6.271  17.254 -1.3404  0.4967 -1.4723
 4727TIP3   OH235595   3.290   6.092  14.909  0.1120 -0.2958 -0.0684
 4727TIP3    H135596   3.289   6.129  14.821  1.8650 -1.3477 -0.5531
 4727TIP3    H235597   3.241   6.154  14.962 -3.1308 -0.8781 -2.2649
 4728TIP3   OH235598   4.500   2.649   4.267 -0.2226 -0.0196 -0.2440
 4728TIP3    H135599   4.538   2.737   4.268  0.4059 -0.2484 -2.1383
 4728TIP3    H235600   4.405   2.665   4.268 -0.1240  0.7112 -1.4327
 4729TIP3   OH235601   2.215   3.717  15.893 -0.7244 -0.7617  0.2795
 4729TIP3    H135602   2.154   3.701  15.965  0.1575 -1.3492  0.9128
 4729TIP3    H235603   2.167   3.690  15.815 -1.8030  0.1662  0.6047
 4730TIP3   OH235604   2.956   4.509  13.311 -0.4287  0.0336  0.3855
 4730TIP3    H135605   2.956   4.604  13.303 -0.5569  0.1025  1.1369
 4730TIP3    H235606   2.881   4.490  13.367  1.0103 -0.3168  2.2433
 4731TIP3   OH235607   0.587   3.464   5.247  0.0560 -0.2111 -0.1346
 4731TIP3    H135608   0.546   3.395   5.194 -1.3312  0.9081 -0.5523
 4731TIP3    H235609   0.622   3.418   5.323 -1.7842 -1.2301  0.1222
 4732TIP3   OH235610   0.860   4.220   4.729  0.2019 -0.4275 -0.1964
 4732TIP3    H135611   0.792   4.158   4.703  1.0549 -1.7563  0.6740
 4732TIP3    H235612   0.905   4.177   4.801  2.4876  0.0604 -1.2940
 4733TIP3   OH235613   0.742   0.297   1.211 -0.4226  0.3163  0.0851
 4733TIP3    H135614   0.703   0.254   1.135  2.4958 -1.2499 -0.5740
 4733TIP3    H235615   0.696   0.260   1.286 -0.2848 -1.4236 -0.6818
 4734TIP3   OH235616   2.320   2.586  13.061 -0.2445  0.1306 -0.2193
 4734TIP3    H135617   2.294   2.677  13.053  0.2909  0.3340  0.2715
 4734TIP3    H235618   2.402   2.589  13.112 -0.7722 -0.6930  0.6958
 4735TIP3   OH235619   5.075   6.025  10.698  0.5324 -0.2514 -0.6646
 4735TIP3    H135620   5.136   5.951  10.690 -0.0145 -0.8630  0.6545
 4735TIP3    H235621   5.126   6.092  10.745  0.4833 -0.4280 -0.3585
 4736TIP3   OH235622   6.195   0.016   4.454 -0.6541  0.0704 -0.0463
 4736TIP3    H135623   6.188  -0.072   4.491 -0.3076  0.2949  0.5600
 4736TIP3    H235624   6.137   0.014   4.377 -0.2237 -0.8542 -0.3631
 4737TIP3   OH235625   4.347   6.230  16.002  0.1192 -0.6670  0.3864
 4737TIP3    H135626   4.314   6.313  16.036 -2.2126 -0.4290 -2.2481
 4737TIP3    H235627   4.314   6.165  16.064 -0.6355  0.0995  0.8116
 4738TIP3   OH235628   2.925   1.582   5.522  0.6417 -0.7208  0.5159
 4738TIP3    H135629   2.982   1.515   5.483 -0.3396 -1.4409  0.2994
 4738TIP3    H235630   2.986   1.644   5.562  1.6149 -0.9655 -0.5460
 4739TIP3   OH235631   6.566   4.267  17.060  1.2880 -0.4892  0.2814
 4739TIP3    H135632   6.559   4.177  17.028  1.0112 -1.0745  1.9167
 4739TIP3    H235633   6.491   4.312  17.021  0.4186 -1.4233  0.8366
 4740TIP3   OH235634   3.125   2.672  13.652 -0.4635 -0.7480  0.7677
 4740TIP3    H135635   3.148   2.590  13.696  2.4356  0.0201  0.7706
 4740TIP3    H235636   3.208   2.707  13.622 -1.8187  1.5736 -0.3862
 4741TIP3   OH235637   5.863   0.087   5.277  0.8154 -0.1738  0.2649
 4741TIP3    H135638   5.868   0.167   5.225  0.4528 -0.4208 -0.1492
 4741TIP3    H235639   5.942   0.089   5.332  0.9661  0.3072  0.0303
 4742TIP3   OH235640   3.315   2.185   3.112 -0.1049 -0.0201 -0.0712
 4742TIP3    H135641   3.343   2.141   3.192  0.8274 -0.8319 -0.8294
 4742TIP3    H235642   3.278   2.115   3.058  0.0780  0.3640 -0.7034
 4743TIP3   OH235643   6.236   2.441   1.601  0.3162  0.3885  0.4778
 4743TIP3    H135644   6.164   2.440   1.538  0.9377  0.4314 -0.2435
 4743TIP3    H235645   6.194   2.423   1.685 -0.5777  0.7215  0.1127
 4744TIP3   OH235646   4.825   6.228   4.128 -0.1394  0.0587  0.6007
 4744TIP3    H135647   4.841   6.293   4.059  0.3834  0.3802  1.0180
 4744TIP3    H235648   4.731   6.232   4.144 -0.1125  0.7039  0.6124
 4745TIP3   OH235649   2.414   3.375   1.120 -0.0062 -0.4120 -0.3258
 4745TIP3    H135650   2.441   3.332   1.201  0.3460  0.3030 -0.0611
 4745TIP3    H235651   2.434   3.468   1.134 -1.3228 -0.0677 -0.6580
 4746TIP3   OH235652   2.420   0.681  12.246  0.6543  0.0329  0.4327
 4746TIP3    H135653   2.421   0.593  12.283  0.1814 -0.2049 -0.1117
 4746TIP3    H235654   2.335   0.717  12.272  0.9847  0.4583  0.9447
 4747TIP3   OH235655   3.551   5.599  14.609 -0.1685  0.2665 -0.1387
 4747TIP3    H135656   3.502   5.681  14.614 -0.6031  0.0003  0.0020
 4747TIP3    H235657   3.518   5.547  14.682 -0.4815 -0.3464 -0.7152
 4748TIP3   OH235658   5.102   0.206   3.469  0.1326  0.0487 -0.3875
 4748TIP3    H135659   5.024   0.158   3.498 -0.9848  1.3989 -1.1470
 4748TIP3    H235660   5.081   0.298   3.483  1.1631  0.4891 -1.6156
 4749TIP3   OH235661   1.585   6.765   0.886  0.6372 -0.0918 -0.7326
 4749TIP3    H135662   1.537   6.777   0.803 -1.6293 -0.6700  0.4609
 4749TIP3    H235663   1.517   6.765   0.953  2.5116  0.9701  1.2168
 4750TIP3   OH235664   0.809   1.238   3.099  0.3056  0.2191 -0.1047
 4750TIP3    H135665   0.721   1.205   3.080 -1.0315  1.2620  3.8594
 4750TIP3    H235666   0.845   1.174   3.160  0.7486  1.9076  1.4127
 4751TIP3   OH235667   3.831   6.215  13.475 -0.2314  0.4704 -0.1820
 4751TIP3    H135668   3.843   6.203  13.381  1.3798  0.1320  0.0583
 4751TIP3    H235669   3.751   6.166  13.495  0.6074 -1.2658 -1.0114
 4752TIP3   OH235670   0.192   3.691  17.076 -0.6436 -0.7147  0.4868
 4752TIP3    H135671   0.210   3.785  17.068 -0.3399 -0.6508  1.7954
 4752TIP3    H235672   0.264   3.648  17.030 -1.4371 -0.2979 -1.1950
 4753TIP3   OH235673   6.323   4.299   5.838 -0.0593 -0.1162  1.1213
 4753TIP3    H135674   6.405   4.337   5.805  1.1964  0.2016  4.3787
 4753TIP3    H235675   6.321   4.212   5.800 -0.7446  1.5604 -2.9280
 4754TIP3   OH235676   1.077   3.627   0.360 -0.5706  0.0595 -0.0146
 4754TIP3    H135677   1.155   3.571   0.359 -1.3483 -1.0480  0.0829
 4754TIP3    H235678   1.082   3.677   0.279  0.1108 -0.1969 -0.1325
 4755TIP3   OH235679   6.534   2.209   3.970  0.1232  0.0020 -0.3058
 4755TIP3    H135680   6.532   2.303   3.953  0.4439  0.2911  1.1868
 4755TIP3    H235681   6.606   2.177   3.917  0.1894  0.6429 -0.6134
 4756TIP3   OH235682   2.909   6.458   0.307 -0.0571  0.1998  0.1582
 4756TIP3    H135683   2.921   6.443   0.401 -1.7269  0.5480  0.4607
 4756TIP3    H235684   2.889   6.372   0.271 -1.2806  0.3380  0.4636
 4757TIP3   OH235685   5.232   4.701  17.069  0.2986 -0.0377 -0.2336
 4757TIP3    H135686   5.151   4.726  17.114  0.9137 -0.1802  0.9541
 4757TIP3    H235687   5.235   4.759  16.993 -1.0579 -0.2173 -0.4493
 4758TIP3   OH235688   0.752   0.677  13.316 -0.6111 -0.0720  0.5483
 4758TIP3    H135689   0.718   0.766  13.308 -0.2788 -0.1721 -2.4858
 4758TIP3    H235690   0.674   0.623  13.332 -0.8933  0.6567  1.6894
 4759TIP3   OH235691   4.781   2.469   2.597  0.0912 -0.2025  0.5429
 4759TIP3    H135692   4.790   2.562   2.621  0.6016  0.0239 -0.4911
 4759TIP3    H235693   4.735   2.430   2.671 -1.5977  1.2226  0.3014
 4760TIP3   OH235694   4.179   5.097   3.597 -0.0436  0.1528  0.1903
 4760TIP3    H135695   4.158   5.170   3.539  0.0094  0.0498  0.0410
 4760TIP3    H235696   4.168   5.019   3.542  1.3766  0.1273 -0.0820
 4761TIP3   OH235697   3.222   0.057   1.536 -0.0494 -0.4516 -0.2912
 4761TIP3    H135698   3.255   0.145   1.553  3.1508 -1.3472 -1.5206
 4761TIP3    H235699   3.251   0.037   1.447 -1.1247 -2.5811 -0.1977
 4762TIP3   OH235700   1.399   4.499   0.369  0.5049  0.1041  0.2051
 4762TIP3    H135701   1.475   4.535   0.324  0.3938 -0.0530 -0.1116
 4762TIP3    H235702   1.333   4.490   0.301 -0.7970  2.9421  1.0195
 4763TIP3   OH235703   0.938   4.696   5.575  0.4411 -0.5743  0.5264
 4763TIP3    H135704   0.870   4.639   5.538  0.7366  0.4201 -1.5963
 4763TIP3    H235705   0.917   4.700   5.668 -1.9249 -0.9601  0.0485
 4764TIP3   OH235706   5.082   4.834  16.577 -0.1376  0.0279 -0.0215
 4764TIP3    H135707   5.088   4.832  16.481 -0.0854  3.5174 -0.1451
 4764TIP3    H235708   4.988   4.833  16.595 -0.1497 -0.4685 -0.1074
 4765TIP3   OH235709   6.089   2.154   3.289 -0.3922  0.1561 -0.5011
 4765TIP3    H135710   6.053   2.191   3.369  0.2211  0.8460 -0.5349
 4765TIP3    H235711   6.176   2.194   3.281  1.4089 -3.3112  0.8525
 4766TIP3   OH235712   5.367   1.424   0.099  0.1617 -0.4700  0.2177
 4766TIP3    H135713   5.288   1.421   0.044 -0.4559  0.3004  1.0545
 4766TIP3    H235714   5.334   1.415   0.188  0.9431  0.6128  0.6251
 4767TIP3   OH235715   0.536   4.742   5.011 -0.5191 -0.2041 -0.5006
 4767TIP3    H135716   0.452   4.776   4.980 -1.0453 -0.4733  0.5914
 4767TIP3    H235717   0.524   4.732   5.105  0.8036 -0.0709 -0.3033
 4768TIP3   OH235718   4.916   5.399  15.663  0.3462 -0.3159 -0.2680
 4768TIP3    H135719   4.985   5.361  15.718 -1.3318 -2.2085  0.6317
 4768TIP3    H235720   4.959   5.420  15.580  2.7351  1.7298  1.4037
 4769TIP3   OH235721   0.989   3.693   3.031 -0.2241  0.8574  0.2315
 4769TIP3    H135722   1.066   3.723   2.983 -0.0163  1.3854  0.8890
 4769TIP3    H235723   1.014   3.698   3.123  0.2238 -2.4486  0.3438
 4770TIP3   OH235724   2.957   4.200  16.356  0.2681 -0.1664 -0.4015
 4770TIP3    H135725   2.896   4.134  16.325  0.8985 -0.8252 -0.2640
 4770TIP3    H235726   3.037   4.151  16.377 -0.3902  0.1195  3.0441
 4771TIP3   OH235727   6.527   4.529   6.086  0.0116  0.1653  0.7103
 4771TIP3    H135728   6.530   4.434   6.095 -0.1329  0.1636  0.7385
 4771TIP3    H235729   6.614   4.553   6.054 -0.0419 -0.0065  0.4363
 4772TIP3   OH235730   0.712   5.468  11.172  0.6745  0.3357 -0.3163
 4772TIP3    H135731   0.663   5.471  11.254  0.6267  1.5973 -0.3865
 4772TIP3    H235732   0.762   5.550  11.171  1.1180  0.0593 -1.2757
 4773TIP3   OH235733   0.674   2.425   6.547 -0.1081  0.4261  0.2327
 4773TIP3    H135734   0.637   2.412   6.634  1.0855  0.4785  0.7541
 4773TIP3    H235735   0.712   2.341   6.524 -0.1853  0.4895 -0.1352
 4774TIP3   OH235736   3.626   5.510   0.598 -0.0665 -0.1152  0.2538
 4774TIP3    H135737   3.536   5.545   0.596  0.7046  1.8693 -0.9003
 4774TIP3    H235738   3.622   5.431   0.544 -1.1346 -0.0760  0.2563
 4775TIP3   OH235739   4.944   3.148   1.478 -0.2348  0.7993 -0.1573
 4775TIP3    H135740   4.907   3.060   1.475 -0.2452  0.7830  0.4944
 4775TIP3    H235741   4.868   3.206   1.481 -0.2145  0.7315  2.1885
 4776TIP3   OH235742   5.670   6.297   2.737 -0.6700  0.5859 -0.2501
 4776TIP3    H135743   5.718   6.279   2.818  2.0534  1.3402 -1.6362
 4776TIP3    H235744   5.634   6.212   2.712 -0.7197  0.1559  1.2413
 4777TIP3   OH235745   0.164   1.958  16.261  0.3034  0.3707  0.6189
 4777TIP3    H135746   0.116   2.039  16.241 -0.3962 -0.3733 -0.7761
 4777TIP3    H235747   0.234   1.986  16.320 -1.2885  1.6282  1.9708
 4778TIP3   OH235748   5.497   0.734  15.210 -0.0854 -0.6666 -0.2586
 4778TIP3    H135749   5.458   0.677  15.277  1.6386  0.2665  1.5817
 4778TIP3    H235750   5.591   0.731  15.228  0.1817  1.4443 -1.1864
 4779TIP3   OH235751   3.872   6.742  14.612  0.1912 -0.0425  0.6395
 4779TIP3    H135752   3.782   6.758  14.641 -0.1472 -1.2933  0.3103
 4779TIP3    H235753   3.924   6.810  14.655 -0.9311  0.7736  0.7170
 4780TIP3   OH235754   5.203   5.818  15.398 -0.1811  0.0188 -0.3546
 4780TIP3    H135755   5.120   5.813  15.350 -1.0847  0.3032  1.1355
 4780TIP3    H235756   5.212   5.910  15.420 -0.7416 -0.3890  1.6423
 4781TIP3   OH235757   1.245   1.269  14.815 -0.5124 -0.2891 -0.1204
 4781TIP3    H135758   1.181   1.338  14.805 -0.6668 -0.6310 -1.6036
 4781TIP3    H235759   1.198   1.189  14.792 -0.0190 -0.7458  0.4426
 4782TIP3   OH235760   3.932   1.085   1.885 -0.3458 -0.1002 -0.6902
 4782TIP3    H135761   3.975   1.029   1.821 -1.3595 -1.6626 -0.0524
 4782TIP3    H235762   3.951   1.044   1.970  0.3852  1.5315 -0.0398
 4783TIP3   OH235763   6.157   3.654  17.096  0.6683 -0.1397 -0.1752
 4783TIP3    H135764   6.108   3.675  17.176  0.1171 -0.9070 -0.3027
 4783TIP3    H235765   6.091   3.656  17.027  0.9492 -0.4976 -0.4529
 4784TIP3   OH235766   6.279   3.796  14.465 -0.4949  0.5388  0.0353
 4784TIP3    H135767   6.287   3.701  14.468  0.0464  0.6263  2.0081
 4784TIP3    H235768   6.292   3.818  14.373 -0.6545 -1.2890 -0.4530
 4785TIP3   OH235769   5.994   2.246   2.095 -0.1628  0.1748  0.4339
 4785TIP3    H135770   6.056   2.219   2.028 -1.8107 -2.9414  0.0682
 4785TIP3    H235771   6.040   2.232   2.178  0.3437 -0.1849  0.0961
 4786TIP3   OH235772   1.969   4.824   2.192  0.2272  0.2015  0.2937
 4786TIP3    H135773   2.034   4.773   2.142  0.0577  2.6865 -2.5662
 4786TIP3    H235774   1.886   4.807   2.147 -0.0577  1.8659  0.1842
 4787TIP3   OH235775   3.322   3.939  11.831  0.5175  0.0485 -0.3690
 4787TIP3    H135776   3.295   3.867  11.774 -1.0776  1.8461 -1.9546
 4787TIP3    H235777   3.297   4.018  11.783  1.6047  1.6557  1.6443
 4788TIP3   OH235778   4.165   0.449  11.050  0.0639  0.3025  0.1638
 4788TIP3    H135779   4.217   0.410  10.980 -0.1997  1.1770 -0.5331
 4788TIP3    H235780   4.115   0.518  11.007  0.3553  1.2589  1.3338
 4789TIP3   OH235781   4.083   4.488  17.078  0.0606  0.9699 -0.3412
 4789TIP3    H135782   4.094   4.394  17.065 -0.3955  0.9145 -0.2979
 4789TIP3    H235783   4.124   4.506  17.163  0.1367  0.8108 -0.3448
 4790TIP3   OH235784   4.960   3.769  12.834 -0.1105  0.2563 -0.0534
 4790TIP3    H135785   4.866   3.781  12.823 -0.2764 -0.2207  0.7787
 4790TIP3    H235786   4.991   3.741  12.749 -0.8371 -0.2704 -0.1450
 4791TIP3   OH235787   5.276   3.102   1.486  0.0486 -0.3225  0.0590
 4791TIP3    H135788   5.183   3.120   1.475  0.0975  0.5537  1.0310
 4791TIP3    H235789   5.306   3.168   1.548  1.0958 -1.2452  0.5546
 4792TIP3   OH235790   3.245   0.166  12.829 -0.3073  0.1499 -0.2382
 4792TIP3    H135791   3.182   0.205  12.769  1.2545  0.6662 -1.5840
 4792TIP3    H235792   3.295   0.241  12.863  0.9373 -0.4168 -0.7902
 4793TIP3   OH235793   0.319   3.900   2.600 -0.2679 -0.1342  0.3060
 4793TIP3    H135794   0.413   3.894   2.615 -0.1331  0.6950 -0.1438
 4793TIP3    H235795   0.306   3.991   2.572 -1.1258 -0.3920 -0.1381
 4794TIP3   OH235796   2.254   2.447   5.941 -0.1558  0.5169 -0.1629
 4794TIP3    H135797   2.210   2.481   6.018 -0.8747  0.0231 -0.3576
 4794TIP3    H235798   2.341   2.422   5.972 -1.0623 -1.4190  0.8981
 4795TIP3   OH235799   6.132   2.466   5.782 -0.1868 -0.0284  0.6842
 4795TIP3    H135800   6.189   2.448   5.856  0.8541  1.2723  0.2171
 4795TIP3    H235801   6.125   2.382   5.736 -0.0741 -0.6098  1.7193
 4796TIP3   OH235802   6.370   1.356  14.372  0.0352 -0.2039  0.1983
 4796TIP3    H135803   6.373   1.452  14.365 -1.9018 -0.1113  0.4973
 4796TIP3    H235804   6.455   1.333  14.412  0.7484  1.3234 -0.3964
 4797TIP3   OH235805   6.547   0.066   5.357 -0.2468 -0.0429  0.1548
 4797TIP3    H135806   6.556   0.159   5.378  3.2524 -0.2178 -0.2312
 4797TIP3    H235807   6.597   0.055   5.276 -0.4571 -2.2955  0.3007
 4798TIP3   OH235808   4.167   5.556  15.513  0.3673 -0.6701  0.6513
 4798TIP3    H135809   4.201   5.590  15.595  0.3889  1.1073 -0.0710
 4798TIP3    H235810   4.182   5.626  15.450 -2.8283 -0.6156 -0.1265
 4799TIP3   OH235811   5.233   2.038  13.714  0.4185 -0.6735 -0.4990
 4799TIP3    H135812   5.203   2.127  13.697 -0.5202 -0.6624  1.0237
 4799TIP3    H235813   5.198   2.018  13.801  2.5370 -1.6970  0.1463
 4800TIP3   OH235814   0.978   0.692   0.025 -0.2298  0.0757  0.2312
 4800TIP3    H135815   1.052   0.752   0.015 -0.7805  0.4427 -1.7689
 4800TIP3    H235816   0.981   0.666   0.117  2.5308 -0.1067  0.1293
 4801TIP3   OH235817   3.396   1.633   5.381 -0.8825  0.2804 -0.0785
 4801TIP3    H135818   3.421   1.554   5.429 -1.1816  0.7503  0.8848
 4801TIP3    H235819   3.478   1.681   5.370 -0.7573  0.0076 -0.3502
 4802TIP3   OH235820   4.437   3.148   3.301 -0.0157  0.2540  0.2578
 4802TIP3    H135821   4.520   3.100   3.302 -0.9008 -1.5260 -2.7256
 4802TIP3    H235822   4.427   3.182   3.389  2.2768 -2.3346  1.5883
 4803TIP3   OH235823   3.500   5.954   0.012  0.6142  0.6294  0.3891
 4803TIP3    H135824   3.495   6.029  -0.047  1.0707 -0.3479 -0.9082
 4803TIP3    H235825   3.435   5.893  -0.022  0.4696  0.2835  1.2602
 4804TIP3   OH235826   5.126   1.546   1.626 -0.2380 -0.1920  0.3939
 4804TIP3    H135827   5.120   1.627   1.574  1.0912 -0.6989 -0.5514
 4804TIP3    H235828   5.126   1.577   1.716 -1.1425  0.7831  0.0834
 4805TIP3   OH235829   5.100   0.518  12.292  0.1166  0.6795  0.3045
 4805TIP3    H135830   5.027   0.456  12.285  0.7729 -0.3801  2.4006
 4805TIP3    H235831   5.130   0.509  12.382  1.9708  2.0940 -0.1533
 4806TIP3   OH235832   3.521   2.609   3.773  0.0165 -0.1446 -0.3337
 4806TIP3    H135833   3.608   2.570   3.770 -0.1859 -0.6269  0.2202
 4806TIP3    H235834   3.529   2.688   3.718  0.8297 -0.1222 -0.1885
 4807TIP3   OH235835   5.655   1.720  10.838 -0.6686 -0.6193  0.3793
 4807TIP3    H135836   5.685   1.794  10.786  1.9391 -1.2389  0.9111
 4807TIP3    H235837   5.577   1.688  10.792  0.3871  0.0911 -1.9751
 4808TIP3   OH235838   3.747   5.082  12.746 -0.0970  0.2628 -0.1876
 4808TIP3    H135839   3.653   5.064  12.746 -0.2566  1.0109 -1.5807
 4808TIP3    H235840   3.775   5.057  12.658  1.2697 -1.1786  0.6322
 4809TIP3   OH235841   4.703   1.590  11.681  0.6418 -0.9172  0.3448
 4809TIP3    H135842   4.740   1.554  11.761  0.3194 -1.9572  0.0414
 4809TIP3    H235843   4.756   1.551  11.611  1.7069  0.9199  0.0879
 4810TIP3   OH235844   1.008   3.896  16.078  0.2551  0.3019 -0.6098
 4810TIP3    H135845   1.039   3.907  16.168  0.5431  1.0965 -0.8023
 4810TIP3    H235846   0.913   3.908  16.085 -0.0521 -2.2253 -0.0077
 4811TIP3   OH235847   4.091   2.291   0.593  0.2979  0.4448 -0.2114
 4811TIP3    H135848   4.082   2.209   0.640  0.6791 -0.0575 -1.0051
 4811TIP3    H235849   4.084   2.359   0.660 -0.8569 -0.2012  0.3223
 4812TIP3   OH235850   4.983   4.666   4.326 -0.2990 -0.0003 -0.2166
 4812TIP3    H135851   5.073   4.633   4.327 -0.2772  0.0613 -0.0115
 4812TIP3    H235852   4.932   4.598   4.282 -0.2670 -0.3396  0.2721
 4813TIP3   OH235853   4.985   2.467   5.101 -0.4781 -0.2869  0.0651
 4813TIP3    H135854   4.993   2.420   5.185 -2.4789  0.5687  0.7593
 4813TIP3    H235855   5.069   2.510   5.090  0.4534 -1.8929  0.7402
 4814TIP3   OH235856   1.424   4.139  14.094 -0.3366  0.1178  0.3891
 4814TIP3    H135857   1.439   4.104  14.181 -0.3180 -0.7893  0.0222
 4814TIP3    H235858   1.381   4.068  14.046 -1.4316  1.0234  0.0108
 4815TIP3   OH235859   5.439   0.550   3.695  0.6457  0.4798  0.2986
 4815TIP3    H135860   5.517   0.597   3.665 -0.6272  2.2802 -0.2777
 4815TIP3    H235861   5.406   0.505   3.617  0.5397  0.5519  0.3011
 4816TIP3   OH235862   1.538   1.336  13.262  0.2679 -0.5605 -0.1203
 4816TIP3    H135863   1.529   1.262  13.322  1.2342  0.3631  1.1842
 4816TIP3    H235864   1.545   1.295  13.176  1.8762 -2.0659  0.6855
 4817TIP3   OH235865   3.750   5.826   2.224  0.5745 -0.1800 -0.1994
 4817TIP3    H135866   3.816   5.795   2.285  0.9239  0.1716 -0.3944
 4817TIP3    H235867   3.667   5.802   2.264  0.7900  0.4481  0.6315
 4818TIP3   OH235868   0.972   0.251   0.649 -0.1157 -0.0001  0.2067
 4818TIP3    H135869   1.061   0.215   0.656  0.0441  0.3716  0.1191
 4818TIP3    H235870   0.984   0.346   0.657 -0.6230 -0.0170  1.2398
 4819TIP3   OH235871   1.169   5.463   5.046 -0.1713 -0.1769 -0.0567
 4819TIP3    H135872   1.182   5.396   5.114 -0.1158  0.0860  0.1917
 4819TIP3    H235873   1.148   5.413   4.967  1.5033 -0.5927 -0.2775
 4820TIP3   OH235874   4.674   6.210   5.061  0.5341 -0.3983 -0.1640
 4820TIP3    H135875   4.660   6.117   5.046 -1.6544 -0.2211  0.5224
 4820TIP3    H235876   4.725   6.240   4.986  0.4080 -1.9506 -0.8788
 4821TIP3   OH235877   1.520   3.295   2.343  0.4505 -0.1097  0.6422
 4821TIP3    H135878   1.587   3.271   2.279 -0.8339 -0.3045 -0.6547
 4821TIP3    H235879   1.547   3.250   2.424  1.1964 -1.2175 -0.2075
 4822TIP3   OH235880   6.131   3.818  12.172 -0.1778 -0.1975 -0.3674
 4822TIP3    H135881   6.190   3.893  12.170 -0.4100 -0.0343 -1.4313
 4822TIP3    H235882   6.186   3.746  12.204 -0.0449  0.4854  0.9981
 4823TIP3   OH235883   3.788   0.488   2.105  0.0499 -0.0450  0.3314
 4823TIP3    H135884   3.804   0.396   2.086 -1.1695  0.1980 -2.2061
 4823TIP3    H235885   3.746   0.522   2.025  1.9107  3.0806  0.5760
 4824TIP3   OH235886   2.725   5.806  12.986  0.0354  0.2394 -0.3154
 4824TIP3    H135887   2.666   5.804  12.911  1.0385  0.3369 -1.1278
 4824TIP3    H235888   2.766   5.892  12.983  0.4094  0.0811  0.0783
 4825TIP3   OH235889   2.528   2.588  16.456  0.4066 -0.4153  0.1613
 4825TIP3    H135890   2.487   2.504  16.479  0.6916 -0.8732 -0.9771
 4825TIP3    H235891   2.613   2.586  16.500  1.0640 -1.4050 -1.1225
 4826TIP3   OH235892   1.355   5.875   2.201 -0.1992  0.0506 -0.6658
 4826TIP3    H135893   1.429   5.920   2.241  0.3199 -0.1478 -1.4014
 4826TIP3    H235894   1.281   5.933   2.215  0.2451  0.6046 -0.6146
 4827TIP3   OH235895   2.009   1.348   2.745 -0.4773 -0.3595 -0.2491
 4827TIP3    H135896   1.915   1.329   2.740 -0.4750 -0.1050 -1.4220
 4827TIP3    H235897   2.050   1.280   2.692  0.0620 -0.8179  0.7349
 4828TIP3   OH235898   2.040   3.117   0.324  0.3028  0.7659  0.0133
 4828TIP3    H135899   2.081   3.040   0.284 -3.4774 -0.8440 -1.0072
 4828TIP3    H235900   2.024   3.176   0.251 -1.2194  0.4011  0.0499
 4829TIP3   OH235901   2.995   5.788  14.900 -0.0966  0.2570  0.0264
 4829TIP3    H135902   2.904   5.787  14.931  0.6222 -1.1993  2.2629
 4829TIP3    H235903   3.036   5.857  14.952 -0.0478  1.3061 -1.3962
 4830TIP3   OH235904   0.354   4.656   6.018  0.1398  0.4813 -0.7802
 4830TIP3    H135905   0.294   4.639   6.090  0.3117 -1.3834 -1.0368
 4830TIP3    H235906   0.335   4.746   5.991  0.1111  1.2253  1.5984
 4831TIP3   OH235907   0.833   2.652   0.837  0.1967 -0.2144 -0.0444
 4831TIP3    H135908   0.738   2.649   0.829  0.1600  0.5093  0.1353
 4831TIP3    H235909   0.865   2.600   0.763 -0.3145  0.2781 -0.6067
 4832TIP3   OH235910   4.303   2.999   3.614  0.4714 -0.4276  0.5114
 4832TIP3    H135911   4.291   2.979   3.521 -1.1439 -0.2137  0.6649
 4832TIP3    H235912   4.349   3.083   3.615  1.0125 -0.7080 -0.0818
 4833TIP3   OH235913   0.938   3.282   4.633  0.2034 -0.3547  0.5330
 4833TIP3    H135914   0.923   3.210   4.571 -1.3260  1.5127 -1.2933
 4833TIP3    H235915   0.992   3.345   4.584 -0.1259  0.6491  1.4561
 4834TIP3   OH235916   1.509   1.698  10.572 -0.8057  0.3055 -0.3727
 4834TIP3    H135917   1.464   1.774  10.609 -1.2550 -0.6803  1.1472
 4834TIP3    H235918   1.598   1.703  10.607 -1.4248 -1.0050  1.4108
 4835TIP3   OH235919   5.673   5.200  13.310 -0.0915  0.1073  0.6020
 4835TIP3    H135920   5.722   5.261  13.365  0.3401 -0.0349  0.3747
 4835TIP3    H235921   5.584   5.237  13.307  0.1575  0.7111  0.4893
 4836TIP3   OH235922   2.790   3.528   4.907 -0.5360  0.3552 -0.3466
 4836TIP3    H135923   2.846   3.548   4.982  0.0735 -2.1044 -0.0894
 4836TIP3    H235924   2.701   3.531   4.942 -0.2334 -1.2109  0.6081
 4837TIP3   OH235925   0.193   0.231   3.877  0.5647  0.0079  0.1575
 4837TIP3    H135926   0.168   0.300   3.815  1.3526  1.5126  1.4633
 4837TIP3    H235927   0.199   0.276   3.962 -0.2791 -1.9502  1.3031
 4838TIP3   OH235928   4.149   4.681  12.291  0.5427 -0.5830 -0.5954
 4838TIP3    H135929   4.240   4.679  12.259  0.4028  0.1987 -1.0331
 4838TIP3    H235930   4.097   4.656  12.214  0.3626 -0.7706 -0.4118
 4839TIP3   OH235931   6.551   5.117  12.923 -0.3644 -0.3628 -0.6313
 4839TIP3    H135932   6.550   5.209  12.950  0.3752  0.1335 -2.2081
 4839TIP3    H235933   6.533   5.068  13.003 -0.9371  1.1633  0.1938
 4840TIP3   OH235934   2.914   1.373   1.910  0.0772  0.2055  0.0347
 4840TIP3    H135935   2.945   1.354   1.821 -1.1436  0.9183 -0.5460
 4840TIP3    H235936   2.825   1.339   1.912  0.2750 -0.2648  1.1579
 4841TIP3   OH235937   3.144   4.496  16.119 -0.4132  0.1167 -0.1802
 4841TIP3    H135938   3.229   4.527  16.151 -1.1093  2.9650 -0.9618
 4841TIP3    H235939   3.086   4.501  16.195 -0.0799 -1.1310  0.1695
 4842TIP3   OH235940   5.729   5.607   0.042  0.1829 -0.1579 -0.2010
 4842TIP3    H135941   5.635   5.600   0.026  0.1717  1.4148 -0.8765
 4842TIP3    H235942   5.763   5.521   0.017 -0.7849 -0.0400 -2.0170
 4843TIP3   OH235943   2.161   5.545   3.512  0.3264 -0.0266  0.0211
 4843TIP3    H135944   2.111   5.572   3.590  0.6728  0.7663 -0.0216
 4843TIP3    H235945   2.099   5.494   3.460 -0.3418  0.6501  0.1375
 4844TIP3   OH235946   1.464   3.866   6.176 -0.1160 -0.0159  0.1729
 4844TIP3    H135947   1.510   3.820   6.107  0.5570  1.7414 -0.5876
 4844TIP3    H235948   1.533   3.908   6.227 -0.8112  2.6776 -1.0090
 4845TIP3   OH235949   5.562   0.943   3.603 -0.4923  0.5325 -0.5300
 4845TIP3    H135950   5.559   0.971   3.512  0.5360 -0.3210 -0.8331
 4845TIP3    H235951   5.576   1.024   3.653  2.2008  0.6221 -1.3678
 4846TIP3   OH235952   6.536   1.711  12.417  0.1794 -0.1567  0.1868
 4846TIP3    H135953   6.575   1.628  12.446 -1.1823 -0.5674  0.8976
 4846TIP3    H235954   6.568   1.776  12.480  0.5760 -0.3004  0.1324
 4847TIP3   OH235955   2.040   1.756  12.596  0.1487 -0.3567  0.5906
 4847TIP3    H135956   1.978   1.776  12.526  0.2033  1.7756  1.1294
 4847TIP3    H235957   2.007   1.804  12.672  1.5087 -0.6057  1.3537
 4848TIP3   OH235958   5.062   0.258  15.445 -0.0952  0.4124 -0.4778
 4848TIP3    H135959   5.097   0.344  15.424  0.7554  0.0171 -0.6837
 4848TIP3    H235960   5.092   0.241  15.535 -2.5650  1.5051  0.6026
 4849TIP3   OH235961   2.692   2.457   5.983 -0.0060  0.0272  0.1097
 4849TIP3    H135962   2.662   2.469   6.073  1.6466  0.6659  0.6024
 4849TIP3    H235963   2.629   2.398   5.944 -0.7434 -0.2588  1.7013
 4850TIP3   OH235964   4.380   0.217  16.748  0.3715  0.0093 -0.3867
 4850TIP3    H135965   4.337   0.180  16.671 -0.9693  1.2585 -0.2612
 4850TIP3    H235966   4.333   0.179  16.822 -0.2644  1.0408 -0.2416
 4851TIP3   OH235967   5.141   1.598  12.642 -0.0573  0.0527  0.2942
 4851TIP3    H135968   5.120   1.624  12.552  1.5281 -0.5844 -0.2915
 4851TIP3    H235969   5.210   1.659  12.669  0.9996 -1.1114  0.2807
 4852TIP3   OH235970   6.101   3.207  16.969  0.3500 -0.2098 -0.5186
 4852TIP3    H135971   6.170   3.273  16.959 -0.5400  1.1294  1.8835
 4852TIP3    H235972   6.116   3.170  17.056 -0.7013 -1.4153 -0.8351
 4853TIP3   OH235973   5.834   6.291  10.672  0.2174 -0.3744 -0.3856
 4853TIP3    H135974   5.843   6.196  10.682  0.1345 -0.1936  1.5000
 4853TIP3    H235975   5.912   6.317  10.623 -0.3345 -1.5558 -1.9559
 4854TIP3   OH235976   3.953   1.373   2.997 -0.2905 -0.0849 -0.1792
 4854TIP3    H135977   3.911   1.454   2.968  0.6951  0.2807 -0.6160
 4854TIP3    H235978   3.935   1.368   3.091  1.1705  1.5858  0.2134
 4855TIP3   OH235979   0.843   3.526   0.419 -0.1924  0.0577 -0.3063
 4855TIP3    H135980   0.916   3.562   0.368 -1.7998  0.5459 -2.3326
 4855TIP3    H235981   0.785   3.601   0.434 -0.0007 -0.1849  1.8502
 4856TIP3   OH235982   1.388   2.076   4.899  0.1375  0.0877  0.1095
 4856TIP3    H135983   1.478   2.100   4.923 -0.7230  1.5010  2.0096
 4856TIP3    H235984   1.351   2.156   4.863 -0.6027 -0.2751  0.0667
 4857TIP3   OH235985   1.635   0.721   4.357  0.2159 -0.0577  0.0450
 4857TIP3    H135986   1.644   0.727   4.262 -0.7394 -0.5346 -0.0837
 4857TIP3    H235987   1.690   0.792   4.391  0.7320 -0.0206 -0.8501
 4858TIP3   OH235988   4.838   2.225   3.781 -0.2190  0.3988  0.7145
 4858TIP3    H135989   4.782   2.265   3.848 -1.3013 -1.7812  1.1466
 4858TIP3    H235990   4.787   2.231   3.700 -0.5853 -0.5020  0.8722
 4859TIP3   OH235991   2.147   6.559  12.745 -0.7984 -0.2102  0.3819
 4859TIP3    H135992   2.137   6.539  12.652  0.3703  0.0838  0.1916
 4859TIP3    H235993   2.146   6.655  12.748  2.9755 -0.1228  0.2295
 4860TIP3   OH235994   2.538   2.761  15.267  0.2264 -0.1520 -0.2381
 4860TIP3    H135995   2.470   2.736  15.328 -1.9343  0.4764 -2.2998
 4860TIP3    H235996   2.552   2.683  15.212 -1.2527  0.7277 -1.9324
 4861TIP3   OH235997   2.386   0.961   4.364  0.7110  0.7000 -0.1224
 4861TIP3    H135998   2.344   0.874   4.365  0.0619  1.0140  0.5927
 4861TIP3    H235999   2.462   0.952   4.421  1.5218  0.1806 -1.2696
 4862TIP3   OH236000   2.769   1.053  12.229 -0.1173 -0.0627 -0.3419
 4862TIP3    H136001   2.706   0.995  12.185 -1.1477 -1.0567  2.3619
 4862TIP3    H236002   2.852   1.005  12.226 -0.1762 -0.1163 -1.1841
 4863TIP3   OH236003   5.350   2.574  13.970 -0.5163 -0.0508 -0.3854
 4863TIP3    H136004   5.394   2.659  13.965  1.0551 -0.6999  1.9059
 4863TIP3    H236005   5.404   2.515  13.918 -1.2957  0.2061 -1.5002
 4864TIP3   OH236006   1.768   4.058   0.066 -0.0614 -0.1073  0.0634
 4864TIP3    H136007   1.772   4.121  -0.006 -0.2299 -1.0296 -0.7615
 4864TIP3    H236008   1.809   4.104   0.139 -1.3387  1.4296 -0.1555
 4865TIP3   OH236009   1.974   3.565   5.314 -0.9713 -0.0405 -0.2127
 4865TIP3    H136010   1.910   3.524   5.256 -1.1829  0.4883 -0.3544
 4865TIP3    H236011   1.972   3.658   5.290 -0.9594  0.1552  0.5438
 4866TIP3   OH236012   3.017   4.213   0.744 -0.0766  0.3628 -0.6344
 4866TIP3    H136013   3.033   4.211   0.650 -0.3217  0.6700 -0.6831
 4866TIP3    H236014   3.033   4.304   0.769 -2.4908  0.8580 -0.8229
 4867TIP3   OH236015   2.704   0.076   0.532 -0.1291  0.1374 -0.4446
 4867TIP3    H136016   2.625   0.120   0.564 -0.3119 -1.6428  1.7201
 4867TIP3    H236017   2.672  -0.006   0.494  0.5850 -0.2394 -0.2465
 4868TIP3   OH236018   6.563   2.799  15.569 -0.3199 -0.2704  0.0736
 4868TIP3    H136019   6.537   2.853  15.495  0.7693  1.6362  1.0494
 4868TIP3    H236020   6.524   2.841  15.645  1.0612 -0.4719  0.9213
 4869TIP3   OH236021   5.417   4.200  14.851 -0.2380  0.4882  0.7234
 4869TIP3    H136022   5.435   4.249  14.771  0.0175  3.8221  2.7225
 4869TIP3    H236023   5.472   4.122  14.845  0.2165  0.9985 -2.0417
 4870TIP3   OH236024   4.823   4.294   3.850 -0.3292  0.0300  0.2128
 4870TIP3    H136025   4.791   4.359   3.912 -1.1546  0.3080 -0.4965
 4870TIP3    H236026   4.744   4.258   3.810  0.1501 -1.0205  0.2094
 4871TIP3   OH236027   4.414   3.574   5.231  0.8475  0.1910 -0.4260
 4871TIP3    H136028   4.393   3.618   5.149  0.1454  0.1817 -0.2576
 4871TIP3    H236029   4.329   3.542   5.263  1.1120  0.2473  0.3286
 4872TIP3   OH236030   0.632   1.061  15.342 -0.3130  0.1078 -0.3105
 4872TIP3    H136031   0.673   1.130  15.291 -1.8390 -0.2854 -2.1179
 4872TIP3    H236032   0.695   0.989  15.340 -0.6150 -0.1301 -2.1955
 4873TIP3   OH236033   5.503   1.558  11.711 -0.0401 -0.1827  0.8618
 4873TIP3    H136034   5.455   1.486  11.752  1.5217 -0.5807  2.0290
 4873TIP3    H236035   5.585   1.563  11.760  0.3344  1.6848  0.0811
 4874TIP3   OH236036   4.626   6.131   3.041  0.5069 -0.1273 -0.2020
 4874TIP3    H136037   4.561   6.061   3.034  0.9576 -0.3727 -2.4637
 4874TIP3    H236038   4.682   6.105   3.114 -0.6921 -0.9661  0.4275
 4875TIP3   OH236039   3.796   2.206  11.724  0.2050 -0.1142 -0.1711
 4875TIP3    H136040   3.745   2.202  11.643 -1.0702  0.0169  0.6214
 4875TIP3    H236041   3.731   2.202  11.794  1.3793 -1.7782  0.8750
 4876TIP3   OH236042   5.799   1.134  14.412  0.5999  0.1909  0.0320
 4876TIP3    H136043   5.800   1.143  14.316  1.1797  2.5795  0.2355
 4876TIP3    H236044   5.865   1.068  14.431  0.5244 -0.2592 -1.2018
 4877TIP3   OH236045   0.323   3.513   2.190  0.3071 -0.7124 -0.1324
 4877TIP3    H136046   0.322   3.568   2.269 -0.9497 -0.7167 -0.1344
 4877TIP3    H236047   0.231   3.499   2.170  0.6121 -3.0321 -0.0091
 4878TIP3   OH236048   6.066   5.899  11.857 -0.4106 -0.6852  0.2772
 4878TIP3    H136049   6.146   5.913  11.909 -0.8562 -0.0380  0.7994
 4878TIP3    H236050   6.086   5.823  11.803  0.2372 -1.0837  1.0582
 4879TIP3   OH236051   1.696   4.675  13.192  0.3245 -0.7467  0.4207
 4879TIP3    H136052   1.694   4.746  13.256 -0.4223 -0.2986 -0.0978
 4879TIP3    H236053   1.754   4.609  13.231 -1.1531 -1.0572  2.1516
 4880TIP3   OH236054   5.905   6.004  10.743  0.2115 -0.0422 -0.1471
 4880TIP3    H136055   5.980   5.946  10.750 -0.6799 -1.1432  0.4956
 4880TIP3    H236056   5.843   5.958  10.687 -0.9986 -0.2779  1.3447
 4881TIP3   OH236057   0.020   1.702  11.792  0.5728  0.7028  0.4975
 4881TIP3    H136058   0.041   1.794  11.806  1.9062  0.0634  3.0201
 4881TIP3    H236059   0.079   1.655  11.851  0.0220 -1.7798 -0.8682
 4882TIP3   OH236060   0.271   1.309   0.311  0.5791 -0.6897  0.3425
 4882TIP3    H136061   0.177   1.292   0.304  0.5317 -0.7984  1.1715
 4882TIP3    H236062   0.308   1.276   0.229  0.0403 -1.6475  0.4799
 4883TIP3   OH236063   1.471   1.779   4.842  0.4478 -0.0467 -0.2580
 4883TIP3    H136064   1.531   1.797   4.770  0.5752  2.0097  0.3433
 4883TIP3    H236065   1.429   1.863   4.861 -0.5383 -0.8400  1.2092
 4884TIP3   OH236066   2.060   0.606  13.898 -0.7385  0.4668  0.4477
 4884TIP3    H136067   2.040   0.619  13.990 -1.9528 -0.0588  0.2707
 4884TIP3    H236068   2.005   0.532  13.872  0.6030 -0.2800 -0.3558
 4885TIP3   OH236069   1.430   0.164   3.057 -0.2600  0.4677  0.4467
 4885TIP3    H136070   1.395   0.094   3.003 -1.5473  1.5743 -0.1706
 4885TIP3    H236071   1.515   0.185   3.017 -0.4065  0.0701 -0.0715
 4886TIP3   OH236072   4.062   1.948  14.846  0.5215 -0.3571  0.3320
 4886TIP3    H136073   4.036   2.038  14.866  1.5134  0.1739 -0.7740
 4886TIP3    H236074   3.979   1.900  14.842 -0.1279  0.8318 -0.7000
 4887TIP3   OH236075   1.254   3.767  15.989 -0.3107 -0.3840 -0.5155
 4887TIP3    H136076   1.187   3.821  16.030 -1.2099 -1.7478 -0.1339
 4887TIP3    H236077   1.226   3.759  15.898  0.6309  1.0231 -0.9355
 4888TIP3   OH236078   0.549   0.184  16.783 -0.3127  0.2803 -0.5520
 4888TIP3    H136079   0.493   0.252  16.821 -1.1160 -0.2320 -0.8001
 4888TIP3    H236080   0.597   0.149  16.857  0.6719  1.6194 -0.5301
 4889TIP3   OH236081   5.199   3.329   2.049  0.0386  0.2377  0.2688
 4889TIP3    H136082   5.125   3.358   2.102 -1.1376 -1.8074 -0.1734
 4889TIP3    H236083   5.164   3.323   1.960  0.4094 -1.7652  0.2299
 4890TIP3   OH236084   4.320   2.585   1.956  0.9753  0.4783  0.0479
 4890TIP3    H136085   4.331   2.490   1.951  0.4400  0.2060  2.9778
 4890TIP3    H236086   4.408   2.618   1.973  1.4531  0.7033 -2.6497
 4891TIP3   OH236087   1.044   2.615  13.059  0.7154  0.5497  0.0117
 4891TIP3    H136088   1.082   2.654  13.138  1.9287 -0.1920 -0.1887
 4891TIP3    H236089   0.964   2.572  13.090  1.2026  0.2345  0.8561
 4892TIP3   OH236090   0.765   5.254   5.274  0.0155  0.4268  0.4202
 4892TIP3    H136091   0.830   5.216   5.214 -0.1203 -0.9743  1.1372
 4892TIP3    H236092   0.687   5.267   5.219 -0.4941 -1.9393  0.5154
 4893TIP3   OH236093   2.429   3.254   0.590 -0.4282  0.0066 -0.1234
 4893TIP3    H136094   2.386   3.311   0.653 -0.2462 -0.1083  0.1061
 4893TIP3    H236095   2.468   3.185   0.643  2.0083  1.3345 -0.0878
 4894TIP3   OH236096   4.890   0.003   1.548  0.2149 -0.1833 -0.1493
 4894TIP3    H136097   4.823  -0.049   1.504 -0.6196  0.1850  0.6789
 4894TIP3    H236098   4.966  -0.056   1.554 -0.3479 -0.9223 -0.2345
 4895TIP3   OH236099   5.366   5.175  12.479 -0.0061 -0.8160 -0.2291
 4895TIP3    H136100   5.350   5.093  12.432  0.4040 -0.2505 -1.3862
 4895TIP3    H236101   5.421   5.226  12.419  1.6972 -0.6278  1.4432
 4896TIP3   OH236102   3.136   0.592  15.846 -0.1244 -0.2071  0.3649
 4896TIP3    H136103   3.107   0.681  15.867  1.9135  0.0676  2.1198
 4896TIP3    H236104   3.179   0.600  15.761 -0.0736  0.4656  0.4504
 4897TIP3   OH236105   3.807   4.472  17.128 -0.5127  0.4426  0.4539
 4897TIP3    H136106   3.900   4.484  17.110 -0.1088 -0.8556  1.6211
 4897TIP3    H236107   3.765   4.549  17.088  0.9202  0.4470 -1.1339
 4898TIP3   OH236108   6.574   0.367   5.439  0.0962 -0.1166 -0.4096
 4898TIP3    H136109   6.643   0.400   5.496 -1.1662  0.4761  0.8082
 4898TIP3    H236110   6.532   0.446   5.405 -1.8099 -0.4282  1.1206
 4899TIP3   OH236111   0.063   0.671  16.758  0.2850 -0.0092 -0.0424
 4899TIP3    H136112   0.058   0.751  16.705  0.8019  1.5329  2.1417
 4899TIP3    H236113  -0.018   0.671  16.809  0.2248 -0.9665 -0.1374
 4900TIP3   OH236114   5.945   2.722   4.942 -0.4151  0.3493  0.0087
 4900TIP3    H136115   5.898   2.640   4.928 -0.8287  0.8455 -1.6084
 4900TIP3    H236116   5.885   2.775   4.994 -0.4149 -0.1233  0.4983
 4901TIP3   OH236117   0.236   2.011  14.856 -0.5554 -0.1407  0.3509
 4901TIP3    H136118   0.210   1.922  14.834  0.1668 -0.6474  1.5212
 4901TIP3    H236119   0.162   2.047  14.905 -1.9519  0.8133 -2.3608
 4902TIP3   OH236120   0.349   0.709   4.083 -0.4982 -0.2130  0.3729
 4902TIP3    H136121   0.422   0.720   4.144 -0.0909 -0.7669 -0.0034
 4902TIP3    H236122   0.296   0.787   4.095  0.2466  0.2805  0.5281
 4903TIP3   OH236123   5.204   4.638   1.364 -0.0846  0.2296 -0.4166
 4903TIP3    H136124   5.197   4.594   1.448  1.5871  0.2376 -0.2629
 4903TIP3    H236125   5.245   4.722   1.384 -1.7716  1.2080 -0.9349
 4904TIP3   OH236126   4.292   1.232  14.717 -0.0977 -0.6223 -0.2784
 4904TIP3    H136127   4.333   1.160  14.669 -1.4388 -1.9352  0.5360
 4904TIP3    H236128   4.271   1.196  14.803 -2.7892  0.0760 -0.6021
 4905TIP3   OH236129   5.052   2.865   0.376  0.4372  0.1320  0.0988
 4905TIP3    H136130   5.029   2.861   0.469  1.0005  1.1837  0.2903
 4905TIP3    H236131   5.147   2.877   0.375  0.6355 -1.4001 -0.6425
 4906TIP3   OH236132   0.119   4.986  14.934  0.9686  0.3349  0.0168
 4906TIP3    H136133   0.199   5.038  14.929  1.1127  0.4050  2.4139
 4906TIP3    H236134   0.149   4.897  14.951  0.5535  0.4457  1.4382
 4907TIP3   OH236135   1.486   0.799  17.177 -0.0695  0.0513 -0.0085
 4907TIP3    H136136   1.401   0.810  17.219 -0.0378  0.9445 -0.1672
 4907TIP3    H236137   1.490   0.869  17.112  0.4990 -0.4143 -0.4801
 4908TIP3   OH236138   4.190   0.184   1.667  0.0276  0.9399  0.6349
 4908TIP3    H136139   4.216   0.264   1.621 -1.7480  0.9647 -0.3371
 4908TIP3    H236140   4.199   0.115   1.602 -2.9328  1.0366  0.0913
 4909TIP3   OH236141   4.070   2.095  12.503  0.3279  0.3511  0.3502
 4909TIP3    H136142   3.990   2.084  12.555 -0.7087 -0.1891 -1.3506
 4909TIP3    H236143   4.140   2.065  12.562 -0.6120  1.4684  2.1054
 4910TIP3   OH236144   4.050   1.194  15.106  0.4128 -0.5479  0.2729
 4910TIP3    H136145   4.115   1.175  15.174  1.0524 -0.5356 -0.3310
 4910TIP3    H236146   4.100   1.236  15.036 -0.4209  0.3537  0.2129
 4911TIP3   OH236147   3.597   1.424   2.109  0.0470  0.5178  0.4212
 4911TIP3    H136148   3.685   1.460   2.120 -0.3981  1.1278  2.1698
 4911TIP3    H236149   3.544   1.470   2.174 -1.5431  0.0631 -0.5204
 4912TIP3   OH236150   4.719   2.292   4.173 -0.7313  0.3395  0.0856
 4912TIP3    H136151   4.704   2.325   4.085 -0.2805  0.1377 -0.0691
 4912TIP3    H236152   4.724   2.197   4.162 -1.7053  0.2400  0.4801
 4913TIP3   OH236153   0.987   2.369   5.565  0.7148 -0.3359 -0.6735
 4913TIP3    H136154   0.934   2.289   5.567  0.8501 -0.3915  0.6262
 4913TIP3    H236155   1.077   2.338   5.573  0.6172  0.0975  2.4217
 4914TIP3   OH236156   1.537   3.687   3.965 -0.0414  0.8575  0.5965
 4914TIP3    H136157   1.527   3.687   4.060  1.0146 -0.0174  0.7213
 4914TIP3    H236158   1.621   3.644   3.950  0.5883  2.4921 -0.6560
 4915TIP3   OH236159   6.786   0.447   1.655 -0.5910  0.4994  0.1761
 4915TIP3    H136160   6.728   0.430   1.730 -0.6715  1.0402  0.2348
 4915TIP3    H236161   6.871   0.415   1.684 -0.2673  2.1483  1.1109
 4916TIP3   OH236162   2.236   0.964  11.454  0.5750 -0.1355  0.1617
 4916TIP3    H136163   2.247   0.872  11.478  3.8688  0.5244  1.4104
 4916TIP3    H236164   2.268   0.969  11.364  0.5527 -0.1630  0.1512
 4917TIP3   OH236165   0.358   1.949   1.868 -0.3194  0.1152 -0.3395
 4917TIP3    H136166   0.336   1.994   1.950  1.5512 -1.4719  1.0999
 4917TIP3    H236167   0.446   1.980   1.846  0.1239 -1.2003 -0.4768
 4918TIP3   OH236168   2.429   4.827  17.093  0.0228 -0.3807  0.0052
 4918TIP3    H136169   2.496   4.892  17.071  0.1169 -0.7539 -0.8051
 4918TIP3    H236170   2.422   4.833  17.188  0.8076  0.0581  0.0467
 4919TIP3   OH236171   2.948   3.378   5.362 -0.4002  0.2352 -0.2924
 4919TIP3    H136172   3.032   3.334   5.376 -0.4988 -0.0387 -0.5470
 4919TIP3    H236173   2.891   3.343   5.431  0.0464  1.3487  0.6414
 4920TIP3   OH236174   2.700   0.677  13.985 -0.0511  0.2399  0.5323
 4920TIP3    H136175   2.625   0.736  13.991 -0.7470 -0.5024 -0.7474
 4920TIP3    H236176   2.737   0.693  13.899  0.6692 -0.1190  0.7684
 4921TIP3   OH236177   4.986   2.897  10.927 -0.2004  0.4572  0.0780
 4921TIP3    H136178   5.019   2.885  10.838  1.3470 -0.3239  0.7326
 4921TIP3    H236179   5.040   2.839  10.981  0.2353  2.3657  1.7943
 4922TIP3   OH236180   2.870   3.890   1.090  0.2117 -0.0149 -0.0960
 4922TIP3    H136181   2.871   3.842   1.173  0.4984  1.0519  0.5287
 4922TIP3    H236182   2.955   3.934   1.087 -0.7775  2.0058  0.2853
 4923TIP3   OH236183   4.208   6.034   5.546  0.0902  0.3352 -0.2847
 4923TIP3    H136184   4.212   6.016   5.640 -1.2701  0.4591 -0.1906
 4923TIP3    H236185   4.176   6.124   5.541 -0.5853  0.0605 -0.8850
 4924TIP3   OH236186   6.741   3.020   2.662  0.2029 -0.1693 -0.2254
 4924TIP3    H136187   6.721   3.017   2.756  0.1820 -0.5540 -0.2379
 4924TIP3    H236188   6.676   2.961   2.623  0.1097  0.1143 -0.5010
 4925TIP3   OH236189   2.017   5.411   5.146  0.3399  0.5079 -0.2398
 4925TIP3    H136190   2.032   5.506   5.143 -1.4628  0.8202  0.0554
 4925TIP3    H236191   1.923   5.401   5.131  0.5157 -1.2457 -0.2832
 4926TIP3   OH236192   4.605   2.929  13.034  0.0919 -0.1220  0.0684
 4926TIP3    H136193   4.701   2.929  13.041 -0.0001 -1.0954  1.3724
 4926TIP3    H236194   4.585   3.014  12.994  1.6550 -0.8722 -2.4925
 4927TIP3   OH236195   5.885   5.850  13.612  0.1639  0.0494  0.0933
 4927TIP3    H136196   5.964   5.815  13.655 -0.6011 -1.7176  0.0989
 4927TIP3    H236197   5.856   5.780  13.554 -0.9904  0.9762 -0.4675
 4928TIP3   OH236198   6.501   1.899   1.371 -0.0778 -0.2042 -0.5055
 4928TIP3    H136199   6.444   1.953   1.317 -0.8702 -0.6946 -0.1758
 4928TIP3    H236200   6.585   1.944   1.371 -0.7763  1.1044 -0.0992
 4929TIP3   OH236201   6.444   4.144   5.243 -0.1969  1.0456  0.0443
 4929TIP3    H136202   6.510   4.079   5.218 -2.0662 -0.7974 -0.1984
 4929TIP3    H236203   6.487   4.228   5.230  2.6119 -0.1351  1.2984
 4930TIP3   OH236204   4.111   0.764  14.360 -0.3752  1.2392  0.3773
 4930TIP3    H136205   4.049   0.718  14.304 -0.4227  2.4827 -0.5977
 4930TIP3    H236206   4.162   0.694  14.402 -1.1824  0.2713 -0.2330
 4931TIP3   OH236207   1.447   3.130   2.531  0.7401  0.1136 -0.5066
 4931TIP3    H136208   1.526   3.082   2.506  0.9612  1.0662 -1.6326
 4931TIP3    H236209   1.384   3.108   2.463  1.0476  1.9450 -1.3923
 4932TIP3   OH236210   0.823   3.201   4.228  0.1799  0.0397 -0.2210
 4932TIP3    H136211   0.848   3.292   4.211 -0.8500  0.6610  1.4138
 4932TIP3    H236212   0.904   3.159   4.256  0.3038  0.9271  0.7994
 4933TIP3   OH236213   3.396   0.686   0.589  0.4202 -0.3436 -0.3104
 4933TIP3    H136214   3.484   0.668   0.624  0.1011 -0.6291  0.3387
 4933TIP3    H236215   3.341   0.618   0.626 -0.2038  0.2044 -0.2350
 4934TIP3   OH236216   1.102   5.648   5.915 -0.5894 -0.3804 -0.3696
 4934TIP3    H136217   1.085   5.727   5.864 -0.9331 -1.2700 -1.6570
 4934TIP3    H236218   1.037   5.649   5.985 -0.1381  0.8313  0.0449
 4935TIP3   OH236219   4.071   3.904   1.099  0.0474  0.0910  0.5415
 4935TIP3    H136220   4.058   3.851   1.177 -2.2320  2.3933  1.7903
 4935TIP3    H236221   4.107   3.987   1.132 -0.1030  0.7567 -0.9274
 4936TIP3   OH236222   2.949   2.218  12.648 -0.6868 -0.3513 -0.3418
 4936TIP3    H136223   3.034   2.189  12.682 -0.8325 -2.2712 -1.5614
 4936TIP3    H236224   2.908   2.139  12.616 -1.8496  0.9591 -2.1829
 4937TIP3   OH236225   1.734   2.986   3.216  0.1569 -0.0963  0.0938
 4937TIP3    H136226   1.823   2.979   3.251 -0.4398  0.8608  1.8943
 4937TIP3    H236227   1.697   2.899   3.227  0.9070 -0.5338 -0.7844
 4938TIP3   OH236228   0.309   1.639  12.438  0.2130 -0.8339 -0.7085
 4938TIP3    H136229   0.277   1.599  12.357 -1.3284 -1.1692  0.0572
 4938TIP3    H236230   0.241   1.703  12.461  0.1312 -1.4676  0.8683
 4939TIP3   OH236231   3.025   5.818   5.715  0.0196  0.3434 -0.1163
 4939TIP3    H136232   3.111   5.854   5.694 -0.1341  0.1841 -1.0373
 4939TIP3    H236233   2.985   5.799   5.630 -1.0525  0.6989  0.2954
 4940TIP3   OH236234   3.520   4.739  12.081  0.2730 -0.3393  0.0874
 4940TIP3    H136235   3.555   4.807  12.024  0.9336 -1.2945 -0.6692
 4940TIP3    H236236   3.547   4.764  12.169 -1.8301  1.8286  0.1596
 4941TIP3   OH236237   0.532   2.150   2.420 -0.0577  0.4026 -0.3580
 4941TIP3    H136238   0.623   2.122   2.435 -0.4520 -0.7711 -0.1098
 4941TIP3    H236239   0.482   2.069   2.421 -1.0261  0.9825 -1.2110
 4942TIP3   OH236240   3.053   5.610   5.474  0.7853  0.1540 -0.3063
 4942TIP3    H136241   2.975   5.665   5.480  1.2768  0.7643  0.6330
 4942TIP3    H236242   3.032   5.532   5.526  0.4208 -0.1443 -0.9006
 4943TIP3   OH236243   5.763   3.533   4.281  0.7990 -0.1903  0.4665
 4943TIP3    H136244   5.796   3.453   4.239  1.2783 -0.2180  0.8947
 4943TIP3    H236245   5.744   3.507   4.371 -3.7362 -1.0862 -0.6404
 4944TIP3   OH236246   5.580   0.566  11.305  0.0383 -0.1353  0.4453
 4944TIP3    H136247   5.643   0.621  11.259  1.3215 -0.9943  1.1077
 4944TIP3    H236248   5.499   0.617  11.307  0.8600  1.2122  0.0136
 4945TIP3   OH236249   5.813   0.253   3.264 -0.8309  0.1575 -0.1088
 4945TIP3    H136250   5.797   0.227   3.174  0.8215  0.3407 -0.4794
 4945TIP3    H236251   5.794   0.175   3.316 -0.6606 -0.3056 -0.7361
 4946TIP3   OH236252   5.233   5.125  15.383  0.1074 -0.5696  0.2925
 4946TIP3    H136253   5.237   5.032  15.361  0.5414 -0.5974  0.4962
 4946TIP3    H236254   5.322   5.149  15.406  0.0219 -0.0691  0.1147
 4947TIP3   OH236255   3.307   1.576   1.968 -0.3850 -0.8691 -0.1050
 4947TIP3    H136256   3.235   1.591   1.907  0.0090  1.2858 -0.0617
 4947TIP3    H236257   3.385   1.575   1.913  0.1283  2.4758  0.4436
 4948TIP3   OH236258   3.608   5.658  13.707 -0.4370  0.3118 -0.5583
 4948TIP3    H136259   3.624   5.623  13.619 -1.5223  0.0481 -0.6651
 4948TIP3    H236260   3.516   5.685  13.705 -0.8905 -1.0393  0.9392
 4949TIP3   OH236261   3.745   2.411   5.497  0.2047  0.3492  0.0622
 4949TIP3    H136262   3.801   2.449   5.565 -1.1805  2.2191  0.1981
 4949TIP3    H236263   3.748   2.317   5.513  1.4148  0.6182  1.5221
 4950TIP3   OH236264   0.004   0.982   0.593 -0.6550  0.0068  0.1243
 4950TIP3    H136265   0.088   1.025   0.574 -0.2783 -0.3273  0.9732
 4950TIP3    H236266  -0.058   1.054   0.603 -0.8108  0.2059 -1.9963
 4951TIP3   OH236267   3.417   3.519   1.825 -0.4673  0.0698 -0.6277
 4951TIP3    H136268   3.507   3.520   1.792 -0.2232  0.0452  0.0282
 4951TIP3    H236269   3.394   3.426   1.829 -0.0431  0.0117  0.4878
 4952TIP3   OH236270   0.717   5.796  15.498 -0.1044 -0.2568  0.3863
 4952TIP3    H136271   0.749   5.727  15.557  1.7746  1.1071  1.0226
 4952TIP3    H236272   0.737   5.877  15.545 -1.2895  0.7529 -0.8472
 4953TIP3   OH236273   2.416   3.461  11.875  0.1749 -0.3848 -0.3868
 4953TIP3    H136274   2.509   3.465  11.899  0.0789 -0.6101  0.0167
 4953TIP3    H236275   2.417   3.437  11.782  0.5245 -0.3036 -0.4045
 4954TIP3   OH236276   6.396   3.362   0.492  0.5692  0.1528 -0.2523
 4954TIP3    H136277   6.489   3.357   0.513  0.7528 -1.0175 -1.2645
 4954TIP3    H236278   6.389   3.437   0.433  0.7020  0.9030  0.6908
 4955TIP3   OH236279   5.647   1.970  12.837 -0.4780 -0.7937  0.3532
 4955TIP3    H136280   5.584   2.028  12.794 -0.9583 -2.0062 -0.6193
 4955TIP3    H236281   5.594   1.898  12.872  0.1385 -0.8066  1.2821
 4956TIP3   OH236282   5.856   5.885  15.398 -0.1256 -0.1940  0.6309
 4956TIP3    H136283   5.809   5.810  15.362 -0.3415 -0.2199  0.9641
 4956TIP3    H236284   5.819   5.897  15.485  0.0312  0.1936  0.6451
 4957TIP3   OH236285   4.627   3.697  14.977  0.0362 -0.2207  0.2480
 4957TIP3    H136286   4.637   3.727  14.887 -0.0406  0.4432  0.4596
 4957TIP3    H236287   4.631   3.601  14.971 -0.8942 -0.2161 -0.5777
 4958TIP3   OH236288   5.609   1.465   2.626  0.2717 -0.0003 -0.6114
 4958TIP3    H136289   5.522   1.490   2.596 -0.5115 -1.8565  0.0435
 4958TIP3    H236290   5.611   1.490   2.719  0.6450  0.5682 -0.7719
 4959TIP3   OH236291   2.429   1.788  16.462 -0.3586  0.1687 -0.2126
 4959TIP3    H136292   2.336   1.793  16.442 -0.9694  1.5317  2.6482
 4959TIP3    H236293   2.472   1.791  16.377 -2.9015  0.7139 -1.5308
 4960TIP3   OH236294   4.295   4.844   1.362  0.0773 -0.2724  0.1049
 4960TIP3    H136295   4.372   4.799   1.397 -1.0534 -1.6957  0.8091
 4960TIP3    H236296   4.292   4.818   1.269 -0.8449 -2.0864  0.6211
 4961TIP3   OH236297   3.150   5.676  11.446 -0.0140  0.3133 -0.4433
 4961TIP3    H136298   3.203   5.630  11.512 -0.3626  0.7228  0.1203
 4961TIP3    H236299   3.177   5.767  11.454  0.3563  0.2788 -1.2617
 4962TIP3   OH236300   6.111   5.507  15.855 -1.1157  0.5518 -0.3806
 4962TIP3    H136301   6.171   5.474  15.922 -1.4531  1.4750  0.4009
 4962TIP3    H236302   6.158   5.498  15.773 -0.2713  0.4082  0.1216
 4963TIP3   OH236303   5.810   2.338  13.848  0.5839  0.0716 -0.2948
 4963TIP3    H136304   5.900   2.341  13.817  0.4403  2.2438 -0.5550
 4963TIP3    H236305   5.811   2.383  13.932 -0.3246  0.4992 -0.4993
 4964TIP3   OH236306   6.319   2.023  11.266  0.3049 -0.0453  0.1666
 4964TIP3    H136307   6.409   1.993  11.279  0.5787  1.1125  1.0652
 4964TIP3    H236308   6.298   1.999  11.176  2.0564  1.0401 -0.5606
 4965TIP3   OH236309   3.386   1.960  15.158  0.1453  0.1279  0.8768
 4965TIP3    H136310   3.350   1.970  15.246 -0.3985  1.5034  0.5134
 4965TIP3    H236311   3.310   1.939  15.103  0.1359  1.3889  0.3908
 4966TIP3   OH236312   2.492   5.750  14.074  0.1252  0.1049 -0.5369
 4966TIP3    H136313   2.415   5.807  14.066  0.0876  0.0382 -0.6525
 4966TIP3    H236314   2.508   5.719  13.985  0.8939  0.9078 -0.6901
 4967TIP3   OH236315   0.842   0.215   5.308 -0.3164  0.1312 -0.3729
 4967TIP3    H136316   0.817   0.124   5.324  0.8229 -0.5923 -2.4907
 4967TIP3    H236317   0.765   0.266   5.335 -0.6707 -1.3809  1.5700
 4968TIP3   OH236318   3.883   3.065  11.196 -0.2618 -0.7061  1.1872
 4968TIP3    H136319   3.917   3.062  11.286 -1.6662  0.7623  1.7835
 4968TIP3    H236320   3.803   3.012  11.199  1.0371 -2.7799  0.1746
 4969TIP3   OH236321   3.432   5.934   0.301 -0.4608 -0.2459 -0.2192
 4969TIP3    H136322   3.389   5.849   0.310 -1.1692 -0.0164 -1.3555
 4969TIP3    H236323   3.470   5.933   0.214  0.8574  0.0080  0.3492
 4970TIP3   OH236324   6.065   0.707  14.939  0.1150  0.0844 -0.3368
 4970TIP3    H136325   5.980   0.691  14.979 -0.2091  2.0951 -0.1976
 4970TIP3    H236326   6.058   0.668  14.851 -0.1137 -1.8543  0.5179
 4971TIP3   OH236327   0.077   3.314  12.352 -0.5976 -0.4229 -0.9234
 4971TIP3    H136328   0.105   3.390  12.301  2.4858 -1.2056 -0.5113
 4971TIP3    H236329   0.087   3.240  12.292  1.6255 -1.1562  0.2813
 4972TIP3   OH236330   1.155   3.120  12.077  0.4621  0.2284 -0.5330
 4972TIP3    H136331   1.194   3.056  12.137 -2.5889 -1.2074 -0.0153
 4972TIP3    H236332   1.201   3.106  11.994 -0.2018 -2.7341 -0.4474
 4973TIP3   OH236333   0.773   3.406   5.970  0.5309 -0.0152 -0.2548
 4973TIP3    H136334   0.785   3.491   6.013  0.5305 -0.9636  1.6396
 4973TIP3    H236335   0.681   3.384   5.986  0.1376  0.2881 -1.9954
 4974TIP3   OH236336   1.879   4.431  15.120  0.8071 -0.0713  0.0524
 4974TIP3    H136337   1.913   4.353  15.164 -1.4845  0.4229  2.8756
 4974TIP3    H236338   1.814   4.398  15.059 -0.5608 -0.3681  1.6433
 4975TIP3   OH236339   5.969   3.450   3.810  0.2788 -0.0857  0.8797
 4975TIP3    H136340   5.900   3.516   3.804 -0.9461 -1.3962  0.1903
 4975TIP3    H236341   5.924   3.367   3.793  2.3772 -0.7649 -1.6795
 4976TIP3   OH236342   2.035   5.611  12.032  0.2178 -0.8680 -0.7918
 4976TIP3    H136343   1.947   5.609  11.996 -0.1683  1.1066  0.0373
 4976TIP3    H236344   2.087   5.656  11.965  0.4050 -1.1811 -0.8579
 4977TIP3   OH236345   1.076   4.864   4.389  0.0708  0.4953  0.5478
 4977TIP3    H136346   1.143   4.917   4.346  1.0070  0.7374  2.2446
 4977TIP3    H236347   1.093   4.774   4.358  2.6388  0.1809  2.6399
 4978TIP3   OH236348   4.356   0.492   5.410 -0.0694 -0.3520 -0.6325
 4978TIP3    H136349   4.338   0.585   5.420 -1.7858 -0.7510  0.2564
 4978TIP3    H236350   4.418   0.472   5.481  0.3563  0.1226 -0.8703
 4979TIP3   OH236351   5.804   5.431   1.326 -0.2111 -0.2212 -0.0018
 4979TIP3    H136352   5.721   5.408   1.285 -0.8753  1.0982  0.5890
 4979TIP3    H236353   5.834   5.509   1.279  0.3895 -0.3286  0.1941
 4980TIP3   OH236354   3.636   4.473   0.616  0.6062  0.5194  0.1325
 4980TIP3    H136355   3.631   4.486   0.710 -0.3649 -0.3614  0.2141
 4980TIP3    H236356   3.642   4.378   0.604 -1.7653  0.4310 -0.7514
 4981TIP3   OH236357   4.435   2.181  13.294  0.2607  0.3360 -0.8338
 4981TIP3    H136358   4.457   2.110  13.234 -1.1982 -1.2089  0.4115
 4981TIP3    H236359   4.349   2.211  13.265  0.1245  0.4515 -0.3226
 4982TIP3   OH236360   0.510   5.590  13.534  0.4011  0.0103  0.0031
 4982TIP3    H136361   0.570   5.643  13.481 -1.4563 -0.9038 -3.1257
 4982TIP3    H236362   0.513   5.630  13.621  3.1415  1.8845 -0.8828
 4983TIP3   OH236363   3.267   0.731   2.470  0.5176 -0.3396 -0.4783
 4983TIP3    H136364   3.171   0.729   2.467  0.5279 -2.7556  0.3220
 4983TIP3    H236365   3.287   0.800   2.533 -0.6973 -0.7372  0.3518
 4984TIP3   OH236366   1.750   2.720  12.728 -0.0694 -0.1912  0.2496
 4984TIP3    H136367   1.832   2.758  12.698 -0.3533 -0.4230 -0.8447
 4984TIP3    H236368   1.725   2.658  12.659 -0.7259 -0.7433  0.9728
 4985TIP3   OH236369   2.891   1.998   2.966 -0.5517  0.6188 -0.4995
 4985TIP3    H136370   2.918   1.909   2.987 -0.3229  0.6639 -0.6064
 4985TIP3    H236371   2.911   2.048   3.045 -0.1246  0.6952 -0.6569
 4986TIP3   OH236372   5.579   4.805   3.301  0.0780 -0.0493  0.9217
 4986TIP3    H136373   5.610   4.871   3.239  1.2553 -1.0077  0.4732
 4986TIP3    H236374   5.506   4.763   3.257  0.3198 -0.0939  0.5593
 4987TIP3   OH236375   3.283   5.210   1.310  0.1817 -0.4054 -0.2203
 4987TIP3    H136376   3.230   5.211   1.390  0.2036 -0.7683 -0.1973
 4987TIP3    H236377   3.371   5.233   1.338  1.0321 -4.1894  0.5088
 4988TIP3   OH236378   6.127   6.717   6.522 -0.0649 -0.4016 -0.0517
 4988TIP3    H136379   6.147   6.628   6.494  0.3409  0.0265 -1.1541
 4988TIP3    H236380   6.213   6.755   6.544  0.1954  0.8937 -3.1356
 4989TIP3   OH236381   0.378   2.254  15.910 -0.5215  0.0571  0.2741
 4989TIP3    H136382   0.383   2.276  15.817 -2.1177 -1.5185 -0.2021
 4989TIP3    H236383   0.455   2.296  15.948  0.6833 -0.0788 -1.9154
 4990TIP3   OH236384   5.727   1.471  16.561 -0.3590  0.1122 -0.1592
 4990TIP3    H136385   5.675   1.399  16.526 -1.3498  0.7737 -0.0977
 4990TIP3    H236386   5.746   1.446  16.651 -1.2181  0.1995  0.0473
 4991TIP3   OH236387   2.934   1.118  11.538  0.2373  0.8407  0.0188
 4991TIP3    H136388   2.942   1.149  11.628 -1.1186 -0.2080  0.5131
 4991TIP3    H236389   3.013   1.066  11.524  0.9757  1.8778  0.2317
 4992TIP3   OH236390   1.876   3.296   1.961 -0.1276  0.4142 -0.2596
 4992TIP3    H136391   1.944   3.345   2.008 -0.9560 -0.8426  2.3232
 4992TIP3    H236392   1.882   3.207   1.996 -1.9369 -0.1514 -1.3247
 4993TIP3   OH236393   0.624   6.533  11.689 -0.2199  0.1588  0.1318
 4993TIP3    H136394   0.705   6.566  11.650  0.4799  0.2541  1.6270
 4993TIP3    H236395   0.589   6.473  11.623 -0.2073  1.9466 -1.5409
 4994TIP3   OH236396   1.091   3.790  14.182 -0.1949 -0.0680  0.1201
 4994TIP3    H136397   1.149   3.806  14.108  1.1999  1.6385  1.5447
 4994TIP3    H236398   1.112   3.701  14.210 -0.8366 -0.7756 -1.5950
 4995TIP3   OH236399   0.101   2.405  13.167  0.8114  0.0554 -0.4182
 4995TIP3    H136400   0.103   2.349  13.245 -0.3166  1.0620  0.3388
 4995TIP3    H236401   0.176   2.463  13.177  0.5107  0.3594  0.0376
 4996TIP3   OH236402   4.110   0.652  12.051 -0.4720 -0.0197 -0.6287
 4996TIP3    H136403   4.183   0.622  12.105 -0.3303  1.5497  0.0796
 4996TIP3    H236404   4.033   0.639  12.107 -0.5649 -0.2496 -0.8091
 4997TIP3   OH236405   5.902   1.331  15.287  0.1201 -0.0822 -0.2647
 4997TIP3    H136406   5.807   1.346  15.286 -0.0089 -0.8007  1.0384
 4997TIP3    H236407   5.940   1.419  15.296 -0.4997 -0.0090  1.9242
 4998TIP3   OH236408   1.936   2.813  16.735  0.3743  0.6203 -0.2383
 4998TIP3    H136409   1.975   2.729  16.761 -1.2146 -0.4431 -1.2073
 4998TIP3    H236410   2.003   2.854  16.680  1.7461  0.6565  1.4135
 4999TIP3   OH236411   5.954   4.755   6.291 -0.3135 -0.1116  0.2858
 4999TIP3    H136412   5.982   4.836   6.250 -1.1757 -0.7402 -1.6024
 4999TIP3    H236413   6.030   4.726   6.342  0.1654  1.5991  0.5655
 5000TIP3   OH236414   1.725   5.152  14.249 -0.0635  0.1533 -0.2985
 5000TIP3    H136415   1.696   5.163  14.158 -1.3737 -1.1405 -0.0570
 5000TIP3    H236416   1.666   5.208  14.300  0.5890  0.7790 -0.2320
 5001TIP3   OH236417   3.723   2.574  14.385 -0.4516  0.0411  0.1754
 5001TIP3    H136418   3.727   2.606  14.475  1.8410 -1.2452  0.5564
 5001TIP3    H236419   3.756   2.647  14.332 -0.8019  0.4171  0.4705
 5002TIP3   OH236420   3.461   2.372  15.482 -0.2824  0.3679  0.1035
 5002TIP3    H136421   3.489   2.282  15.468 -1.5380  0.1554 -1.1916
 5002TIP3    H236422   3.420   2.372  15.569  2.1875  0.3292  1.3068
 5003TIP3   OH236423   0.168   2.876   2.661 -0.0336  0.5096  0.1433
 5003TIP3    H136424   0.126   2.805   2.709  0.9643 -0.6413 -0.6439
 5003TIP3    H236425   0.108   2.950   2.670 -0.9727 -0.3572  1.1802
 5004TIP3   OH236426   2.009   5.650  12.837 -0.0094  0.1174  0.4430
 5004TIP3    H136427   1.920   5.618  12.821 -0.7062  0.4268  3.5110
 5004TIP3    H236428   2.038   5.603  12.915  1.9829  1.1033  0.3259
 5005TIP3   OH236429   3.372   0.254  14.117 -0.0862 -0.6663 -0.3385
 5005TIP3    H136430   3.367   0.337  14.069 -0.9844 -0.2446  0.4704
 5005TIP3    H236431   3.352   0.187  14.051 -1.3654 -0.0861 -0.5638
 5006TIP3   OH236432   0.971   1.106   2.738 -0.1075  0.0709 -0.4136
 5006TIP3    H136433   0.943   1.102   2.646 -0.1394 -1.5850 -0.3529
 5006TIP3    H236434   1.015   1.022   2.753 -0.9550 -0.0910  1.3485
 5007TIP3   OH236435   2.827   0.253  14.968 -0.4404  0.2976  0.0298
 5007TIP3    H136436   2.816   0.216  15.055 -0.3669 -0.5156 -0.2998
 5007TIP3    H236437   2.921   0.255  14.954 -0.4849 -1.0263 -0.6257
 5008TIP3   OH236438   3.410   0.154  16.204 -0.3821 -0.0987 -0.6256
 5008TIP3    H136439   3.325   0.158  16.248  0.5983  1.7231  1.1930
 5008TIP3    H236440   3.473   0.152  16.275  1.2148  1.7503 -1.9445
 5009TIP3   OH236441   6.165   4.602  12.302 -0.7799 -0.0856 -0.2911
 5009TIP3    H136442   6.136   4.537  12.239  0.7378 -0.5421 -0.5378
 5009TIP3    H236443   6.096   4.669  12.301 -1.2556 -0.5796 -1.6824
 5010TIP3   OH236444   6.429   4.397  11.000  0.3212  0.1362 -0.5268
 5010TIP3    H136445   6.470   4.344  11.069  0.0062  0.2187 -0.2767
 5010TIP3    H236446   6.359   4.444  11.045 -0.1571 -0.1306 -0.9859
 5011TIP3   OH236447   1.915   3.664  14.215  0.6158  0.6960  0.4059
 5011TIP3    H136448   1.888   3.744  14.260  0.3329  0.3497  0.8552
 5011TIP3    H236449   1.990   3.691  14.162  0.2815  1.3446  0.2521
 5012TIP3   OH236450   2.685   5.234  16.775  0.1183 -0.2631 -0.4097
 5012TIP3    H136451   2.626   5.308  16.792  0.6817 -0.1025  0.9336
 5012TIP3    H236452   2.770   5.275  16.758  0.3330 -0.5795 -0.0983
 5013TIP3   OH236453   2.964   3.156  10.749  0.8403  0.5014  0.8473
 5013TIP3    H136454   2.894   3.216  10.722  0.2493 -0.3068  0.5678
 5013TIP3    H236455   2.931   3.116  10.829  0.3054 -1.0471 -0.1361
 5014TIP3   OH236456   1.288   5.600   0.099 -0.3651 -0.5578 -0.0365
 5014TIP3    H136457   1.360   5.593   0.036  1.2645 -0.2015  1.7274
 5014TIP3    H236458   1.225   5.658   0.057  1.2791  0.7065 -0.8154
 5015TIP3   OH236459   1.322   2.543  10.625  0.7246 -0.2536 -0.3516
 5015TIP3    H136460   1.242   2.595  10.617 -0.0313 -1.5044 -1.1781
 5015TIP3    H236461   1.386   2.587  10.570 -0.5452 -1.3862 -2.8172
 5016TIP3   OH236462   6.091   1.652   5.278 -0.2577 -0.7375 -0.0428
 5016TIP3    H136463   6.015   1.676   5.332 -0.3448 -0.8268 -0.1267
 5016TIP3    H236464   6.097   1.557   5.287  1.2998 -0.4965  1.9086
 5017TIP3   OH236465   0.725   1.867  11.282 -0.2001 -0.2150 -0.3009
 5017TIP3    H136466   0.775   1.788  11.300  0.9119  0.2202 -1.3675
 5017TIP3    H236467   0.649   1.836  11.233 -0.1719 -0.7120 -0.0323
 5018TIP3   OH236468   3.317   1.626   3.767 -0.8001 -0.4667  0.1327
 5018TIP3    H136469   3.297   1.714   3.800  1.8351  0.5929 -0.9248
 5018TIP3    H236470   3.385   1.593   3.826  0.2582 -0.6250 -1.1457
 5019TIP3   OH236471   1.917   0.635   4.483  0.4253  0.0601 -0.7006
 5019TIP3    H136472   1.866   0.710   4.454  2.0590  1.3539 -0.2792
 5019TIP3    H236473   1.946   0.593   4.402  1.0931  0.9864 -0.9519
 5020TIP3   OH236474   4.269   4.900   4.158 -0.3231 -0.1924 -0.3048
 5020TIP3    H136475   4.259   4.823   4.215  1.2996 -1.6929 -1.9993
 5020TIP3    H236476   4.192   4.897   4.101  0.5526 -1.5146 -1.4459
 5021TIP3   OH236477   5.415   4.310  11.259 -0.3670 -0.3356  0.1665
 5021TIP3    H136478   5.449   4.398  11.240  2.1342 -0.8234  2.1957
 5021TIP3    H236479   5.414   4.266  11.174 -0.2134  1.1643 -0.6339
 5022TIP3   OH236480   6.475   4.882  16.984  0.2432  0.0222 -0.6595
 5022TIP3    H136481   6.406   4.916  16.927 -1.3386 -0.3409  1.0039
 5022TIP3    H236482   6.434   4.810  17.032  1.2363  0.9689  1.6919
 5023TIP3   OH236483   5.689   1.812   4.952 -0.4355 -0.2194 -0.5611
 5023TIP3    H136484   5.677   1.741   5.016 -0.6745 -0.9344 -1.3745
 5023TIP3    H236485   5.774   1.794   4.913 -0.5826 -0.1721 -0.9035
 5024TIP3   OH236486   4.994   0.826   4.390 -0.3724 -0.1346 -0.1696
 5024TIP3    H136487   4.986   0.878   4.470  0.1914  0.2458 -0.3653
 5024TIP3    H236488   5.016   0.738   4.421  2.1553  0.5188 -0.0046
 5025TIP3   OH236489   4.052   6.402   6.012  0.3114  0.3358  0.1053
 5025TIP3    H136490   4.089   6.330   6.063  0.4533 -0.7879 -1.5418
 5025TIP3    H236491   3.961   6.408   6.041  0.2748 -0.5746  0.1726
 5026TIP3   OH236492   5.130   2.450  16.736 -0.4565  0.2977 -0.2804
 5026TIP3    H136493   5.197   2.437  16.669 -0.1253  0.6742 -0.0244
 5026TIP3    H236494   5.064   2.383  16.717  0.6307 -0.9619  0.2804
 5027TIP3   OH236495   3.745   5.851  11.859  0.1419  0.7501  0.2783
 5027TIP3    H136496   3.738   5.931  11.807  1.6810  0.3374 -0.6184
 5027TIP3    H236497   3.655   5.821  11.871 -0.2007  0.3443 -2.9956
 5028TIP3   OH236498   4.164   2.781   5.505  0.5993  0.3897 -0.5198
 5028TIP3    H136499   4.183   2.753   5.416  0.7851  1.2704 -0.7628
 5028TIP3    H236500   4.076   2.749   5.522  1.1514 -1.1552 -0.4473
 5029TIP3   OH236501   0.153   6.531   3.957 -0.1295  0.4976  0.2801
 5029TIP3    H136502   0.224   6.521   4.020  0.6150  0.1141 -0.6121
 5029TIP3    H236503   0.183   6.598   3.896  0.2777 -0.9615 -1.1787
 5030TIP3   OH236504   6.237   5.088  13.600 -0.6059  0.0045 -0.0691
 5030TIP3    H136505   6.175   5.161  13.594  1.0206  1.4099 -0.1273
 5030TIP3    H236506   6.197   5.027  13.662 -2.6036  0.3293 -1.0237
 5031TIP3   OH236507   2.986   4.352   4.554  0.2846 -0.6816 -0.5405
 5031TIP3    H136508   2.986   4.271   4.605 -1.2954  0.4531  1.3608
 5031TIP3    H236509   3.035   4.414   4.608 -1.0464  0.4308 -0.5852
 5032TIP3   OH236510   0.079   5.509  14.460  0.7143  0.2793 -0.6033
 5032TIP3    H136511   0.010   5.497  14.525  2.6148 -1.3012  1.2202
 5032TIP3    H236512   0.055   5.589  14.413 -2.6594 -0.6232 -0.4840
 5033TIP3   OH236513   0.187   2.159  11.591  0.1174  0.1346  0.1473
 5033TIP3    H136514   0.279   2.157  11.616  0.3121  2.3967 -0.2888
 5033TIP3    H236515   0.188   2.164  11.496 -0.4577  0.6413  0.1689
 5034TIP3   OH236516   2.679   0.260  10.936 -0.6068 -0.5744 -0.1574
 5034TIP3    H136517   2.648   0.240  11.024 -0.2043 -1.3477 -0.1935
 5034TIP3    H236518   2.708   0.176  10.900  0.9298  0.0299 -0.3704
 5035TIP3   OH236519   3.052   5.642  15.868 -0.0573  0.3603 -0.1409
 5035TIP3    H136520   3.007   5.686  15.796 -0.0485  1.5384  0.5642
 5035TIP3    H236521   3.099   5.569  15.826 -1.1254  0.2279 -1.1287
 5036TIP3   OH236522   4.334   3.885  12.467  0.5731 -0.5518  0.6105
 5036TIP3    H136523   4.298   3.973  12.466  1.8252 -0.0521 -0.7768
 5036TIP3    H236524   4.316   3.849  12.380  1.3791 -1.1252  0.6678
 5037TIP3   OH236525   2.185   6.267   5.321 -0.4360 -0.3679  0.0670
 5037TIP3    H136526   2.192   6.266   5.416 -0.1665  1.1268  0.0767
 5037TIP3    H236527   2.215   6.354   5.296  0.9973 -1.2926 -1.5065
 5038TIP3   OH236528   1.640   3.303  12.167 -0.9813  0.3716 -0.7020
 5038TIP3    H136529   1.609   3.302  12.076 -1.4344  1.0256 -0.5542
 5038TIP3    H236530   1.734   3.315  12.160 -0.8908 -0.4993 -1.1138
 5039TIP3   OH236531   0.450   0.214   5.016  0.1798  0.4571  0.2561
 5039TIP3    H136532   0.423   0.295   5.059  1.4204  1.2407 -0.4140
 5039TIP3    H236533   0.475   0.156   5.088  1.6555  1.5403  0.6495
 5040TIP3   OH236534   0.119   1.085   3.539  0.3244  0.6900 -0.1720
 5040TIP3    H136535   0.206   1.055   3.566 -0.4623 -0.5948  1.0258
 5040TIP3    H236536   0.109   1.051   3.450 -0.6117 -2.8974  1.2187
 5041TIP3   OH236537   6.378   0.317  11.631 -0.0445 -0.4027 -0.3461
 5041TIP3    H136538   6.426   0.319  11.549 -2.8274 -1.2262 -2.0521
 5041TIP3    H236539   6.445   0.307  11.698  2.2053 -0.5966 -2.5734
 5042TIP3   OH236540   0.022   6.038   0.591  0.4523 -0.5686  0.1498
 5042TIP3    H136541  -0.054   6.055   0.647  1.2124  2.0901  0.4235
 5042TIP3    H236542  -0.006   5.966   0.535 -1.8037 -0.5120  1.1347
 5043TIP3   OH236543   5.107   5.833  13.752 -0.6084 -0.3545 -0.1146
 5043TIP3    H136544   5.100   5.761  13.815 -0.6893  0.4686  0.8402
 5043TIP3    H236545   5.026   5.830  13.702 -0.6571 -0.8572 -0.0019
 5044TIP3   OH236546   1.791   0.844  11.152 -0.2992 -0.2992 -0.1777
 5044TIP3    H136547   1.826   0.797  11.227 -1.1938 -2.1525 -0.8998
 5044TIP3    H236548   1.696   0.842  11.164 -0.4407 -0.4129 -1.2244
 5045TIP3   OH236549   5.442   0.456  16.987 -0.3566 -0.0272 -0.4682
 5045TIP3    H136550   5.441   0.546  17.020  0.9043  0.1996 -1.0469
 5045TIP3    H236551   5.466   0.464  16.895  1.5144 -1.0663 -0.1052
 5046TIP3   OH236552   1.318   2.229   3.044 -0.5849 -0.2417 -0.3719
 5046TIP3    H136553   1.265   2.243   3.123  1.6983  0.8279  1.0164
 5046TIP3    H236554   1.357   2.143   3.056  0.9936  0.5796  0.4023
 5047TIP3   OH236555   2.296   4.100  10.495 -0.7446  0.1464 -0.5646
 5047TIP3    H136556   2.272   4.037  10.563 -0.3518 -0.3117 -0.8464
 5047TIP3    H236557   2.256   4.064  10.415  0.4342 -0.3510 -0.9424
 5048TIP3   OH236558   2.211   5.665  16.269 -0.0994  0.5588  0.6941
 5048TIP3    H136559   2.278   5.726  16.238  0.3514 -0.5192 -0.5142
 5048TIP3    H236560   2.134   5.719  16.283  0.2141  1.3768 -0.6256
 5049TIP3   OH236561   2.193   2.542   0.297  0.2062  0.0134  0.2937
 5049TIP3    H136562   2.266   2.560   0.357  0.1727 -0.0380  0.3498
 5049TIP3    H236563   2.227   2.475   0.238  1.5118  2.6163 -2.0590
 5050TIP3   OH236564   4.527   5.306   4.082  0.8200 -0.5066 -0.3768
 5050TIP3    H136565   4.521   5.378   4.019  0.7387  1.5940  1.9920
 5050TIP3    H236566   4.455   5.247   4.057 -2.1992  2.6459  0.6170
 5051TIP3   OH236567   2.148   3.929   5.683 -0.1064  0.0080  0.1732
 5051TIP3    H136568   2.243   3.936   5.685 -0.2632  2.0250  1.3456
 5051TIP3    H236569   2.128   3.861   5.747  0.5478 -0.7606 -0.4174
 5052TIP3   OH236570   1.012   5.660   2.583 -0.4281  0.0376  0.2114
 5052TIP3    H136571   0.956   5.737   2.573 -0.1377  0.1595 -0.4307
 5052TIP3    H236572   1.012   5.643   2.678 -1.6029  0.0014  0.2100
 5053TIP3   OH236573   6.346   0.827   3.814  0.2805 -0.1084  0.4321
 5053TIP3    H136574   6.293   0.750   3.833 -0.1891  0.4209  1.2527
 5053TIP3    H236575   6.390   0.848   3.896 -0.1560  0.9263  0.4189
 5054TIP3   OH236576   5.870   4.874   1.182  0.0246 -0.2378  0.4652
 5054TIP3    H136577   5.842   4.821   1.107  0.3237 -1.0099  0.8890
 5054TIP3    H236578   5.789   4.904   1.222 -0.1339  1.7272 -1.2320
 5055TIP3   OH236579   5.328   1.519  14.394 -0.2565  1.0788 -0.2394
 5055TIP3    H136580   5.298   1.430  14.410  0.0699  0.4983 -2.6451
 5055TIP3    H236581   5.258   1.575  14.427 -1.2753 -0.1210 -0.3424
 5056TIP3   OH236582   4.354   5.181   6.088  0.0623  0.1627 -0.5963
 5056TIP3    H136583   4.428   5.236   6.065  1.6237 -2.0636 -1.0843
 5056TIP3    H236584   4.316   5.222   6.166  0.2610  2.7083 -1.8140
 5057TIP3   OH236585   2.125   2.399   6.472 -0.1873 -0.7511  0.3946
 5057TIP3    H136586   2.052   2.368   6.418  1.0348 -1.5731 -0.8215
 5057TIP3    H236587   2.099   2.487   6.499 -1.0723 -0.5436 -1.0773
 5058TIP3   OH236588   5.655   3.646  15.160 -0.0397  0.0680  0.1927
 5058TIP3    H136589   5.562   3.656  15.182 -0.6782 -1.9705 -1.4642
 5058TIP3    H236590   5.689   3.587  15.226 -0.8535 -2.2596 -1.4095
 5059TIP3   OH236591   5.888   2.884  16.575  0.3092  0.0212 -0.4489
 5059TIP3    H136592   5.891   2.971  16.613 -0.7660 -0.3440  0.5210
 5059TIP3    H236593   5.972   2.874  16.530  1.6008  0.4981  1.7612
 5060TIP3   OH236594   1.535   3.658   3.342  0.0190 -0.5248  0.1376
 5060TIP3    H136595   1.525   3.688   3.433  1.3236 -1.0044  0.4474
 5060TIP3    H236596   1.629   3.657   3.327 -0.2206  0.5556 -1.5874
 5061TIP3   OH236597   2.199   5.117   2.700  0.1748 -0.1272 -0.4086
 5061TIP3    H136598   2.195   5.025   2.673  1.7275 -0.6368  1.0024
 5061TIP3    H236599   2.115   5.133   2.744  0.0254 -0.9692 -0.3787
 5062TIP3   OH236600   4.577   4.465  13.503 -0.1087  0.3673 -0.0975
 5062TIP3    H136601   4.615   4.553  13.502  0.8898 -0.0632 -0.6582
 5062TIP3    H236602   4.483   4.480  13.515 -0.0209  1.5343 -0.7547
 5063TIP3   OH236603   4.933   0.723  15.025 -0.1580 -0.1300 -0.2017
 5063TIP3    H136604   4.903   0.780  15.096  1.3177  0.6128 -0.1712
 5063TIP3    H236605   4.853   0.703  14.976 -1.2528 -0.8746  1.8046
 5064TIP3   OH236606   5.992   6.408  11.967  0.0120 -0.4550 -0.2572
 5064TIP3    H136607   6.008   6.453  11.884  0.1440 -0.0686 -0.0235
 5064TIP3    H236608   5.931   6.464  12.015  0.7695 -0.1356  0.3495
 5065TIP3   OH236609   3.183   1.205   3.357  0.5857  0.2032 -0.0963
 5065TIP3    H136610   3.150   1.176   3.442  2.3431  0.6793  0.7711
 5065TIP3    H236611   3.139   1.148   3.294 -1.8117  0.7634  0.9971
 5066TIP3   OH236612   5.341   3.507  15.494  0.1982 -0.0660  0.3345
 5066TIP3    H136613   5.274   3.504  15.563 -0.4847 -0.4098 -0.3286
 5066TIP3    H236614   5.423   3.520  15.541 -0.2806 -0.0804  1.1990
 5067TIP3   OH236615   0.003   6.606  17.207 -0.3224  0.0573 -0.3142
 5067TIP3    H136616  -0.014   6.588  17.299 -0.8312  0.4522 -0.3298
 5067TIP3    H236617   0.095   6.633  17.205 -0.6511  1.2629  0.2588
 5068TIP3   OH236618   2.929   3.112  17.110  0.6513  0.7275 -0.0591
 5068TIP3    H136619   2.868   3.108  17.184  1.2375  1.6393  0.4812
 5068TIP3    H236620   2.875   3.090  17.034  0.5771 -2.6341  0.9098
 5069TIP3   OH236621   0.095   1.786   2.928 -0.4110  0.1274 -0.0063
 5069TIP3    H136622   0.067   1.876   2.912 -0.0657  0.2491  0.0525
 5069TIP3    H236623   0.177   1.778   2.880  1.1869  0.8288  2.4788
 5070TIP3   OH236624   5.275   6.173   3.479 -0.6614 -0.4150 -0.1667
 5070TIP3    H136625   5.245   6.207   3.563  1.2990 -0.0828  0.4109
 5070TIP3    H236626   5.276   6.249   3.421  1.2265  0.0363  0.4310
 5071TIP3   OH236627   2.646   0.810  12.140 -0.7385 -0.1815 -1.0250
 5071TIP3    H136628   2.567   0.766  12.171  0.9836 -2.7310 -0.0053
 5071TIP3    H236629   2.653   0.786  12.048 -0.9430 -0.2914 -1.0105
 5072TIP3   OH236630   3.675   6.695  13.317 -0.5339 -0.1031  0.0901
 5072TIP3    H136631   3.757   6.653  13.293  0.1038  0.8613  0.5485
 5072TIP3    H236632   3.619   6.623  13.346  0.0009 -0.8151 -0.6255
 5073TIP3   OH236633   5.681   4.023   2.871  0.0429 -0.0485  0.0105
 5073TIP3    H136634   5.689   4.033   2.966  0.1566 -0.2923  0.0240
 5073TIP3    H236635   5.725   4.101   2.836 -0.0912  0.0970  0.1578
 5074TIP3   OH236636   3.543   4.853   0.246 -0.4804  0.1533 -0.2944
 5074TIP3    H136637   3.610   4.791   0.219  1.3386  2.0052 -0.2160
 5074TIP3    H236638   3.464   4.801   0.257  0.4781 -1.7838 -2.2533
 5075TIP3   OH236639   4.247   3.443  12.305  0.7917 -0.1565 -0.2435
 5075TIP3    H136640   4.227   3.376  12.370  2.0134 -1.7173 -1.4537
 5075TIP3    H236641   4.316   3.496  12.345  0.6630 -0.3485  0.2321
 5076TIP3   OH236642   3.748   5.487  16.269  0.2016 -0.6179  0.1105
 5076TIP3    H136643   3.701   5.451  16.344  2.0705 -2.7288  0.3366
 5076TIP3    H236644   3.687   5.478  16.196 -1.2747  0.5690  1.1745
 5077TIP3   OH236645   3.981   5.741   0.106  0.5267  0.2991  0.2824
 5077TIP3    H136646   4.055   5.717   0.051  1.8657  1.7630  1.3777
 5077TIP3    H236647   3.907   5.691   0.071  1.6178  0.2357 -2.0086
 5078TIP3   OH236648   4.939   0.069  15.862  0.0873  0.3770 -0.4995
 5078TIP3    H136649   4.862   0.047  15.808 -0.4702  2.8889 -0.7879
 5078TIP3    H236650   4.906   0.068  15.952 -0.5285  2.3052 -0.6822
 5079TIP3   OH236651   4.191   5.408  13.752 -0.1389 -0.5440 -0.0144
 5079TIP3    H136652   4.154   5.370  13.831 -0.0313 -1.4606 -0.4035
 5079TIP3    H236653   4.119   5.405  13.688  0.0461 -0.6272 -0.2187
 5080TIP3   OH236654   0.507   4.405   4.241  0.0974  0.5405 -0.4548
 5080TIP3    H136655   0.546   4.428   4.325  1.6682 -0.1995 -0.9651
 5080TIP3    H236656   0.455   4.327   4.258 -0.8699  1.2928  0.1379
 5081TIP3   OH236657   3.748   6.498  14.814  0.0291 -0.3133  0.3748
 5081TIP3    H136658   3.731   6.564  14.881 -2.8721  0.0398 -0.6558
 5081TIP3    H236659   3.760   6.547  14.733 -1.3488 -0.9513 -0.2437
 5082TIP3   OH236660   4.340   5.744   4.773  0.2633  0.2197  0.3665
 5082TIP3    H136661   4.302   5.787   4.849 -0.4196  0.7662 -0.2746
 5082TIP3    H236662   4.270   5.745   4.707  0.9751  0.1189 -0.3994
 5083TIP3   OH236663   1.088   2.790   0.321 -0.1827 -0.1813  0.2268
 5083TIP3    H136664   1.162   2.791   0.260 -1.0582 -2.0262 -0.9180
 5083TIP3    H236665   1.117   2.843   0.395  2.5978 -1.5055  0.1421
 5084TIP3   OH236666   3.341   1.854  13.031 -0.1155  0.7591 -0.2527
 5084TIP3    H136667   3.285   1.777  13.028  1.3374 -0.3656  0.4863
 5084TIP3    H236668   3.300   1.913  13.094  0.9891 -1.2600  2.4454
 5085TIP3   OH236669   2.683   5.272   0.027 -0.4156 -0.2297 -0.0624
 5085TIP3    H136670   2.697   5.278  -0.067 -0.1362 -1.0133 -0.0734
 5085TIP3    H236671   2.753   5.215   0.059 -0.6147 -0.1209  0.5891
 5086TIP3   OH236672   4.537   1.261  17.054 -0.1226  0.0495  0.1002
 5086TIP3    H136673   4.560   1.210  17.131  0.9786  0.6366  0.1762
 5086TIP3    H236674   4.441   1.263  17.053 -0.1730 -2.1455 -0.0191
 5087TIP3   OH236675   4.385   3.310   5.738 -0.1107 -0.5256 -0.2645
 5087TIP3    H136676   4.308   3.263   5.772  0.1082  0.0769  1.1053
 5087TIP3    H236677   4.452   3.243   5.730 -0.6893 -1.0091 -1.2189
 5088TIP3   OH236678   2.315   5.512  13.650 -0.0061  0.4516  0.0349
 5088TIP3    H136679   2.353   5.506  13.562  0.7959  1.5245  0.2905
 5088TIP3    H236680   2.356   5.589  13.688  0.1281 -0.3622  1.5855
 5089TIP3   OH236681   5.333   1.063   1.552 -0.1535 -0.3263 -0.0083
 5089TIP3    H136682   5.290   1.104   1.477 -1.7415 -0.9781  0.5395
 5089TIP3    H236683   5.370   0.982   1.517 -0.0324 -0.1423 -0.3092
 5090TIP3   OH236684   0.784   1.646  16.383 -0.0866 -0.0852 -0.4164
 5090TIP3    H136685   0.806   1.556  16.405  1.3161  0.5319  0.7032
 5090TIP3    H236686   0.729   1.676  16.455 -1.6029 -0.4185 -1.3960
 5091TIP3   OH236687   1.218   6.774  15.245 -0.6696 -0.0976  0.5711
 5091TIP3    H136688   1.268   6.855  15.230  1.6166 -1.6234 -0.3094
 5091TIP3    H236689   1.210   6.768  15.340  1.1113  0.0343  0.7415
 5092TIP3   OH236690   4.760   5.932  13.899 -0.6505  0.0534 -0.5326
 5092TIP3    H136691   4.675   5.974  13.912 -0.0275  0.9506  0.7196
 5092TIP3    H236692   4.802   5.985  13.831 -1.3077 -0.7409 -1.5769
 5093TIP3   OH236693   1.578   0.249   1.511 -0.0374 -0.0288  0.6026
 5093TIP3    H136694   1.565   0.251   1.606  0.8357  1.4512  0.7059
 5093TIP3    H236695   1.500   0.292   1.475  0.4093  0.8964  0.7393
 5094TIP3   OH236696   0.172   3.888   4.790  0.2606  0.1548 -0.0004
 5094TIP3    H136697   0.091   3.877   4.741  1.1508  0.1412 -1.5026
 5094TIP3    H236698   0.196   3.800   4.819  0.6417 -0.0884 -1.0401
 5095TIP3   OH236699   4.118   0.264   5.447  0.3923  0.0223 -0.1854
 5095TIP3    H136700   4.059   0.239   5.376 -1.5976  1.7146  0.7859
 5095TIP3    H236701   4.199   0.218   5.429 -0.5470 -0.7116 -2.7513
 5096TIP3   OH236702   6.691   5.216  14.964 -0.0054 -0.0998 -0.6938
 5096TIP3    H136703   6.656   5.133  14.931  0.4876  0.8154 -3.7282
 5096TIP3    H236704   6.786   5.208  14.952 -0.0671  1.4101 -2.3148
 5097TIP3   OH236705   5.903   0.050  13.668  0.4711  0.2294  0.0058
 5097TIP3    H136706   5.928  -0.026  13.720  2.4935  0.9784  0.1806
 5097TIP3    H236707   5.823   0.023  13.622  1.5281 -2.2264 -0.4380
 5098TIP3   OH236708   6.010   3.101   5.371 -0.2907 -0.5835 -0.5905
 5098TIP3    H136709   5.988   3.066   5.457 -0.3193  0.5640 -0.1158
 5098TIP3    H236710   5.996   3.028   5.311 -0.9034 -1.2102  0.2927
 5099TIP3   OH236711   5.129   3.838  15.389 -0.6094  0.8578  0.5085
 5099TIP3    H136712   5.064   3.908  15.397  0.2772  1.3855  3.9460
 5099TIP3    H236713   5.085   3.760  15.423 -0.1054  0.7870  1.0110
 5100TIP3   OH236714   4.069   6.475  16.601 -0.0860  0.2598  0.2490
 5100TIP3    H136715   4.026   6.558  16.620 -1.2231 -0.1388 -0.5293
 5100TIP3    H236716   4.149   6.500  16.553 -0.5826  0.8878 -0.2592
 5101TIP3   OH236717   2.766   1.335  17.236 -0.4004  0.3592 -0.1844
 5101TIP3    H136718   2.699   1.314  17.300  0.9748  0.9480  1.5003
 5101TIP3    H236719   2.735   1.416  17.194 -0.7729  0.6029  0.5592
 5102TIP3   OH236720   0.846   4.214  12.360 -0.1298 -0.2466  0.6557
 5102TIP3    H136721   0.913   4.163  12.406  1.6165 -0.0614 -1.5888
 5102TIP3    H236722   0.887   4.239  12.278 -1.6966  2.9971  0.7764
 5103TIP3   OH236723   6.691   2.529   2.530 -0.0061  0.0108  0.4511
 5103TIP3    H136724   6.668   2.537   2.622  2.6887 -1.2319  1.2985
 5103TIP3    H236725   6.727   2.441   2.522  2.1384  0.9669 -1.1940
 5104TIP3   OH236726   6.572   6.590  16.963 -0.3062 -0.2491 -0.1192
 5104TIP3    H136727   6.499   6.587  16.901 -2.1921  0.2110  2.0004
 5104TIP3    H236728   6.553   6.520  17.025  0.6485  0.3977  0.9125
 5105TIP3   OH236729   1.778   1.284   3.668  0.1593 -0.0183  0.3531
 5105TIP3    H136730   1.779   1.199   3.624  1.5299  0.0687  0.1817
 5105TIP3    H236731   1.695   1.324   3.642 -0.2147 -1.0448 -0.0583
 5106TIP3   OH236732   4.524   4.361   4.266 -0.2312  0.1119  0.3876
 5106TIP3    H136733   4.524   4.341   4.359  0.4015  1.5147  0.6944
 5106TIP3    H236734   4.610   4.332   4.235  1.7451  4.5393  1.3511
 5107TIP3   OH236735   5.265   5.836   0.417 -0.9239  0.3325  0.3621
 5107TIP3    H136736   5.257   5.869   0.506 -1.3817 -1.9569  1.2029
 5107TIP3    H236737   5.175   5.823   0.388 -0.7440 -0.2747  0.0784
 5108TIP3   OH236738   4.723   1.186  16.865 -0.2222  0.7807 -0.1826
 5108TIP3    H136739   4.742   1.271  16.826  0.1744  1.6096  1.7594
 5108TIP3    H236740   4.657   1.204  16.932  0.2548 -0.3393  0.6061
 5109TIP3   OH236741   4.172   4.807  13.682 -0.0609  0.5711  0.7949
 5109TIP3    H136742   4.190   4.718  13.714 -0.1822  0.0336 -0.5995
 5109TIP3    H236743   4.090   4.831  13.726 -0.8468 -0.6098  0.0124
 5110TIP3   OH236744   6.248   4.340  11.542 -0.3360  0.1122 -0.1472
 5110TIP3    H136745   6.234   4.247  11.523 -0.1960  0.2780 -1.1169
 5110TIP3    H236746   6.325   4.363  11.491 -0.4488  0.7937 -0.0097
 5111TIP3   OH236747   1.477   2.361  12.135  0.4554 -0.7812 -0.0041
 5111TIP3    H136748   1.498   2.449  12.106  1.3290 -0.2224  2.2836
 5111TIP3    H236749   1.554   2.332  12.184 -0.2161 -2.4486  0.1137
 5112TIP3   OH236750   0.340   2.183   0.065 -0.3414  0.7510  0.1857
 5112TIP3    H136751   0.411   2.163   0.004 -0.6758  0.7106 -0.1863
 5112TIP3    H236752   0.275   2.229   0.012 -1.1915 -0.3924  0.2465
 5113TIP3   OH236753   6.457   2.248  13.260 -0.0973  0.7457  0.0355
 5113TIP3    H136754   6.447   2.259  13.355 -0.7332  0.9212 -0.0486
 5113TIP3    H236755   6.406   2.170  13.240 -1.2220  1.5810 -0.3865
 5114TIP3   OH236756   6.035   5.030   3.422 -0.4242  0.0836 -0.0919
 5114TIP3    H136757   5.968   5.048   3.487  1.0195  0.3615  1.3367
 5114TIP3    H236758   6.079   4.951   3.454 -0.7168 -0.6907 -1.5455
 5115TIP3   OH236759   6.161   1.258   3.539  0.1931 -0.3624  0.1324
 5115TIP3    H136760   6.228   1.316   3.503 -0.6976  0.8609  0.4237
 5115TIP3    H236761   6.173   1.175   3.492  0.5021  0.5113 -1.3713
 5116TIP3   OH236762   0.908   2.389  13.458  0.5771 -0.3425  0.2128
 5116TIP3    H136763   0.872   2.351  13.538 -0.5279  0.4069  0.0898
 5116TIP3    H236764   0.987   2.436  13.487 -0.4915  0.9742  1.0871
 5117TIP3   OH236765   1.970   5.397   4.064 -0.0286 -0.0794  0.1902
 5117TIP3    H136766   1.905   5.355   4.008  0.0398 -0.6891  0.5631
 5117TIP3    H236767   2.049   5.401   4.009 -0.0878 -0.2668  0.0899
 5118TIP3   OH236768   1.469   0.287  12.943  0.1318  0.0449  0.1167
 5118TIP3    H136769   1.412   0.329  12.878  0.3168  1.6463  0.9516
 5118TIP3    H236770   1.536   0.353  12.962  0.4181 -0.6322  1.4958
 5119TIP3   OH236771   1.383   5.132  14.799 -0.1881  0.2750 -0.3826
 5119TIP3    H136772   1.436   5.175  14.732 -1.2507 -0.1346 -1.5198
 5119TIP3    H236773   1.301   5.181  14.800 -0.9871 -1.0164 -0.9036
 5120TIP3   OH236774   5.050   2.751  15.451 -0.3315 -0.4736  0.3702
 5120TIP3    H136775   4.957   2.733  15.437  0.0728 -3.9593  1.7690
 5120TIP3    H236776   5.091   2.732  15.367 -0.8897  1.4914 -0.3801
 5121TIP3   OH236777   5.213   1.065   3.208 -0.0133 -0.5140  0.5113
 5121TIP3    H136778   5.158   0.991   3.233  0.0079 -0.5039  0.5875
 5121TIP3    H236779   5.222   1.057   3.113  1.2380 -1.4702  0.6996
 5122TIP3   OH236780   2.058   0.100  11.267  0.2210 -0.3030  0.4021
 5122TIP3    H136781   2.058   0.026  11.205  1.2466 -1.8508  2.2200
 5122TIP3    H236782   2.133   0.153  11.240  0.3903 -0.7235  0.0202
 5123TIP3   OH236783   3.208   2.136  12.733 -0.4836 -0.2757 -0.3349
 5123TIP3    H136784   3.282   2.122  12.674 -1.9345 -3.0212 -1.5608
 5123TIP3    H236785   3.189   2.050  12.770 -1.6491  0.8036  1.7175
 5124TIP3   OH236786   5.749   1.253   3.256  0.0977 -0.1137 -0.8043
 5124TIP3    H136787   5.801   1.177   3.229  0.4960 -0.9020  1.9771
 5124TIP3    H236788   5.813   1.324   3.264  0.4424 -0.5520  0.5547
 5125TIP3   OH236789   2.642   1.224  11.313 -0.1905 -0.0030  0.7289
 5125TIP3    H136790   2.658   1.223  11.219 -1.7680 -2.4159  0.4635
 5125TIP3    H236791   2.589   1.303  11.328  0.2820  0.5223 -0.3375
 5126TIP3   OH236792   6.392   3.352   2.326 -0.0937 -0.1303 -0.5875
 5126TIP3    H136793   6.450   3.345   2.402 -1.0960  0.7221  0.2868
 5126TIP3    H236794   6.374   3.262   2.300 -0.4354 -0.4650  0.7509
 5127TIP3   OH236795   2.882   5.858   5.470  0.1265  0.0237  0.5069
 5127TIP3    H136796   2.789   5.840   5.476  0.2066 -0.6258 -0.1262
 5127TIP3    H236797   2.888   5.947   5.437 -0.2664  0.1316  0.7260
 5128TIP3   OH236798   4.361   0.560   4.442 -0.1036  0.3636 -0.2329
 5128TIP3    H136799   4.437   0.511   4.411  0.2868  1.9225 -1.8565
 5128TIP3    H236800   4.336   0.615   4.367 -2.3553  0.4330  0.5252
 5129TIP3   OH236801   4.266   4.876   3.205 -0.5836  0.1473 -0.6146
 5129TIP3    H136802   4.295   4.954   3.253  2.6596 -1.3669  0.0009
 5129TIP3    H236803   4.265   4.904   3.113 -0.8296  1.2913 -0.2797
 5130TIP3   OH236804   1.234   3.127   2.753  0.2184  0.3202 -0.3646
 5130TIP3    H136805   1.208   3.219   2.755 -1.3038 -0.0221 -2.4185
 5130TIP3    H236806   1.289   3.119   2.675  1.0757 -0.3363  0.2973
 5131TIP3   OH236807   0.797   0.297  13.561  0.2192 -0.0496  0.0218
 5131TIP3    H136808   0.740   0.259  13.627  0.0517 -1.0319 -0.6839
 5131TIP3    H236809   0.786   0.392  13.571 -0.6547 -0.2180  0.6396
 5132TIP3   OH236810   0.111   4.208  11.381 -0.4461  0.2156  0.0986
 5132TIP3    H136811   0.063   4.126  11.393 -0.5275  0.4178  1.2377
 5132TIP3    H236812   0.115   4.220  11.287  0.6847 -1.7598 -0.1243
 5133TIP3   OH236813   1.079   0.362   2.555 -0.1352 -0.3271  0.1338
 5133TIP3    H136814   1.161   0.355   2.506  0.0726  0.6304  0.3261
 5133TIP3    H236815   1.106   0.389   2.643 -0.4227 -3.1690  1.1253
 5134TIP3   OH236816   6.593   6.079   1.532 -0.0108  0.3835 -0.4914
 5134TIP3    H136817   6.658   6.095   1.600 -0.1687 -0.4383 -0.1485
 5134TIP3    H236818   6.565   6.167   1.505  2.0642  0.7745 -1.4424
 5135TIP3   OH236819   4.527   2.141   1.042 -0.4498 -0.7269 -0.3252
 5135TIP3    H136820   4.488   2.063   1.004  0.1786 -0.2747 -1.9670
 5135TIP3    H236821   4.453   2.192   1.074 -0.8970 -1.7647  0.3067
 5136TIP3   OH236822   5.043   3.732   3.495 -0.4692  0.0643  0.8270
 5136TIP3    H136823   5.021   3.788   3.569 -1.4987 -0.2501  0.7611
 5136TIP3    H236824   4.991   3.767   3.422  0.8291  0.6228  0.1378
 5137TIP3   OH236825   5.247   3.340   0.435 -0.0685 -0.1269  0.1496
 5137TIP3    H136826   5.324   3.391   0.459 -0.6047  1.0155 -0.5047
 5137TIP3    H236827   5.205   3.392   0.366 -0.7475 -1.3484 -0.3687
 5138TIP3   OH236828   5.582   1.830   1.843  0.3382  0.2554  0.3089
 5138TIP3    H136829   5.675   1.831   1.818  0.5638 -1.8244  1.0094
 5138TIP3    H236830   5.548   1.913   1.809  2.1936  0.5451 -0.9410
 5139TIP3   OH236831   5.144   3.871   4.452  0.4219 -0.4462 -0.5861
 5139TIP3    H136832   5.150   3.803   4.519  1.0592  1.4814  1.4164
 5139TIP3    H236833   5.233   3.905   4.445 -0.4683  2.4122  0.9445
 5140TIP3   OH236834   3.499   4.142   3.169 -0.2400 -0.3434  0.3751
 5140TIP3    H136835   3.498   4.203   3.095 -0.2449 -1.9549 -0.9837
 5140TIP3    H236836   3.574   4.085   3.153  0.0598 -0.3992  1.8901
 5141TIP3   OH236837   1.514   5.680   3.810  0.2442  0.1155  0.3917
 5141TIP3    H136838   1.438   5.622   3.802  0.5350  0.0653 -2.4716
 5141TIP3    H236839   1.476   5.767   3.818 -0.1446  0.0807 -0.9202
 5142TIP3   OH236840   0.356   3.975  13.926 -0.6111  0.4935  0.0076
 5142TIP3    H136841   0.295   4.011  13.989 -1.7431 -1.3781  0.0193
 5142TIP3    H236842   0.330   4.013  13.842 -0.0170  1.8598  0.4379
 5143TIP3   OH236843   6.312   4.427  12.734 -0.0006  0.1730  0.1066
 5143TIP3    H136844   6.280   4.446  12.645 -0.7941 -0.2032  0.3032
 5143TIP3    H236845   6.260   4.351  12.762  0.0521  0.4610  0.9978
 5144TIP3   OH236846   0.859   0.586   3.201  0.4156 -0.0275 -0.2631
 5144TIP3    H136847   0.929   0.647   3.224 -0.7801  1.2768  0.0160
 5144TIP3    H236848   0.896   0.499   3.216  1.3812  0.6837  1.5802
 5145TIP3   OH236849   3.001   3.994  15.014 -0.2476 -0.2982  0.4302
 5145TIP3    H136850   3.094   3.972  15.010 -1.1132 -4.4119  0.6442
 5145TIP3    H236851   2.975   4.006  14.922 -0.1136 -2.1658  0.1282
 5146TIP3   OH236852   5.661   1.067  17.204 -0.3717  0.3244 -0.1994
 5146TIP3    H136853   5.647   1.098  17.293 -1.3809 -0.2221 -0.1637
 5146TIP3    H236854   5.755   1.079  17.189 -0.3490  1.2342  0.6188
 5147TIP3   OH236855   1.006   0.624  13.001  0.0301  0.7320 -0.5250
 5147TIP3    H136856   0.940   0.683  12.963  0.6971  0.5080 -2.0689
 5147TIP3    H236857   1.054   0.590  12.925  0.0583 -1.3211  0.3984
 5148TIP3   OH236858   0.740   2.578  15.217  0.4740 -0.2660  0.2016
 5148TIP3    H136859   0.752   2.490  15.183 -1.6298  0.2204 -1.9676
 5148TIP3    H236860   0.804   2.631  15.170 -0.5676 -0.0861 -1.0684
 5149TIP3   OH236861   2.115   3.188   3.249 -0.5871 -0.3029  0.3847
 5149TIP3    H136862   2.097   3.126   3.319  0.6756  0.3396  1.2883
 5149TIP3    H236863   2.046   3.254   3.258 -1.1786 -0.8894  0.2122
 5150TIP3   OH236864   2.023   1.621   2.657  0.3231  0.3863  0.7421
 5150TIP3    H136865   2.030   1.527   2.668  0.1593  0.3673  0.6800
 5150TIP3    H236866   1.963   1.650   2.726 -1.0468  0.2097 -0.3575
 5151TIP3   OH236867   2.076   0.694  11.911  0.5516 -0.3258  0.1833
 5151TIP3    H136868   2.170   0.677  11.909  0.4826 -0.6426 -0.3799
 5151TIP3    H236869   2.042   0.636  11.979  0.2209 -2.9564 -2.1477
 5152TIP3   OH236870   3.745   2.199   4.273  0.0001 -0.0240  0.0452
 5152TIP3    H136871   3.748   2.281   4.223  1.4268  0.1334  0.3455
 5152TIP3    H236872   3.652   2.184   4.289 -0.3571  0.9171 -1.0280
 5153TIP3   OH236873   1.785   4.468  14.027 -0.1693 -0.3180 -0.4580
 5153TIP3    H136874   1.743   4.526  13.964  0.4872  0.4714 -0.1738
 5153TIP3    H236875   1.767   4.380  13.993 -2.0395 -0.0063 -0.3280
 5154TIP3   OH236876   5.885   6.565   6.284 -0.4998 -0.0668  0.1800
 5154TIP3    H136877   5.814   6.514   6.322  1.5493 -2.1697  1.2814
 5154TIP3    H236878   5.893   6.642   6.341 -2.3942  0.6166 -0.4365
 5155TIP3   OH236879   5.326   3.246  10.806  0.9128  0.6269  0.0505
 5155TIP3    H136880   5.411   3.206  10.792 -0.0515 -0.6823 -2.3874
 5155TIP3    H236881   5.341   3.313  10.873  3.3631 -1.0754  1.2344
 5156TIP3   OH236882   4.072   0.241  15.314  0.3177 -0.4573 -0.4602
 5156TIP3    H136883   4.165   0.261  15.323  0.3445 -0.9816  0.4908
 5156TIP3    H236884   4.028   0.304  15.372  0.1907 -1.1868  0.2444
 5157TIP3   OH236885   0.090   1.418  13.540  0.8923  0.4780  0.1110
 5157TIP3    H136886   0.020   1.439  13.602 -0.4882 -1.8232 -0.6050
 5157TIP3    H236887   0.139   1.348  13.583  0.2900 -0.7052 -1.1033
 5158TIP3   OH236888   4.494   0.257  11.007  0.0159 -0.0558 -0.6563
 5158TIP3    H136889   4.543   0.264  10.925 -1.7134  0.5199 -1.6658
 5158TIP3    H236890   4.489   0.346  11.040 -1.6035  0.1202 -1.3309
 5159TIP3   OH236891   1.051   5.572  15.543 -0.3572  0.1480 -0.0743
 5159TIP3    H136892   1.064   5.477  15.545 -0.2690  0.1816  1.4072
 5159TIP3    H236893   0.985   5.588  15.611 -1.0674  1.0379 -0.9694
 5160TIP3   OH236894   5.696   5.971   2.382 -0.5257 -0.9161  0.0013
 5160TIP3    H136895   5.680   6.038   2.315  1.4302 -0.9896 -0.5576
 5160TIP3    H236896   5.665   5.890   2.342 -0.2975 -0.8003 -0.4173
 5161TIP3   OH236897   6.509   3.217   4.561  0.5399  0.8591 -0.2048
 5161TIP3    H136898   6.480   3.131   4.592  1.0326  0.1912 -1.5696
 5161TIP3    H236899   6.432   3.252   4.515  0.3442  1.1526  0.3376
 5162TIP3   OH236900   0.796   1.282  16.123  0.4741  0.1987 -0.2955
 5162TIP3    H136901   0.785   1.192  16.153 -2.8840  0.4103 -0.7868
 5162TIP3    H236902   0.834   1.274  16.035 -0.1705 -0.7338 -0.4885
 5163TIP3   OH236903   5.681   1.344   4.275  0.6013  0.1679  0.2360
 5163TIP3    H136904   5.614   1.380   4.216 -0.9553 -0.6866  1.4334
 5163TIP3    H236905   5.744   1.415   4.287  0.2900  0.7555 -1.4714
 5164TIP3   OH236906   6.362   1.060  13.409 -0.2358 -0.1790  0.5427
 5164TIP3    H136907   6.399   1.139  13.448 -0.1271  0.5375 -0.9439
 5164TIP3    H236908   6.267   1.070  13.420 -0.4571  1.6552 -2.2148
 5165TIP3   OH236909   4.844   4.545  14.946  0.6169 -0.3171 -0.2029
 5165TIP3    H136910   4.928   4.589  14.957  0.3047 -0.0127  1.0938
 5165TIP3    H236911   4.802   4.590  14.873  2.2065 -1.4797 -1.8783
 5166TIP3   OH236912   0.720   2.398   3.828  0.4167  0.2215 -0.0833
 5166TIP3    H136913   0.640   2.346   3.838  1.4329 -1.3924 -0.1590
 5166TIP3    H236914   0.694   2.487   3.851 -1.6382 -0.0991 -1.0766
 5167TIP3   OH236915   1.244   1.538   2.071 -0.7571 -0.7613  0.0045
 5167TIP3    H136916   1.281   1.625   2.085  0.2074 -1.3617  1.4154
 5167TIP3    H236917   1.163   1.538   2.122 -1.3231 -0.3296 -0.8930
 5168TIP3   OH236918   5.285   1.256   0.804  0.6902  0.5194 -0.3996
 5168TIP3    H136919   5.274   1.188   0.870 -1.2611  0.0406 -1.2012
 5168TIP3    H236920   5.334   1.214   0.734 -0.4907 -0.0723 -0.8822
 5169TIP3   OH236921   3.992   4.627   1.957 -0.3977 -0.2788  0.0659
 5169TIP3    H136922   4.068   4.656   1.908 -0.5640 -0.3093 -0.2082
 5169TIP3    H236923   3.944   4.707   1.977 -0.2544 -0.2513  0.3086
 5170TIP3   OH236924   0.324   3.205   4.703 -0.1998 -0.0703 -0.8720
 5170TIP3    H136925   0.262   3.182   4.772 -1.7513  1.1807 -1.7982
 5170TIP3    H236926   0.282   3.174   4.623  0.7977 -0.0168 -1.4201
 5171TIP3   OH236927   4.781   2.208  15.977  0.3161  0.3148  0.0459
 5171TIP3    H136928   4.703   2.169  15.937 -0.9789  1.2444  1.6154
 5171TIP3    H236929   4.828   2.133  16.015  0.0370 -0.2102 -0.6355
 5172TIP3   OH236930   6.354   6.252   2.694  0.6040 -0.0607 -0.1554
 5172TIP3    H136931   6.427   6.199   2.662  0.2457  0.5292 -2.0290
 5172TIP3    H236932   6.327   6.303   2.618  0.2747  2.0675  1.3637
 5173TIP3   OH236933   1.357   1.863   1.032  0.4747  0.2328 -0.1444
 5173TIP3    H136934   1.328   1.791   0.976 -0.2965  1.2734 -1.1145
 5173TIP3    H236935   1.378   1.934   0.970  1.8142  0.6405  0.7534
 5174TIP3   OH236936   4.239   3.612   4.990 -0.2585  0.1216 -0.1704
 5174TIP3    H136937   4.203   3.598   5.077 -0.1920 -1.0651 -0.3294
 5174TIP3    H236938   4.226   3.705   4.973 -1.6568  0.0537  0.4922
 5175TIP3   OH236939   0.713   6.688  11.301 -0.4991  0.0682 -0.1335
 5175TIP3    H136940   0.793   6.722  11.260  0.0373 -0.1608  0.6898
 5175TIP3    H236941   0.743   6.654  11.386 -1.2994 -0.9576 -0.2513
 5176TIP3   OH236942   0.080   5.081  16.796  0.4309  1.0663 -0.0390
 5176TIP3    H136943   0.147   5.014  16.811  1.1229  1.1220 -2.5513
 5176TIP3    H236944   0.130   5.161  16.777 -0.3801  2.1501  2.2098
 5177TIP3   OH236945   5.972   1.503   3.275  0.0712 -0.4849 -0.6842
 5177TIP3    H136946   5.964   1.526   3.368  1.2134 -1.4525 -0.3204
 5177TIP3    H236947   5.900   1.548   3.232  1.1267  2.1700  0.2656
 5178TIP3   OH236948   3.373   6.591  12.511 -0.0140  0.0144  0.1746
 5178TIP3    H136949   3.416   6.581  12.596  1.6945  0.3675 -0.6209
 5178TIP3    H236950   3.404   6.517  12.460 -0.8052 -0.0297 -0.2425
 5179TIP3   OH236951   4.497   1.193  15.653  0.4336 -0.3864 -0.1890
 5179TIP3    H136952   4.544   1.147  15.583 -1.4809 -0.5718 -1.3830
 5179TIP3    H236953   4.405   1.184  15.630 -0.1280  1.3737  1.2472
 5180TIP3   OH236954   4.695   5.850   3.033  0.7165 -0.1278  0.2080
 5180TIP3    H136955   4.646   5.826   2.955  0.2064 -0.1714  0.5357
 5180TIP3    H236956   4.653   5.800   3.104  1.6385 -0.6568  0.3924
 5181TIP3   OH236957   6.583   0.545   1.152 -0.9988 -0.5558  0.1756
 5181TIP3    H136958   6.602   0.562   1.244 -1.4324  0.2351  0.1184
 5181TIP3    H236959   6.515   0.478   1.155 -2.7753  1.2106  0.4893
 5182TIP3   OH236960   4.690   2.301   5.841  0.7757 -0.3085 -0.1690
 5182TIP3    H136961   4.642   2.235   5.792 -0.7583  1.4220 -1.0670
 5182TIP3    H236962   4.765   2.323   5.786  0.2245  0.0804 -0.7766
 5183TIP3   OH236963   5.431   3.161   5.360 -0.7878  0.0612 -0.9742
 5183TIP3    H136964   5.408   3.251   5.337 -0.9569  0.4606  0.6574
 5183TIP3    H236965   5.484   3.130   5.287 -0.2898  1.6746 -1.3262
 5184TIP3   OH236966   2.414   2.558   5.395  0.1265  0.1269 -0.7737
 5184TIP3    H136967   2.394   2.493   5.463  1.1688  2.6200  2.0506
 5184TIP3    H236968   2.438   2.506   5.318 -1.0769 -2.8081  0.7430
 5185TIP3   OH236969   2.082   6.359   4.374  0.5791  0.7096 -0.0622
 5185TIP3    H136970   2.147   6.300   4.413  1.4360  1.5387 -0.2227
 5185TIP3    H236971   1.997   6.324   4.402  1.0468 -1.1366 -0.9228
 5186TIP3   OH236972   2.626   5.896  14.842 -0.1325  0.5197  0.2530
 5186TIP3    H136973   2.618   5.925  14.752  0.5932  0.4395  0.1572
 5186TIP3    H236974   2.606   5.973  14.895  1.6959  1.1853  0.0048
 5187TIP3   OH236975   4.282   0.811   1.178  0.1713 -0.2945  0.8056
 5187TIP3    H136976   4.205   0.755   1.178 -0.0168 -0.0354  0.3275
 5187TIP3    H236977   4.284   0.851   1.091  1.1334 -0.6895  0.6386
 5188TIP3   OH236978   1.838   3.921  15.202 -0.7631  0.0008  0.2341
 5188TIP3    H136979   1.790   3.924  15.119 -0.6531  1.1544  0.2100
 5188TIP3    H236980   1.776   3.883  15.264 -1.2485  0.2468 -0.1011
 5189TIP3   OH236981   2.752   4.017  16.255 -0.1283  0.0613  0.4680
 5189TIP3    H136982   2.810   3.957  16.210 -0.5987  0.0709 -0.1583
 5189TIP3    H236983   2.674   3.965  16.276  0.4432 -0.1760  2.0502
 5190TIP3   OH236984   5.856   4.462  13.699 -0.4016 -0.2135  0.3083
 5190TIP3    H136985   5.912   4.503  13.633 -0.3741 -0.0262  0.4484
 5190TIP3    H236986   5.882   4.503  13.781 -2.0472  1.2183  0.1197
 5191TIP3   OH236987   5.393   4.737   5.229  0.1226 -0.0738 -0.2694
 5191TIP3    H136988   5.396   4.730   5.133 -3.0763 -1.7946 -0.3088
 5191TIP3    H236989   5.463   4.680   5.259  0.3085 -0.5611 -1.5765
 5192TIP3   OH236990   3.645   2.728   2.190 -0.1355  0.3431  0.0932
 5192TIP3    H136991   3.685   2.791   2.251  0.8876  0.2527 -0.4728
 5192TIP3    H236992   3.692   2.646   2.207 -0.6841  0.0171  0.0274
 5193TIP3   OH236993   2.684   2.176   4.204 -0.6436 -0.5768 -0.1795
 5193TIP3    H136994   2.602   2.174   4.254 -0.1846 -1.4444  0.5310
 5193TIP3    H236995   2.705   2.084   4.188 -0.8694 -0.3055 -2.1020
 5194TIP3   OH236996   4.527   2.058   3.860  0.2780  0.2506  0.4090
 5194TIP3    H136997   4.593   2.015   3.914 -0.9343  0.0934  1.7947
 5194TIP3    H236998   4.465   1.989   3.837  0.1516  0.5644 -0.2171
 5195TIP3   OH236999   2.073   6.149  13.785 -0.6748 -0.4943 -0.2377
 5195TIP3    H137000   2.109   6.169  13.699 -1.2883  0.8930 -0.1954
 5195TIP3    H237001   2.002   6.087  13.768  0.9358 -2.3328 -0.4345
 5196TIP3   OH237002   2.608   5.967   4.620  0.4859 -0.0870  0.3174
 5196TIP3    H137003   2.530   5.913   4.606  0.8090 -0.5863  0.4152
 5196TIP3    H237004   2.579   6.038   4.676  0.4216 -1.0321  1.4928
 5197TIP3   OH237005   0.148   1.703   6.125  0.0725 -0.6606 -0.1714
 5197TIP3    H137006   0.074   1.709   6.186 -2.9136 -2.6676 -3.3567
 5197TIP3    H237007   0.129   1.770   6.059  2.2868  0.2733  0.1254
 5198TIP3   OH237008   4.077   1.053   1.087  0.3181 -0.0814  0.2044
 5198TIP3    H137009   4.030   1.030   1.167  0.7065 -3.2379 -0.4139
 5198TIP3    H237010   4.166   1.075   1.117  0.3471 -0.8356  0.6947
 5199TIP3   OH237011   6.096   2.004   1.800  0.2514 -0.6425 -0.2467
 5199TIP3    H137012   6.071   2.029   1.711 -1.3947 -0.7571  0.1762
 5199TIP3    H237013   6.015   1.972   1.840  0.5109  1.3206  1.9574
 5200TIP3   OH237014   5.880   5.289  16.478 -0.6273 -0.2109 -0.3326
 5200TIP3    H137015   5.935   5.344  16.423 -2.3523  1.0592 -0.8400
 5200TIP3    H237016   5.895   5.321  16.567  1.7122 -1.8783 -0.0803
 5201TIP3   OH237017   2.998   3.564   3.749  0.0602 -0.2057 -0.0364
 5201TIP3    H137018   2.903   3.555   3.745 -0.1774  1.9501  0.1962
 5201TIP3    H237019   3.013   3.619   3.826  1.3845  0.8198 -1.0086
 5202TIP3   OH237020   1.183   4.991  16.548 -0.9165  0.1214 -0.0856
 5202TIP3    H137021   1.272   5.009  16.579 -0.9973  1.0294 -0.3597
 5202TIP3    H237022   1.182   5.027  16.459 -1.7070  0.5535  0.0984
 5203TIP3   OH237023   1.897   3.429  16.959 -0.4895  0.1335 -0.0401
 5203TIP3    H137024   1.890   3.525  16.958 -1.1533  0.0823 -0.2399
 5203TIP3    H237025   1.812   3.399  16.991 -0.6991 -0.4393 -1.1131
 5204TIP3   OH237026   3.744   3.092  15.616 -0.4550  0.4617  0.6917
 5204TIP3    H137027   3.727   3.016  15.560 -1.2668  1.0509  0.1309
 5204TIP3    H237028   3.772   3.161  15.555 -1.6098  1.1872  0.9748
 5205TIP3   OH237029   4.450   2.511   2.490  0.0563  0.4543 -0.0174
 5205TIP3    H137030   4.409   2.596   2.476  2.1615  1.7216  1.3285
 5205TIP3    H237031   4.461   2.505   2.585  1.2714 -0.6605 -0.2133
 5206TIP3   OH237032   3.230   5.823   4.862  0.0898  0.0938  0.3909
 5206TIP3    H137033   3.240   5.757   4.930  0.4515 -1.0496 -0.7695
 5206TIP3    H237034   3.227   5.774   4.780 -0.6541  1.4300 -0.4116
 5207TIP3   OH237035   3.741   3.455   4.404 -0.5953  0.6694 -0.2708
 5207TIP3    H137036   3.690   3.375   4.421 -0.3885  0.9796  1.9836
 5207TIP3    H237037   3.766   3.486   4.491  0.8491  2.2176 -1.2166
 5208TIP3   OH237038   5.677   4.411   3.314  0.2458  0.2069  0.8093
 5208TIP3    H137039   5.670   4.467   3.391  0.0454  1.1456  0.1172
 5208TIP3    H237040   5.587   4.399   3.284  0.3091 -0.2827  0.7992
 5209TIP3   OH237041   0.011   2.920   2.101  0.4735  0.6074 -0.1695
 5209TIP3    H137042   0.092   2.938   2.149  0.4157  0.6925 -0.1036
 5209TIP3    H237043  -0.028   3.006   2.087  0.0940  0.5184  0.3185
 5210TIP3   OH237044   0.094   3.339  14.490 -0.1926 -0.3513 -0.4566
 5210TIP3    H137045   0.126   3.406  14.550  0.9726 -0.5567 -0.8253
 5210TIP3    H237046   0.014   3.306  14.531  1.0838 -1.1460  1.4940
 5211TIP3   OH237047   1.147   2.685  11.810  0.1391 -0.0673  0.1327
 5211TIP3    H137048   1.114   2.609  11.858 -1.2105 -0.2809 -1.0975
 5211TIP3    H237049   1.122   2.761  11.863 -0.4150 -0.3601  0.2909
 5212TIP3   OH237050   1.107   6.404   3.534  0.2381  0.5293  0.0274
 5212TIP3    H137051   1.158   6.387   3.613  0.4094  1.8883  0.2256
 5212TIP3    H237052   1.020   6.370   3.554  0.4268  0.3731  0.5961
 5213TIP3   OH237053   4.260   2.354  14.049 -0.2643 -0.4484 -0.4155
 5213TIP3    H137054   4.286   2.267  14.078 -1.1579 -0.9689 -1.1951
 5213TIP3    H237055   4.329   2.380  13.988 -0.1527 -0.7281 -0.4082
 5214TIP3   OH237056   2.085   1.667   5.217 -0.1998 -0.3559 -0.1497
 5214TIP3    H137057   2.121   1.753   5.238 -1.5771  0.4408 -0.9783
 5214TIP3    H237058   2.117   1.610   5.287  1.4775  0.6257 -0.0947
 5215TIP3   OH237059   3.063   0.867  13.886  0.6357  0.4106  0.2887
 5215TIP3    H137060   3.030   0.804  13.822  1.6583  0.9159 -0.7457
 5215TIP3    H237061   3.105   0.813  13.953  1.7809 -0.0191 -0.7503
 5216TIP3   OH237062   6.329   6.399  13.033  0.1652  0.2575  0.5082
 5216TIP3    H137063   6.299   6.472  13.086  0.9669  1.4473 -0.6263
 5216TIP3    H237064   6.424   6.408  13.031  0.2090 -0.2773 -0.3846
 5217TIP3   OH237065   5.093   4.892  13.843  0.1421 -0.9130  0.1926
 5217TIP3    H137066   5.093   4.845  13.927  2.4994 -0.7711  0.3255
 5217TIP3    H237067   5.118   4.826  13.778  3.1281 -0.0154  0.3327
 5218TIP3   OH237068   2.139   2.023   1.044  0.5027 -0.3613  0.0465
 5218TIP3    H137069   2.193   2.063   0.976 -0.4791  0.6045 -0.1766
 5218TIP3    H237070   2.049   2.040   1.017  0.0905 -0.9535  1.0077
 5219TIP3   OH237071   6.442   6.001   1.918  0.9477  0.5327 -0.5802
 5219TIP3    H137072   6.375   5.985   1.851 -0.6802 -0.8894  1.3543
 5219TIP3    H237073   6.411   6.079   1.964  0.1187 -0.6527  0.9043
 5220TIP3   OH237074   6.191   0.394  10.969 -0.3509  0.1960  0.0870
 5220TIP3    H137075   6.159   0.343  10.895  1.3776 -0.8556  0.0494
 5220TIP3    H237076   6.215   0.328  11.034  3.5442  0.8387 -0.6148
 5221TIP3   OH237077   3.121   3.853   3.735 -0.3415  0.4620 -0.3158
 5221TIP3    H137078   3.204   3.823   3.698 -0.3787 -1.1699  0.8855
 5221TIP3    H237079   3.143   3.885   3.822 -0.9953 -0.0613  0.0463
 5222TIP3   OH237080   0.989   3.634   6.068  0.3978  0.1307 -0.1694
 5222TIP3    H137081   1.045   3.594   6.002  1.3197  2.0766 -0.6100
 5222TIP3    H237082   1.048   3.691   6.118 -0.1816 -1.7055  2.6957
 5223TIP3   OH237083   2.509   3.214  16.487  0.5219 -0.8597  0.6777
 5223TIP3    H137084   2.573   3.183  16.423 -0.5454 -1.9166  0.1055
 5223TIP3    H237085   2.550   3.196  16.572  0.4664 -2.7071  0.3372
 5224TIP3   OH237086   0.701   5.269  12.704  0.0034 -0.1797  0.0886
 5224TIP3    H137087   0.714   5.275  12.609  0.4361 -3.2397 -0.1152
 5224TIP3    H237088   0.615   5.228  12.714  0.8386 -1.8131  0.9202
 5225TIP3   OH237089   6.412   3.586   0.352 -0.1032 -0.6852  0.0780
 5225TIP3    H137090   6.370   3.608   0.268 -1.1981  0.1940  0.8334
 5225TIP3    H237091   6.481   3.652   0.363  0.8165 -1.5124 -0.6828
 5226TIP3   OH237092   5.392   2.860  16.926  0.1224  0.2459  0.2737
 5226TIP3    H137093   5.415   2.768  16.912 -0.4881 -0.0877  1.4714
 5226TIP3    H237094   5.348   2.862  17.010 -0.9445  1.4607 -0.2948
 5227TIP3   OH237095   0.953   0.055   3.871 -0.3995  0.1623  0.5548
 5227TIP3    H137096   0.873   0.063   3.922 -1.4435  1.6968 -1.2514
 5227TIP3    H237097   1.019   0.103   3.921 -0.3977 -1.7378  2.4156
 5228TIP3   OH237098   2.516   4.538   1.659  0.1147  0.1595  0.0673
 5228TIP3    H137099   2.499   4.447   1.635 -2.2762  1.0261 -1.7751
 5228TIP3    H237100   2.431   4.570   1.690  0.6995  1.9907 -0.1819
 5229TIP3   OH237101   1.017   0.094  12.610  0.0588  0.3591 -0.2775
 5229TIP3    H137102   1.049   0.090  12.701  0.5465  2.5003 -0.3265
 5229TIP3    H237103   0.963   0.172  12.608  2.3130  1.9070 -2.5363
 5230TIP3   OH237104   0.289   6.584  15.120 -0.0184 -0.3550  0.0834
 5230TIP3    H137105   0.268   6.497  15.155 -0.3135 -0.0956  0.5522
 5230TIP3    H237106   0.345   6.625  15.186 -3.3343  1.4388  1.9159
 5231TIP3   OH237107   1.396   6.577  11.749  0.4768  0.0613  0.3792
 5231TIP3    H137108   1.436   6.495  11.779  0.1464  0.0391  0.7800
 5231TIP3    H237109   1.467   6.640  11.749  0.9766 -0.4903 -1.0167
 5232TIP3   OH237110   5.584   3.213   4.436  0.4373 -0.1562 -0.4539
 5232TIP3    H137111   5.514   3.255   4.386  1.2918  1.1796 -0.5727
 5232TIP3    H237112   5.599   3.130   4.391  1.9274  1.4744 -3.1588
 5233TIP3   OH237113   5.507   2.078   1.761 -0.1486  0.3979 -0.0808
 5233TIP3    H137114   5.495   2.126   1.680  0.7977 -0.2114 -0.5993
 5233TIP3    H237115   5.448   2.120   1.824 -0.2825  1.3875 -0.8619
 5234TIP3   OH237116   4.410   1.911   0.906  0.6757  0.3833 -0.3528
 5234TIP3    H137117   4.465   1.866   0.970  1.0143  0.8530 -0.3126
 5234TIP3    H237118   4.322   1.877   0.921  0.9296 -0.2734 -0.3252
 5235TIP3   OH237119   5.703   4.194   1.382  0.2272 -0.6017 -0.1167
 5235TIP3    H137120   5.731   4.104   1.369  1.2900 -0.3929  0.6447
 5235TIP3    H237121   5.760   4.245   1.324  0.6953 -0.2772  0.6236
 5236TIP3   OH237122   3.195   6.221  17.118 -0.5208  0.5109 -1.1507
 5236TIP3    H137123   3.185   6.267  17.202 -1.9128  1.4861 -1.8230
 5236TIP3    H237124   3.289   6.211  17.107 -0.2835  1.2101  0.0858
 5237TIP3   OH237125   1.119   2.614  14.964 -0.2435  0.2676  0.4533
 5237TIP3    H137126   1.186   2.682  14.979 -0.4600  0.4546  0.5906
 5237TIP3    H237127   1.042   2.663  14.935 -0.2070  0.0149 -0.0629
 5238TIP3   OH237128   6.406   0.794  13.882 -0.7185 -0.1701  0.0259
 5238TIP3    H137129   6.320   0.778  13.841 -1.2095 -1.9290  1.6444
 5238TIP3    H237130   6.455   0.843  13.816 -3.0335  1.0251 -0.8668
 5239TIP3   OH237131   2.382   1.737  16.733  0.3355  0.0976  0.1140
 5239TIP3    H137132   2.397   1.756  16.641  2.8761 -0.3377  0.4116
 5239TIP3    H237133   2.418   1.649  16.746  0.7489  0.4685  1.6889
 5240TIP3   OH237134   3.947   6.148   5.714 -0.5669 -0.2978 -0.1356
 5240TIP3    H137135   3.963   6.132   5.807 -0.7104 -1.3237 -0.2814
 5240TIP3    H237136   4.007   6.219   5.692  0.7321 -1.2241  0.3324
 5241TIP3   OH237137   0.486   0.590  13.327 -0.3689  0.2609  0.1159
 5241TIP3    H137138   0.464   0.586  13.234 -1.2504  1.8125  0.2337
 5241TIP3    H237139   0.446   0.511  13.364  0.2403 -0.5204 -0.8635
 5242TIP3   OH237140   0.289   1.023   2.616 -0.5651  0.4563 -0.0700
 5242TIP3    H137141   0.381   1.021   2.590 -0.7482 -1.6301 -0.7157
 5242TIP3    H237142   0.244   1.064   2.542 -0.4734 -1.0680 -1.0040
 5243TIP3   OH237143   3.732   3.666   3.287 -0.2807 -0.1936  0.5406
 5243TIP3    H137144   3.728   3.753   3.326  0.0330  0.8704 -1.7210
 5243TIP3    H237145   3.754   3.608   3.360  4.2423  2.2316  1.2819
 5244TIP3   OH237146   3.206   5.159  14.654  0.2000  0.0686  0.7352
 5244TIP3    H137147   3.267   5.202  14.715  0.8196  1.0756 -0.5699
 5244TIP3    H237148   3.219   5.205  14.571  0.5259 -2.3535 -0.5851
 5245TIP3   OH237149   0.533   4.192  14.919  0.1309  0.0913 -0.0324
 5245TIP3    H137150   0.541   4.134  14.843 -1.9893  1.2623 -1.1748
 5245TIP3    H237151   0.620   4.189  14.959  1.2203 -0.7661 -2.3294
 5246TIP3   OH237152   3.171   6.197   3.407 -0.4026  0.9236  0.5703
 5246TIP3    H137153   3.130   6.282   3.387  0.5449  1.4514  0.8389
 5246TIP3    H237154   3.147   6.141   3.333 -2.9563  0.7272  1.4781
 5247TIP3   OH237155   2.009   3.857   2.145 -0.5007  0.7384  0.0601
 5247TIP3    H137156   1.974   3.943   2.168  1.6707  1.4090  0.9653
 5247TIP3    H237157   1.931   3.803   2.130 -1.9156  2.3057  1.4953
 5248TIP3   OH237158   0.044   2.956  16.867 -0.2318 -0.3821  0.2873
 5248TIP3    H137159   0.125   2.995  16.899 -0.7736 -1.2733  2.8826
 5248TIP3    H237160   0.071   2.874  16.826  0.0804 -1.4679  2.5691
 5249TIP3   OH237161   0.910   6.019  12.052 -0.3306  0.5839 -0.2896
 5249TIP3    H137162   0.946   6.074  12.121 -0.6259  0.7586 -0.2764
 5249TIP3    H237163   0.846   6.075  12.007 -1.2231 -0.0093  0.2336
 5250TIP3   OH237164   5.455   2.855  11.208 -0.4670 -0.6183 -0.3483
 5250TIP3    H137165   5.405   2.894  11.136 -0.0048  0.3517 -0.1555
 5250TIP3    H237166   5.537   2.827  11.167 -1.1593 -2.1893 -0.6600
 5251TIP3   OH237167   4.841   2.174   6.069 -0.1411 -0.0952  0.4094
 5251TIP3    H137168   4.782   2.099   6.082 -0.2052 -0.1388 -0.1221
 5251TIP3    H237169   4.863   2.171   5.976  0.1053  0.3666  0.4526
 5252TIP3   OH237170   3.292   4.085  16.652  0.3279  0.1298  0.1246
 5252TIP3    H137171   3.247   4.015  16.701 -0.2388 -0.2518 -0.9237
 5252TIP3    H237172   3.369   4.105  16.704 -0.6983  0.3205  1.6209
 5253TIP3   OH237173   6.713   5.326   5.641 -0.7163  0.6975  0.2423
 5253TIP3    H137174   6.623   5.350   5.662 -0.6050  1.0253  0.3506
 5253TIP3    H237175   6.720   5.234   5.666 -0.3748  1.2585  2.3472
 5254TIP3   OH237176   4.039   5.887  12.049 -0.7045  0.0454 -0.4565
 5254TIP3    H137177   4.014   5.901  11.958 -1.7696  0.1244 -0.1519
 5254TIP3    H237178   3.992   5.954  12.098 -1.4190 -1.0213  0.3402
 5255TIP3   OH237179   1.145   1.993  15.042 -0.7200 -0.1296 -0.1221
 5255TIP3    H137180   1.172   1.990  14.951 -1.6016 -0.9638 -0.3679
 5255TIP3    H237181   1.227   1.995  15.092 -0.2255 -0.4929 -0.9118
 5256TIP3   OH237182   3.025   5.426   4.168 -0.0114  1.0382 -0.6423
 5256TIP3    H137183   2.937   5.443   4.201 -0.7396 -2.9296 -0.3037
 5256TIP3    H237184   3.013   5.418   4.073 -0.0069  0.8056 -0.6263
 5257TIP3   OH237185   4.180   2.389  15.867  0.0196 -0.3399  0.1488
 5257TIP3    H137186   4.252   2.450  15.849 -0.3894 -0.2293 -1.1416
 5257TIP3    H237187   4.123   2.437  15.928 -1.0156  1.1362 -1.9248
 5258TIP3   OH237188   0.745   6.164  12.672 -0.0670 -0.0369 -1.2220
 5258TIP3    H137189   0.798   6.121  12.605  0.0051 -2.7208  0.5302
 5258TIP3    H237190   0.789   6.248  12.686  2.1668 -1.0738 -1.7539
 5259TIP3   OH237191   6.472   4.853  15.046  0.7318 -0.4057 -0.1621
 5259TIP3    H137192   6.456   4.941  15.081  1.3417  0.0885 -1.0969
 5259TIP3    H237193   6.560   4.830  15.076  0.4099 -0.8608  0.4219
 5260TIP3   OH237194   3.008   4.774   1.743  0.2525 -0.2686  0.1537
 5260TIP3    H137195   2.982   4.716   1.815  0.5357  1.8114  2.0003
 5260TIP3    H237196   3.027   4.857   1.786  3.6705  0.1296 -1.9194
 5261TIP3   OH237197   2.771   1.676   5.739  0.1712 -0.2134  0.3142
 5261TIP3    H137198   2.837   1.613   5.709 -0.6663 -1.8785  1.9054
 5261TIP3    H237199   2.704   1.674   5.670  0.4335 -0.6244  0.0683
 5262TIP3   OH237200   2.926   6.072  14.695 -0.0886 -0.2560  0.7838
 5262TIP3    H137201   2.917   6.045  14.786 -1.4958  0.9977  1.0201
 5262TIP3    H237202   2.852   6.130  14.679 -0.9188 -1.9324 -1.7094
 5263TIP3   OH237203   2.925   0.054  16.068 -0.5371  0.1325  0.2658
 5263TIP3    H137204   2.967  -0.032  16.068 -1.8665 -0.5184  0.4963
 5263TIP3    H237205   2.881   0.060  15.983 -0.5064  0.5611  0.2772
 5264TIP3   OH237206   0.666   2.571   4.186  0.4808 -0.0133 -0.1907
 5264TIP3    H137207   0.721   2.494   4.199  0.7654  0.3852  1.0090
 5264TIP3    H237208   0.588   2.555   4.239  1.4959  1.4696  1.8169
 5265TIP3   OH237209   3.403   1.581  11.475 -0.0738  0.0401  0.2698
 5265TIP3    H137210   3.432   1.613  11.561  0.2900 -0.5309  0.3705
 5265TIP3    H237211   3.311   1.605  11.470 -0.5042 -1.2405  1.4774
 5266TIP3   OH237212   6.084   3.776  12.487 -0.1185 -0.3748  0.1112
 5266TIP3    H137213   6.071   3.868  12.510 -0.0532 -0.7417  1.6514
 5266TIP3    H237214   5.995   3.744  12.469 -0.4162 -0.6389  2.0125
 5267TIP3   OH237215   3.837   6.684  10.941 -0.2729  0.1343 -0.6245
 5267TIP3    H137216   3.928   6.712  10.953  0.1289 -2.4477  3.3355
 5267TIP3    H237217   3.844   6.594  10.910 -1.4582 -0.4114  0.6496
 5268TIP3   OH237218   1.696   4.943  10.544  0.5271 -0.3263 -0.7921
 5268TIP3    H137219   1.658   5.031  10.536  0.1379 -0.5239 -1.1645
 5268TIP3    H237220   1.673   4.900  10.462  2.0804 -0.2565 -1.2919
 5269TIP3   OH237221   5.289   3.526   3.213  0.9952  0.3566 -0.0282
 5269TIP3    H137222   5.304   3.481   3.130 -0.1768  1.2710 -0.7515
 5269TIP3    H237223   5.297   3.458   3.279 -1.6592 -1.1563 -1.1765
 5270TIP3   OH237224   4.729   6.414  15.978  0.8816 -0.2755 -0.8107
 5270TIP3    H137225   4.713   6.322  15.958 -0.6343  0.0587 -1.2304
 5270TIP3    H237226   4.814   6.433  15.940  0.3309 -1.0098 -2.4412
 5271TIP3   OH237227   1.765   4.203   5.563 -0.4886  0.0918  0.1688
 5271TIP3    H137228   1.804   4.128   5.608 -0.5655 -0.4350 -0.6354
 5271TIP3    H237229   1.674   4.203   5.592 -1.0697 -1.4698 -1.5194
 5272TIP3   OH237230   0.138   3.640  11.088  0.9046  0.1841 -0.1684
 5272TIP3    H137231   0.224   3.650  11.048  0.9173  0.3176 -0.1076
 5272TIP3    H237232   0.119   3.546  11.080  1.0945  0.1392 -0.1019
 5273TIP3   OH237233   1.766   2.343   1.774  0.3774  0.2846 -0.1505
 5273TIP3    H137234   1.835   2.344   1.708 -0.4556 -0.0188 -1.0214
 5273TIP3    H237235   1.703   2.278   1.744  0.1964 -0.1648  1.1537
 5274TIP3   OH237236   4.100   0.455   1.907  0.2288 -0.0196 -0.0719
 5274TIP3    H137237   4.131   0.499   1.828 -1.4171 -0.5126 -1.0214
 5274TIP3    H237238   4.149   0.373   1.909 -0.3413 -0.3943 -1.0732
 5275TIP3   OH237239   2.512   2.223   5.673 -0.1092 -0.0959 -0.0125
 5275TIP3    H137240   2.524   2.132   5.647  1.5528 -0.1470  0.8414
 5275TIP3    H237241   2.576   2.271   5.621 -0.6588  0.5315 -0.1182
 5276TIP3   OH237242   0.603   2.646  14.622 -0.7311  0.6142 -0.1587
 5276TIP3    H137243   0.509   2.626  14.626 -0.8235  1.1237  0.2701
 5276TIP3    H237244   0.627   2.627  14.532 -1.5601  1.8196 -0.6484
 5277TIP3   OH237245   4.426   0.680   5.099 -0.6054  0.3614  0.6097
 5277TIP3    H137246   4.388   0.592   5.106 -0.1519  0.0405 -0.7895
 5277TIP3    H237247   4.396   0.713   5.014  3.0229 -0.3305 -1.0517
 5278TIP3   OH237248   3.150   1.012   1.628 -0.1698 -0.0608 -0.4794
 5278TIP3    H137249   3.155   1.011   1.724  1.7887  0.8266 -0.5354
 5278TIP3    H237250   3.230   0.968   1.600 -0.3925  0.3035 -1.7027
 5279TIP3   OH237251   4.297   0.741   5.680  0.0463 -0.2191  0.4037
 5279TIP3    H137252   4.314   0.791   5.600 -0.9341  0.9239  0.8942
 5279TIP3    H237253   4.238   0.797   5.730 -1.4255 -2.0843  0.7696
 5280TIP3   OH237254   4.224   2.896  14.747  0.1018 -0.1261 -0.1208
 5280TIP3    H137255   4.175   2.895  14.664 -0.1100  0.6445 -0.0165
 5280TIP3    H237256   4.164   2.937  14.809  0.4115 -0.3364  0.3178
 5281TIP3   OH237257   3.093   4.482  13.844  0.1375  0.7010  0.0431
 5281TIP3    H137258   3.180   4.520  13.834 -0.3106  1.2051 -2.3190
 5281TIP3    H237259   3.108   4.399  13.890  1.7281  1.2756  0.5755
 5282TIP3   OH237260   0.681   6.098   2.478  0.1849 -0.2266 -0.8677
 5282TIP3    H137261   0.653   6.164   2.415  1.5342  0.7060 -0.4973
 5282TIP3    H237262   0.679   6.143   2.563 -0.9435 -1.2736 -0.3094
 5283TIP3   OH237263   4.813   3.210  14.109  0.2002 -0.0350 -0.2208
 5283TIP3    H137264   4.720   3.226  14.129 -0.0978 -0.1699 -1.4455
 5283TIP3    H237265   4.812   3.166  14.024  1.3401 -1.0868  0.3049
 5284TIP3   OH237266   0.761   2.522   2.952 -0.3707  0.2279 -0.5028
 5284TIP3    H137267   0.697   2.450   2.950  1.5281 -1.5498  0.2528
 5284TIP3    H237268   0.811   2.512   2.872 -1.0222  1.6426 -1.1100
 5285TIP3   OH237269   1.412   1.309   1.605 -0.0920  0.0130  0.1947
 5285TIP3    H137270   1.416   1.338   1.696 -2.2153  2.5436 -0.4660
 5285TIP3    H237271   1.478   1.362   1.560  1.9130 -2.1857  0.4449
 5286TIP3   OH237272   1.777   0.158   1.273  0.2292  0.5984 -0.8620
 5286TIP3    H137273   1.739   0.080   1.234 -0.0398  0.8050 -1.0215
 5286TIP3    H237274   1.715   0.182   1.343  1.8164 -1.0320  1.1922
 5287TIP3   OH237275   0.154   3.946  15.704 -0.4361  0.2991 -0.0528
 5287TIP3    H137276   0.129   3.854  15.711 -2.3894  0.8164  0.0461
 5287TIP3    H237277   0.186   3.955  15.614  0.7934 -0.7083  0.2703
 5288TIP3   OH237278   6.764   4.354  12.163 -0.3442 -0.9358  0.5980
 5288TIP3    H137279   6.737   4.326  12.250  0.5891 -0.5538  1.0198
 5288TIP3    H237280   6.734   4.444  12.156 -1.4505 -1.3318  0.0642
 5289TIP3   OH237281   5.614   1.654  16.351  0.2941  0.4481  0.4256
 5289TIP3    H137282   5.639   1.590  16.417 -0.9049  0.9956  1.4468
 5289TIP3    H237283   5.603   1.735  16.400 -1.8736  0.5755 -0.2238
 5290TIP3   OH237284   0.330   1.449   6.541  0.4339 -0.4970 -0.3301
 5290TIP3    H137285   0.308   1.398   6.619 -0.7692 -1.2946 -1.1830
 5290TIP3    H237286   0.281   1.531   6.551 -1.1340 -1.3280 -1.1018
 5291TIP3   OH237287   1.050   6.116   4.797  0.5370  0.7174  0.7210
 5291TIP3    H137288   0.996   6.097   4.874 -0.5617 -0.4023 -0.3056
 5291TIP3    H237289   1.127   6.060   4.807 -1.5392 -2.6218 -1.0484
 5292TIP3   OH237290   2.796   2.522   0.409  0.4767  0.0730  0.1865
 5292TIP3    H137291   2.778   2.458   0.478 -1.9083  0.0185 -0.4222
 5292TIP3    H237292   2.889   2.541   0.418  0.6838 -1.5509  2.0253
 5293TIP3   OH237293   1.173   5.656  11.958  0.8617 -0.0630  0.7680
 5293TIP3    H137294   1.241   5.722  11.953  1.6647 -1.0331 -1.7589
 5293TIP3    H237295   1.091   5.703  11.942  1.5690  0.1121 -2.5227
 5294TIP3   OH237296   2.032   3.481  13.173 -0.3179 -0.1001  0.3752
 5294TIP3    H137297   2.035   3.458  13.081 -0.9091 -0.2621  0.3979
 5294TIP3    H237298   2.109   3.536  13.186 -0.6721  0.5869 -0.3912
 5295TIP3   OH237299   3.221   4.057   4.296 -0.2194 -0.2319 -0.1119
 5295TIP3    H137300   3.195   3.971   4.328 -0.3127  0.0587  0.6092
 5295TIP3    H237301   3.316   4.060   4.307 -0.0402 -0.7475 -1.4006
 5296TIP3   OH237302   1.647   0.904  16.900 -0.0135  0.2893 -0.3415
 5296TIP3    H137303   1.717   0.840  16.909 -0.0049  0.5182  1.3365
 5296TIP3    H237304   1.693   0.987  16.886 -0.0111  0.0762 -1.6843
 5297TIP3   OH237305   1.005   2.954   0.047  1.0104 -0.5918  0.2752
 5297TIP3    H137306   0.975   2.986   0.132  0.3052  0.9750 -0.5411
 5297TIP3    H237307   1.098   2.937   0.059  0.9493 -0.2089  1.3025
 5298TIP3   OH237308   5.773   3.400   4.561  0.3267 -0.3212 -0.1631
 5298TIP3    H137309   5.852   3.348   4.578 -0.0921 -0.2324  2.2087
 5298TIP3    H237310   5.707   3.336   4.536 -0.1028 -0.9734  2.4478
 5299TIP3   OH237311   1.955   5.664   1.906  0.0664  0.3595  0.7640
 5299TIP3    H137312   1.899   5.615   1.966 -0.0629  0.9340  1.1079
 5299TIP3    H237313   2.044   5.648   1.938  0.0016  0.6218  1.0747
 5300TIP3   OH237314   6.355   0.657  14.330  0.3810  0.0352  0.2216
 5300TIP3    H137315   6.315   0.573  14.352  1.3383 -0.0880  1.5406
 5300TIP3    H237316   6.438   0.634  14.288  0.0408  0.3171 -0.6239
 5301TIP3   OH237317   3.302   6.083   4.141 -0.0827 -0.1911 -0.0774
 5301TIP3    H137318   3.258   6.106   4.059 -0.6059 -0.1408  0.2117
 5301TIP3    H237319   3.370   6.021   4.116  0.1834  0.3224 -0.6350
 5302TIP3   OH237320   4.075   5.427   3.842 -0.4285  0.2865 -0.0902
 5302TIP3    H137321   3.987   5.441   3.877 -0.6420 -0.8935 -0.1115
 5302TIP3    H237322   4.082   5.488   3.769 -0.9446  0.9352  0.3990
 5303TIP3   OH237323   5.020   1.807   6.084 -0.0774 -0.9811  0.7712
 5303TIP3    H137324   5.054   1.894   6.105  0.6715 -1.1211  0.1743
 5303TIP3    H237325   5.014   1.806   5.988  0.3628 -1.7378  0.7440
 5304TIP3   OH237326   4.363   0.696   3.281  0.1174  0.3188 -0.0386
 5304TIP3    H137327   4.441   0.641   3.275 -1.3810 -1.8855  0.1259
 5304TIP3    H237328   4.384   0.760   3.349  1.9438  0.0256 -0.3094
 5305TIP3   OH237329   0.441   5.324  13.507  0.4438 -0.1754 -0.8451
 5305TIP3    H137330   0.477   5.257  13.563 -2.0154 -0.5234  0.3935
 5305TIP3    H237331   0.493   5.402  13.525  1.1328 -0.8813  0.2182
 5306TIP3   OH237332   5.711   6.043  13.892 -0.2018 -0.5231 -0.3890
 5306TIP3    H137333   5.672   5.958  13.875  0.1338 -0.5961 -0.7955
 5306TIP3    H237334   5.663   6.077  13.968 -1.9446 -0.0516 -1.6641
 5307TIP3   OH237335   5.747   1.639  16.132 -0.4206  0.2227  0.3585
 5307TIP3    H137336   5.806   1.714  16.132  0.6392 -0.6073 -0.0084
 5307TIP3    H237337   5.688   1.655  16.205  1.7061 -0.0717  2.1830
 5308TIP3   OH237338   2.635   0.087  14.813  0.2853 -0.1850 -0.2262
 5308TIP3    H137339   2.598   0.174  14.830  0.7240  0.6298 -3.2035
 5308TIP3    H237340   2.728   0.097  14.831  0.2703 -0.1389 -0.1736
 5309TIP3   OH237341   0.204   6.353  15.233  0.3422 -0.1813  0.2247
 5309TIP3    H137342   0.185   6.317  15.319 -1.5174 -1.5542 -0.7392
 5309TIP3    H237343   0.157   6.297  15.172  0.5186  1.5891 -1.5958
 5310TIP3   OH237344   0.993   1.221   4.463  0.2913 -0.7807  0.4501
 5310TIP3    H137345   1.014   1.304   4.507  1.9369 -0.8204 -0.2241
 5310TIP3    H237346   0.897   1.221   4.458  0.2310  0.7430  1.1148
 5311TIP3   OH237347   6.604   6.253  14.643 -0.3239 -0.2986 -0.3731
 5311TIP3    H137348   6.618   6.170  14.597  1.0307  0.1808 -0.8652
 5311TIP3    H237349   6.624   6.320  14.578 -0.5186  0.4002  0.2849
 5312TIP3   OH237350   6.717   6.702   2.830 -0.4155 -0.2262  0.8273
 5312TIP3    H137351   6.769   6.728   2.907 -1.7784 -0.5176  1.8564
 5312TIP3    H237352   6.765   6.740   2.756  1.5680 -0.9281  1.6981
 5313TIP3   OH237353   5.831   6.657   2.967 -0.1399  0.2250 -0.0391
 5313TIP3    H137354   5.796   6.617   3.046 -0.7882 -0.7354 -0.8058
 5313TIP3    H237355   5.772   6.629   2.897  1.2842 -0.1592 -1.1008
 5314TIP3   OH237356   6.231   2.434  13.255  0.0895  0.2951 -0.2813
 5314TIP3    H137357   6.305   2.379  13.280 -1.6173 -1.9762 -0.0649
 5314TIP3    H237358   6.219   2.418  13.161  0.1127  0.9510 -0.4004
 5315TIP3   OH237359   2.590   0.794   2.797  0.3682 -0.2279  0.2261
 5315TIP3    H137360   2.502   0.780   2.833  0.4525 -3.7030 -0.7283
 5315TIP3    H237361   2.576   0.840   2.715 -0.3149  1.8052  1.4491
 5316TIP3   OH237362   3.997   5.655   1.487  0.3000 -0.0736  0.0761
 5316TIP3    H137363   3.915   5.702   1.474  0.3607  0.1006  0.3205
 5316TIP3    H237364   3.982   5.569   1.449  0.0579  0.0116 -0.0201
 5317TIP3   OH237365   0.943   2.661   2.541  0.0524 -0.1289  0.5949
 5317TIP3    H137366   1.022   2.660   2.595  0.4975  0.4049 -0.0460
 5317TIP3    H237367   0.916   2.569   2.536  1.3852 -0.4745 -0.3019
 5318TIP3   OH237368   5.259   5.723  11.836 -0.2864 -0.4120 -0.1000
 5318TIP3    H137369   5.211   5.724  11.753  0.8203  1.0821 -0.7541
 5318TIP3    H237370   5.304   5.808  11.838  0.9980 -1.1041  1.2617
 5319TIP3   OH237371   4.981   3.693  12.583 -0.4783 -0.4507 -0.0555
 5319TIP3    H137372   5.044   3.715  12.515 -1.4510  0.4494 -0.6769
 5319TIP3    H237373   4.899   3.679  12.536 -1.1437  0.0975  0.9183
 5320TIP3   OH237374   1.817   1.385  14.126 -0.6331 -0.2528  0.0015
 5320TIP3    H137375   1.802   1.315  14.189  0.3963 -0.5177 -0.0351
 5320TIP3    H237376   1.830   1.463  14.179  0.8850 -0.5945  0.1678
 5321TIP3   OH237377   3.350   4.068  12.453 -0.1066 -0.0046 -0.2210
 5321TIP3    H137378   3.339   4.162  12.438  0.8232  0.3116  1.0264
 5321TIP3    H237379   3.426   4.044  12.399 -0.7499 -0.1806 -1.0550
 5322TIP3   OH237380   1.674   1.144   5.446 -0.4350  0.5116 -0.6409
 5322TIP3    H137381   1.661   1.229   5.486 -0.3819  0.0412  0.3791
 5322TIP3    H237382   1.603   1.136   5.382 -1.2000  0.7748  0.1748
 5323TIP3   OH237383   2.610   0.263  13.234  0.7353 -0.4366  0.0186
 5323TIP3    H137384   2.582   0.238  13.145  0.7253 -0.6161  0.0708
 5323TIP3    H237385   2.683   0.323  13.220  1.3260 -1.1733 -0.1028
 5324TIP3   OH237386   2.456   3.025  16.890 -0.0975 -0.0382 -0.1319
 5324TIP3    H137387   2.470   3.101  16.946  0.4211 -0.0569 -0.2302
 5324TIP3    H237388   2.499   2.953  16.937 -1.0565 -0.3825  0.2216
 5325TIP3   OH237389   3.087   2.143  14.071  0.1022 -0.1270  0.1200
 5325TIP3    H137390   3.075   2.238  14.075  1.3407  0.0685 -0.3402
 5325TIP3    H237391   3.120   2.127  13.983 -0.0500 -0.9794  0.2171
 5326TIP3   OH237392   4.456   4.258  12.226  0.0065  0.2464 -0.4224
 5326TIP3    H137393   4.474   4.299  12.311 -1.2623 -1.1586  0.5529
 5326TIP3    H237394   4.472   4.165  12.240 -1.0349 -0.1085 -1.4831
 5327TIP3   OH237395   2.409   4.080   0.769  0.4011 -0.3681  0.3536
 5327TIP3    H137396   2.422   4.155   0.711 -0.5308  0.7572  1.5712
 5327TIP3    H237397   2.469   4.013   0.736  0.6140  0.6032 -1.2770
 5328TIP3   OH237398   4.119   1.582  14.791  0.1857  0.0244  0.7811
 5328TIP3    H137399   4.142   1.671  14.817  3.8069 -1.0221  1.3459
 5328TIP3    H237400   4.159   1.571  14.705 -1.1638 -0.7358  0.2274
 5329TIP3   OH237401   2.115   5.885  14.676  0.5131 -0.1385 -0.4380
 5329TIP3    H137402   2.169   5.818  14.633  2.2911  0.7675  0.3158
 5329TIP3    H237403   2.164   5.908  14.755 -1.1801  0.4660  0.4513
 5330TIP3   OH237404   1.937   5.523  17.179 -0.0063  0.1217  0.0174
 5330TIP3    H137405   2.032   5.514  17.182  0.0931  1.0479 -0.1373
 5330TIP3    H237406   1.905   5.437  17.154  0.7970 -0.1769  0.0091
 5331TIP3   OH237407   3.300   3.133   0.112  0.2127  0.1482 -0.5940
 5331TIP3    H137408   3.309   3.043   0.081 -0.3989 -0.3364  0.5876
 5331TIP3    H237409   3.355   3.137   0.190  0.9968  1.0779 -1.1934
 5332TIP3   OH237410   6.502   1.671  14.456 -0.4374 -0.0672  0.2890
 5332TIP3    H137411   6.460   1.695  14.539  1.1509 -0.1367  1.1336
 5332TIP3    H237412   6.442   1.703  14.389 -1.9339 -0.3619  1.4667
 5333TIP3   OH237413   6.513   3.805   5.663 -0.2430  0.0323 -0.6391
 5333TIP3    H137414   6.537   3.891   5.698  1.9897 -0.6434 -0.4370
 5333TIP3    H237415   6.486   3.824   5.573 -2.6081  1.3042  0.3035
 5334TIP3   OH237416   1.397   1.457   1.826  0.3517  0.1246 -0.2088
 5334TIP3    H137417   1.320   1.470   1.881  0.4812  0.5929 -0.1336
 5334TIP3    H237418   1.419   1.545   1.795  0.2363 -0.1427 -1.0734
 5335TIP3   OH237419   0.211   3.325   5.498 -0.2610  0.4346  0.0153
 5335TIP3    H137420   0.131   3.322   5.550 -0.6097  0.1415 -0.5377
 5335TIP3    H237421   0.201   3.403   5.443 -1.3054 -1.0178 -1.8833
 5336TIP3   OH237422   2.097   3.270  14.428 -0.5847  0.3168  0.0324
 5336TIP3    H137423   2.004   3.248  14.435 -0.7375  1.2440  1.0680
 5336TIP3    H237424   2.135   3.239  14.510  0.1739 -0.7517 -0.7165
 5337TIP3   OH237425   4.811   6.255  15.433 -0.4475 -0.2767 -0.6456
 5337TIP3    H137426   4.770   6.231  15.350 -0.8261  0.0242 -0.5475
 5337TIP3    H237427   4.740   6.251  15.497 -0.5329  1.1112 -0.6333
 5338TIP3   OH237428   2.170   5.646   3.049  0.3461  0.1926 -0.7551
 5338TIP3    H137429   2.102   5.606   3.103 -1.4930  1.4598 -2.0405
 5338TIP3    H237430   2.239   5.581   3.044 -0.6891 -1.0545  0.7602
 5339TIP3   OH237431   3.192   6.763  15.076 -0.5802  0.0172  0.5896
 5339TIP3    H137432   3.144   6.830  15.027 -0.3354  0.4464  0.9316
 5339TIP3    H237433   3.187   6.685  15.021  0.3052  0.6912 -0.4720
 5340TIP3   OH237434   4.428   4.564   2.423  0.0098  0.1004  0.0134
 5340TIP3    H137435   4.440   4.506   2.348 -1.7127 -0.2941  0.0109
 5340TIP3    H237436   4.454   4.651   2.391  0.4103 -0.2727 -0.6772
 5341TIP3   OH237437   1.835   4.949  11.477  0.2877 -0.2136 -0.7221
 5341TIP3    H137438   1.882   4.991  11.549  0.8638  1.1787 -1.8853
 5341TIP3    H237439   1.743   4.975  11.491  0.3007 -0.4381 -0.1729
 5342TIP3   OH237440   4.963   4.730  16.261  0.0780 -0.7492 -0.0608
 5342TIP3    H137441   5.034   4.678  16.224 -1.9184 -2.8498 -1.0983
 5342TIP3    H237442   4.911   4.757  16.185 -0.0551  1.0744  0.6490
 5343TIP3   OH237443   5.715   5.778  12.806 -0.2306 -0.1936 -0.0046
 5343TIP3    H137444   5.681   5.733  12.729 -1.1895  1.5431 -0.6228
 5343TIP3    H237445   5.773   5.846  12.771 -0.0406  0.0934  0.8461
 5344TIP3   OH237446   4.876   5.514   4.286 -0.1781 -0.4778 -0.4686
 5344TIP3    H137447   4.881   5.422   4.309 -1.4876 -0.2388  0.8685
 5344TIP3    H237448   4.896   5.517   4.192 -0.4827 -2.1509 -0.5915
 5345TIP3   OH237449   3.321   1.808   4.245  0.0763  0.1395  0.3248
 5345TIP3    H137450   3.275   1.731   4.213 -1.7130 -0.0128  3.1139
 5345TIP3    H237451   3.411   1.779   4.258  0.0175 -0.7336 -1.1308
 5346TIP3   OH237452   0.236   4.583  12.867  0.0925 -0.2533 -0.4708
 5346TIP3    H137453   0.146   4.606  12.890  0.1525 -1.4292  1.0327
 5346TIP3    H237454   0.234   4.488  12.855  0.9775 -0.1841 -1.1698
 5347TIP3   OH237455   3.986   6.510   3.991 -0.4972 -0.9161  0.0136
 5347TIP3    H137456   4.038   6.542   4.065  0.3652 -1.5653 -0.3050
 5347TIP3    H237457   4.038   6.437   3.955 -2.0088 -2.1135  0.2073
 5348TIP3   OH237458   3.082   5.552  13.720 -0.0200 -0.0920 -0.0388
 5348TIP3    H137459   3.081   5.542  13.815  0.6949  1.9599  0.2129
 5348TIP3    H237460   3.022   5.484  13.688 -0.1893 -0.8663  1.8564
 5349TIP3   OH237461   3.428   5.407   0.859 -0.1750  0.1362 -0.2561
 5349TIP3    H137462   3.506   5.381   0.809 -1.2611 -1.8986 -0.9309
 5349TIP3    H237463   3.409   5.331   0.914 -0.7953  1.2106  1.0313
 5350TIP3   OH237464   4.818   5.666   2.382 -0.0693 -0.4438  0.4926
 5350TIP3    H137465   4.830   5.717   2.462 -0.3939 -0.5475  0.6104
 5350TIP3    H237466   4.842   5.577   2.406 -0.2866 -0.4979  0.5086
 5351TIP3   OH237467   0.154   3.034  13.783  0.4542  0.2816 -0.0775
 5351TIP3    H137468   0.203   3.002  13.859  2.6249  0.4980 -1.3459
 5351TIP3    H237469   0.156   3.129  13.792  1.0093  0.3221 -0.5592
 5352TIP3   OH237470   3.356   6.347   0.527  0.1685  0.6835 -0.4735
 5352TIP3    H137471   3.448   6.360   0.506  0.2051 -0.3792 -0.9948
 5352TIP3    H237472   3.324   6.286   0.461 -0.1166 -1.4602  1.5450
 5353TIP3   OH237473   1.911   4.171   5.312  0.3027 -0.2579  0.4952
 5353TIP3    H137474   1.852   4.134   5.247 -0.7893  1.7552  0.3078
 5353TIP3    H237475   1.880   4.137   5.395 -0.7410  0.3043  0.3370
 5354TIP3   OH237476   5.618   2.031   5.090  0.5592 -0.7353 -0.5647
 5354TIP3    H137477   5.644   1.969   5.022  0.3053 -3.4196  1.6746
 5354TIP3    H237478   5.650   1.993   5.172 -0.9433  1.3229  1.0686
 5355TIP3   OH237479   5.500   1.454   1.860 -0.8529 -0.1037  0.6459
 5355TIP3    H137480   5.435   1.414   1.802 -1.2588  0.2914  0.8262
 5355TIP3    H237481   5.510   1.392   1.931  1.3863 -1.7128 -1.0151
 5356TIP3   OH237482   5.086   4.501   5.473  0.4630 -0.5195  0.4934
 5356TIP3    H137483   5.138   4.426   5.501  2.7019 -0.3205 -2.7492
 5356TIP3    H237484   5.148   4.575   5.475 -1.2240  0.9034  1.9506
 5357TIP3   OH237485   2.724   6.548  12.534 -0.2575  0.2386  0.1743
 5357TIP3    H137486   2.679   6.527  12.616  1.2775  0.1165  1.0075
 5357TIP3    H237487   2.701   6.639  12.517  0.4290  0.6597  1.4257
 5358TIP3   OH237488   4.448   5.020  16.314  0.0541  0.0807 -0.0817
 5358TIP3    H137489   4.457   5.107  16.353  1.4081  0.1853 -0.6021
 5358TIP3    H237490   4.418   4.964  16.385 -0.4179  0.8910  0.3555
 5359TIP3   OH237491   2.949   4.487  14.687 -0.1709 -0.3250  0.1314
 5359TIP3    H137492   2.943   4.507  14.781 -1.7755 -0.6299  0.1061
 5359TIP3    H237493   2.905   4.560  14.644 -2.2174 -1.7137 -0.1922
 5360TIP3   OH237494   4.722   4.159   2.737  0.7988 -0.0006 -0.1598
 5360TIP3    H137495   4.768   4.208   2.804 -0.3709  1.8986 -0.7033
 5360TIP3    H237496   4.666   4.224   2.694 -0.7640 -1.8027 -0.9210
 5361TIP3   OH237497   5.808   4.377   3.665  0.1278  0.3817  0.0321
 5361TIP3    H137498   5.853   4.405   3.745 -1.0688  1.4017  0.3713
 5361TIP3    H237499   5.864   4.406   3.594  1.1213 -0.3860  0.5028
 5362TIP3   OH237500   2.447   0.873   1.596  0.7183  0.8968 -0.5167
 5362TIP3    H137501   2.516   0.930   1.562  2.3364 -0.6202  0.1350
 5362TIP3    H237502   2.451   0.796   1.540  0.4973  0.2075  0.4156
 5363TIP3   OH237503   1.442   0.322   4.750  0.5251  0.6509  0.9705
 5363TIP3    H137504   1.530   0.284   4.743  0.1346 -0.1311  0.2186
 5363TIP3    H237505   1.458   0.415   4.765  1.4852  0.7901 -0.7964
 5364TIP3   OH237506   2.477   3.834   3.296 -0.6498  0.4688 -0.3870
 5364TIP3    H137507   2.532   3.771   3.342  0.6243  1.8094 -0.0754
 5364TIP3    H237508   2.434   3.884   3.365  0.4931  1.8057 -0.6202
 5365TIP3   OH237509   5.881   3.656   4.795 -0.0012  0.1071 -0.3476
 5365TIP3    H137510   5.969   3.643   4.831  0.2943 -1.3450 -1.5583
 5365TIP3    H237511   5.823   3.610   4.855  0.4093 -1.6280 -1.2498
 5366TIP3   OH237512   0.136   3.802   4.094  0.0838  0.1333  0.4913
 5366TIP3    H137513   0.208   3.748   4.062 -0.3102 -0.3678  0.4345
 5366TIP3    H237514   0.088   3.744   4.154 -1.2760 -0.1003 -0.8131
 5367TIP3   OH237515   4.895   1.898  14.442 -0.4881 -0.0990 -0.4892
 5367TIP3    H137516   4.848   1.823  14.406  0.2651 -0.3394 -0.9859
 5367TIP3    H237517   4.927   1.944  14.365  0.7712 -0.3824 -0.1371
 5368TIP3   OH237518   1.854   0.327   5.933  0.0128 -0.0706 -0.0838
 5368TIP3    H137519   1.764   0.337   5.901  0.1576  0.3594 -0.3664
 5368TIP3    H237520   1.857   0.239   5.970 -0.8243  0.2893  0.8920
 5369TIP3   OH237521   6.078   0.431  13.078  0.1278 -0.2600 -0.5485
 5369TIP3    H137522   6.140   0.366  13.044  0.2641 -1.1995  1.4425
 5369TIP3    H237523   6.134   0.501  13.112  0.1262 -1.0932  1.2190
 5370TIP3   OH237524   4.055   0.720   5.501 -0.1717  0.1050 -0.1154
 5370TIP3    H137525   4.034   0.767   5.581 -0.4573 -0.3450  0.0777
 5370TIP3    H237526   4.116   0.777   5.454  0.6992 -0.0219  0.8415
 5371TIP3   OH237527   4.327   0.185   1.084  0.6928 -0.5912 -0.3759
 5371TIP3    H137528   4.396   0.249   1.096  0.3458 -0.0773 -1.0795
 5371TIP3    H237529   4.258   0.211   1.144  0.7144 -0.5378 -0.3753
 5372TIP3   OH237530   6.091   1.171  13.749 -0.7514 -0.8807 -0.1618
 5372TIP3    H137531   6.110   1.261  13.722  0.4766 -1.3314 -0.7904
 5372TIP3    H237532   6.095   1.174  13.844  0.3607 -0.5073 -0.2138
 5373TIP3   OH237533   3.275   2.295  11.815 -0.1080  0.7373  0.3931
 5373TIP3    H137534   3.360   2.299  11.770 -1.6241  2.0947 -2.4944
 5373TIP3    H237535   3.229   2.222  11.773 -0.5625  0.3274  1.5887
 5374TIP3   OH237536   5.551   5.627   2.666 -0.3369 -0.0713  0.1416
 5374TIP3    H137537   5.494   5.703   2.681 -0.2793 -0.0530  0.2661
 5374TIP3    H237538   5.516   5.559   2.724 -0.2885 -0.0895  0.1490
 5375TIP3   OH237539   6.606   3.864  12.541  0.2399 -0.2245 -0.5380
 5375TIP3    H137540   6.667   3.910  12.598  1.9250 -0.7867 -1.8363
 5375TIP3    H237541   6.587   3.782  12.587 -2.4945  1.5423  1.6085
 5376TIP3   OH237542   4.608   4.646   1.498 -0.0662 -0.4753 -0.5711
 5376TIP3    H137543   4.692   4.676   1.463  0.7912 -1.4909  0.5642
 5376TIP3    H237544   4.632   4.588   1.570 -1.7448 -1.2400 -0.6136
 5377TIP3   OH237545   3.088   1.851  15.164  0.1716 -0.6271 -0.3400
 5377TIP3    H137546   3.056   1.763  15.186  0.0682 -0.4665  0.1561
 5377TIP3    H237547   3.023   1.910  15.202 -0.0685 -0.3395 -1.1713
 5378TIP3   OH237548   1.126   0.910   0.382 -0.0982 -0.5218  0.0072
 5378TIP3    H137549   1.161   0.919   0.471  0.0804  1.4905 -0.2425
 5378TIP3    H237550   1.195   0.946   0.326 -0.3939 -1.3738 -0.9216
 5379TIP3   OH237551   2.851   2.040   1.760  0.1949  0.6640  1.0393
 5379TIP3    H137552   2.912   1.968   1.776  0.5322  0.6928 -0.1425
 5379TIP3    H237553   2.906   2.113   1.732 -0.4989  0.2698 -1.4174
 5380TIP3   OH237554   4.539   2.500   5.611 -0.1269 -0.2314  0.5325
 5380TIP3    H137555   4.565   2.559   5.681  0.6104 -1.8292  1.6483
 5380TIP3    H237556   4.517   2.418   5.655  1.0372 -1.4898 -1.1408
 5381TIP3   OH237557   0.394   1.301   0.079 -0.5801 -0.1230  0.2139
 5381TIP3    H137558   0.467   1.362   0.092  0.7342 -1.6948  0.4274
 5381TIP3    H237559   0.334   1.348   0.022  0.6965  1.1485 -0.1306
 5382TIP3   OH237560   0.676   6.673  12.086 -0.0555 -0.5088  0.4493
 5382TIP3    H137561   0.612   6.682  12.156 -1.1566 -0.8061 -0.5126
 5382TIP3    H237562   0.760   6.692  12.128 -0.8595  0.7870  1.5008
 5383TIP3   OH237563   0.886   4.356  14.338  0.3083  0.0841 -0.2569
 5383TIP3    H137564   0.827   4.328  14.268 -0.4353 -0.5420  0.6109
 5383TIP3    H237565   0.936   4.277  14.360  1.5080  0.6224 -1.0183
 5384TIP3   OH237566   0.388   6.633   6.193  0.0907 -0.0410  0.2709
 5384TIP3    H137567   0.389   6.576   6.116  3.3823  0.0117  0.2048
 5384TIP3    H237568   0.461   6.693   6.179 -1.0097  1.7933  2.1276
 5385TIP3   OH237569   1.160   1.028   5.381 -0.2043  0.5632  0.4237
 5385TIP3    H137570   1.078   1.022   5.431 -0.1339  0.4549  0.5245
 5385TIP3    H237571   1.133   1.066   5.297  0.0190  2.8358  1.3403
 5386TIP3   OH237572   0.033   0.142   6.593  0.3058 -0.2930  0.4747
 5386TIP3    H137573   0.099   0.204   6.623  0.4238 -0.7143  1.0925
 5386TIP3    H237574   0.026   0.077   6.663 -0.4382 -0.5027  0.2204
 5387TIP3   OH237575   1.249   2.891   3.661 -0.1736  0.1635  0.2030
 5387TIP3    H137576   1.229   2.849   3.745 -1.4879 -0.5113 -0.4245
 5387TIP3    H237577   1.308   2.963   3.683  2.9734 -2.6375  1.1638
 5388TIP3   OH237578   4.074   0.981  16.405 -0.3036 -0.2917 -0.1009
 5388TIP3    H137579   4.010   1.048  16.431  0.5101  0.0007  1.2380
 5388TIP3    H237580   4.024   0.899  16.404 -0.0765 -0.5829  4.0360
 5389TIP3   OH237581   3.039   2.416   5.090 -0.5515 -0.3503 -0.2699
 5389TIP3    H137582   3.011   2.472   5.162 -0.2932 -0.7224  0.1211
 5389TIP3    H237583   3.104   2.468   5.042 -0.4872 -0.2290 -0.0485
 5390TIP3   OH237584   4.283   5.010  13.963  0.4631  0.4463 -0.0949
 5390TIP3    H137585   4.271   5.090  13.913  2.6672  0.5431 -0.4908
 5390TIP3    H237586   4.373   4.983  13.945 -0.4637 -2.5377 -0.5854
 5391TIP3   OH237587   4.721   0.410   3.325 -0.5587 -0.1077 -0.0766
 5391TIP3    H137588   4.798   0.463   3.304 -1.0331 -0.1608 -2.0503
 5391TIP3    H237589   4.740   0.324   3.290 -1.2710 -0.2798 -0.0521
 5392TIP3   OH237590   6.209   0.702  11.175  0.1048 -0.5272 -0.2252
 5392TIP3    H137591   6.197   0.795  11.191  0.2313 -0.5811  0.1675
 5392TIP3    H237592   6.202   0.661  11.261 -0.5072 -0.9382 -0.4620
 5393TIP3   OH237593   0.947   0.772  16.285 -0.2089 -0.1802  0.3399
 5393TIP3    H137594   1.018   0.719  16.248  0.0844 -0.1771  0.9034
 5393TIP3    H237595   0.901   0.806  16.208 -1.2697 -2.4140 -0.0494
 5394TIP3   OH237596   5.336   3.707  15.810  0.1509 -0.1139  0.0125
 5394TIP3    H137597   5.333   3.751  15.725  0.1560 -1.5147 -0.7249
 5394TIP3    H237598   5.295   3.769  15.871 -1.7979  0.0119 -1.3976
 5395TIP3   OH237599   2.565   0.764   2.501  0.1229 -0.0718  0.5900
 5395TIP3    H137600   2.634   0.778   2.437 -0.3593 -3.2552 -0.6937
 5395TIP3    H237601   2.584   0.678   2.539 -2.5176 -0.5194  0.9857
 5396TIP3   OH237602   4.307   4.782  17.135 -0.3563  0.4672  0.3203
 5396TIP3    H137603   4.348   4.725  17.200 -1.5083  0.1893  0.8237
 5396TIP3    H237604   4.379   4.812  17.080  0.6369  0.7529  1.7633
 5397TIP3   OH237605   6.406   5.210   4.243  0.1608 -0.1066  0.1444
 5397TIP3    H137606   6.496   5.201   4.274  0.1841  0.6289  0.2897
 5397TIP3    H237607   6.412   5.198   4.148  0.5209  0.7036  0.0621
 5398TIP3   OH237608   0.391   3.444  13.627  0.8639  0.3609  0.3686
 5398TIP3    H137609   0.379   3.511  13.560  2.7429 -0.4842 -0.8462
 5398TIP3    H237610   0.454   3.482  13.688  1.7956 -0.1987 -0.2272
 5399TIP3   OH237611   4.690   5.796  15.278  0.1979 -0.8126  0.1545
 5399TIP3    H137612   4.667   5.815  15.187  1.8720 -0.0085 -0.1242
 5399TIP3    H237613   4.619   5.741  15.310 -2.2479  1.8361 -0.5547
 5400TIP3   OH237614   4.804   3.167   2.453  0.0984 -0.3443  0.3759
 5400TIP3    H137615   4.784   3.254   2.487 -0.5236 -0.2396 -0.2531
 5400TIP3    H237616   4.893   3.175   2.417 -0.9926  0.7765 -2.1624
 5401TIP3   OH237617   5.979   2.801   0.856  0.0910  0.0534  0.5046
 5401TIP3    H137618   5.892   2.788   0.819  0.3596 -0.5051  0.0616
 5401TIP3    H237619   6.031   2.836   0.783  0.4808 -0.5345  0.4952
 5402TIP3   OH237620   1.163   2.212  11.302 -0.3621  0.2349 -0.1372
 5402TIP3    H137621   1.231   2.182  11.242 -0.1918  0.0082  0.1669
 5402TIP3    H237622   1.094   2.146  11.293  1.1501 -1.8152  2.5861
 5403TIP3   OH237623   0.289   3.186  11.729 -0.1045 -0.6298  0.0382
 5403TIP3    H137624   0.266   3.249  11.797  0.2962  0.7390 -1.0831
 5403TIP3    H237625   0.354   3.231  11.676  1.6123 -2.6773  0.3279
 5404TIP3   OH237626   3.770   1.680   4.519 -0.1114  0.1651 -0.2367
 5404TIP3    H137627   3.812   1.631   4.588 -1.6423  0.4025  0.9015
 5404TIP3    H237628   3.842   1.712   4.464  1.0786 -0.4162  0.9667
 5405TIP3   OH237629   2.714   0.966  12.791  0.2697  0.1612  0.5588
 5405TIP3    H137630   2.672   0.894  12.745  0.7234  0.2393  0.0131
 5405TIP3    H237631   2.682   0.960  12.881 -1.0915  0.3716  0.0905
 5406TIP3   OH237632   5.083   4.808   2.862 -0.2914 -0.3040  0.0885
 5406TIP3    H137633   5.087   4.714   2.842  0.9831 -0.3552  0.5144
 5406TIP3    H237634   4.990   4.825   2.876 -0.4582 -1.6958  0.8236
 5407TIP3   OH237635   4.721   0.165  15.565 -0.5987 -0.5314  0.2467
 5407TIP3    H137636   4.763   0.101  15.508  1.2586 -0.3133  1.3318
 5407TIP3    H237637   4.708   0.119  15.647 -0.4197  0.0872  0.6239
 5408TIP3   OH237638   1.454   1.337   0.474 -0.1872 -0.2822  0.1128
 5408TIP3    H137639   1.388   1.352   0.541  1.9467 -0.3056  2.3028
 5408TIP3    H237640   1.495   1.254   0.499  0.5907 -0.3238 -1.2664
 5409TIP3   OH237641   2.117   5.093   4.776  0.0498  0.0145 -0.1036
 5409TIP3    H137642   2.121   5.000   4.800  0.6933  0.0042 -0.2296
 5409TIP3    H237643   2.030   5.105   4.739 -0.1151 -0.4908  0.1128
 5410TIP3   OH237644   0.443   0.922  11.400 -0.2975 -0.1373 -0.1691
 5410TIP3    H137645   0.417   0.996  11.345 -0.6510 -1.0652 -1.2883
 5410TIP3    H237646   0.360   0.878  11.421 -0.3902  1.3648  2.8424
 5411TIP3   OH237647   0.526   1.695  11.707 -0.5341 -0.2016  0.6723
 5411TIP3    H137648   0.510   1.789  11.717 -0.7792  0.0328 -1.5897
 5411TIP3    H237649   0.621   1.686  11.710 -0.5209  0.0681  1.1436
 5412TIP3   OH237650   2.166   3.497   5.028 -0.1031 -0.1913  0.0052
 5412TIP3    H137651   2.221   3.442   4.972 -0.4141 -0.0220 -0.4685
 5412TIP3    H237652   2.192   3.474   5.117 -0.3210 -1.2019 -0.1873
 5413TIP3   OH237653   4.149   5.886   0.914  0.1610  0.1383  0.3494
 5413TIP3    H137654   4.068   5.936   0.918  0.2448  0.2138  1.0641
 5413TIP3    H237655   4.135   5.824   0.842 -1.9918 -2.4214  2.8928
 5414TIP3   OH237656   1.577   0.452  16.291  0.4445 -0.2888  0.3942
 5414TIP3    H137657   1.551   0.536  16.330 -0.1685 -0.3449  0.1239
 5414TIP3    H237658   1.587   0.471  16.198  0.0245 -0.5771  0.2884
 5415TIP3   OH237659   2.368   4.935  13.999  0.5265 -0.2557 -0.2066
 5415TIP3    H137660   2.440   4.978  14.046 -0.1308  0.2710  0.3266
 5415TIP3    H237661   2.306   5.005  13.980  0.7371 -0.4741 -1.8079
 5416TIP3   OH237662   2.090   0.341  14.464 -0.2072 -0.1443  0.6545
 5416TIP3    H137663   2.157   0.346  14.395 -0.0887 -0.0672  0.7753
 5416TIP3    H237664   2.055   0.430  14.470  0.0577 -0.0622  0.9701
 5417TIP3   OH237665   4.059   0.504  14.931 -0.0786  0.4913 -0.3988
 5417TIP3    H137666   4.150   0.491  14.904 -0.9890 -1.4866 -2.7176
 5417TIP3    H237667   4.050   0.599  14.941  1.4151  0.9847 -3.2169
 5418TIP3   OH237668   1.181   6.448  12.112 -0.0592 -0.0081  0.1549
 5418TIP3    H137669   1.124   6.414  12.043 -0.6459 -0.6764  0.9599
 5418TIP3    H237670   1.240   6.376  12.132 -1.0321 -0.4331  1.5688
 5419TIP3   OH237671   3.660   0.329   5.259 -0.8232  0.0289  0.4350
 5419TIP3    H137672   3.678   0.407   5.206 -1.4292  1.4295  2.2591
 5419TIP3    H237673   3.746   0.290   5.273 -0.4500  0.6504 -0.0633
 5420TIP3   OH237674   4.296   0.435   5.171 -0.1523  0.3726 -0.3907
 5420TIP3    H137675   4.330   0.354   5.132 -1.6715 -0.3953 -0.1676
 5420TIP3    H237676   4.325   0.432   5.262  2.4142  1.6038 -1.1206
 5421TIP3   OH237677   4.512   0.391   1.032  0.3318 -0.4557  0.2497
 5421TIP3    H137678   4.435   0.443   1.009  0.3752 -0.3609  0.3184
 5421TIP3    H237679   4.573   0.404   0.959 -0.2850 -1.6744 -0.4974
 5422TIP3   OH237680   0.495   1.130  13.978  0.2224 -0.0783  0.1018
 5422TIP3    H137681   0.587   1.145  13.957  0.7417 -0.9240  1.6899
 5422TIP3    H237682   0.496   1.093  14.066 -1.6101 -0.5505 -0.0481
 5423TIP3   OH237683   6.622   1.715   0.376  0.0458  0.1818  0.1009
 5423TIP3    H137684   6.625   1.700   0.471  0.6986  0.3057  0.0959
 5423TIP3    H237685   6.540   1.763   0.363  0.3287  0.8390  0.6912
 5424TIP3   OH237686   2.760   5.677  14.678 -0.1517 -0.2939  0.0692
 5424TIP3    H137687   2.728   5.756  14.722 -0.8689 -0.3473 -0.3496
 5424TIP3    H237688   2.853   5.695  14.662 -0.8572  1.5184 -2.2378
 5425TIP3   OH237689   4.520   2.380  15.600 -0.4375  0.5347 -0.4792
 5425TIP3    H137690   4.506   2.392  15.506  1.5939 -1.9329 -1.1690
 5425TIP3    H237691   4.476   2.297  15.619 -0.3899  0.7646  0.6390
 5426TIP3   OH237692   2.781   3.687   3.136  0.0483 -0.4782  0.1057
 5426TIP3    H137693   2.695   3.722   3.113  0.2779 -0.7922 -1.3057
 5426TIP3    H237694   2.770   3.652   3.224 -1.8577 -2.4421 -0.8577
 5427TIP3   OH237695   3.401   2.735   6.461 -0.5009 -0.4925 -0.1303
 5427TIP3    H137696   3.341   2.797   6.419 -1.3197 -0.6967  0.7055
 5427TIP3    H237697   3.381   2.651   6.421 -0.5853 -0.5150 -0.0407
 5428TIP3   OH237698   6.539   6.000  15.585 -0.2065 -0.2007  0.2305
 5428TIP3    H137699   6.551   6.094  15.568  1.9103 -0.4531  0.1566
 5428TIP3    H237700   6.446   5.984  15.568 -0.4978  1.7950 -0.1965
 5429TIP3   OH237701   1.885   5.261   0.776  0.1822  1.2937 -0.2000
 5429TIP3    H137702   1.796   5.275   0.809  0.4716  1.3025  0.5964
 5429TIP3    H237703   1.940   5.261   0.855  0.6195 -0.9439 -0.4730
 5430TIP3   OH237704   6.066   1.511   2.296 -0.0345 -0.4824  0.7231
 5430TIP3    H137705   6.011   1.578   2.337 -0.6593 -0.1175 -0.6749
 5430TIP3    H237706   6.132   1.561   2.247 -0.1603 -0.8790  0.1369
 5431TIP3   OH237707   3.549   4.783   2.456  0.6027  0.5442 -0.7590
 5431TIP3    H137708   3.557   4.809   2.548  1.6832 -0.3343 -0.5931
 5431TIP3    H237709   3.465   4.739   2.451  0.7393  0.1999 -0.0883
 5432TIP3   OH237710   5.857   2.793  14.255 -0.4148  0.0901 -0.1082
 5432TIP3    H137711   5.834   2.854  14.325 -1.6339 -0.5355  0.0462
 5432TIP3    H237712   5.773   2.761  14.223  0.1915 -0.8042 -0.8115
 5433TIP3   OH237713   2.131   3.580   5.560  0.7202 -0.2516  0.7112
 5433TIP3    H137714   2.096   3.491   5.562 -0.4173  0.1819  0.2388
 5433TIP3    H237715   2.170   3.588   5.473  0.3595 -0.1188  0.5598
 5434TIP3   OH237716   4.667   3.258  15.221 -0.1264 -0.6117  0.2121
 5434TIP3    H137717   4.741   3.260  15.282 -0.5425  0.0397  0.7032
 5434TIP3    H237718   4.633   3.169  15.227  0.3613 -0.7959  0.2939
 5435TIP3   OH237719   5.337   0.799  14.196 -0.3501  0.6631  0.0739
 5435TIP3    H137720   5.329   0.840  14.110 -2.3340 -1.0519 -0.5893
 5435TIP3    H237721   5.253   0.817  14.239  0.0430  0.1941  1.0577
 5436TIP3   OH237722   4.050   2.094   3.175  0.2154  0.6024 -0.4344
 5436TIP3    H137723   4.026   2.002   3.171  1.7965  0.2764 -2.9681
 5436TIP3    H237724   4.088   2.105   3.262 -0.8321 -0.9001  0.2341
 5437TIP3   OH237725   1.095   6.703   2.179 -0.1361 -0.2460 -0.0476
 5437TIP3    H137726   1.048   6.772   2.226 -0.4840 -0.5329  0.0331
 5437TIP3    H237727   1.169   6.747   2.139  2.1462 -0.5889  3.6026
 5438TIP3   OH237728   0.363   5.657   5.996  0.7119  0.4395  0.1108
 5438TIP3    H137729   0.343   5.712   6.071 -0.1662  1.3029 -0.7298
 5438TIP3    H237730   0.459   5.651   5.995  0.6954 -0.1527  1.6812
 5439TIP3   OH237731   6.118   3.972   2.493 -0.5157 -0.1831  0.0707
 5439TIP3    H137732   6.092   3.885   2.522 -0.6809 -0.1453  0.0382
 5439TIP3    H237733   6.048   4.030   2.523 -0.5361 -0.0994 -0.1347
 5440TIP3   OH237734   3.913   1.741  17.179 -0.1341 -0.2401 -0.2281
 5440TIP3    H137735   3.825   1.705  17.188 -1.0671  1.7658 -1.0607
 5440TIP3    H237736   3.906   1.830  17.213  1.0918  0.5983 -2.1071
 5441TIP3   OH237737   6.217   3.328  13.009 -0.4222  0.1952  0.3326
 5441TIP3    H137738   6.183   3.245  13.043 -0.4786  0.6569  1.4304
 5441TIP3    H237739   6.138   3.379  12.991 -0.3666  0.6138  1.2235
 5442TIP3   OH237740   1.231   6.708  13.238  0.2754 -0.7642 -0.3553
 5442TIP3    H137741   1.242   6.800  13.261  0.2086 -0.4395 -1.5800
 5442TIP3    H237742   1.169   6.674  13.303 -1.3304  0.5781 -1.1546
 5443TIP3   OH237743   4.989   0.093  13.149  0.5601 -0.3215 -0.5738
 5443TIP3    H137744   5.049   0.066  13.080 -0.0710 -2.3003 -0.3774
 5443TIP3    H237745   5.028   0.058  13.229  0.8572  1.2574 -0.0043
 5444TIP3   OH237746   5.996   4.604  13.492  0.3561  0.1603  0.0112
 5444TIP3    H137747   6.001   4.691  13.532  1.2467  0.9516 -1.7677
 5444TIP3    H237748   6.078   4.594  13.445 -0.3774 -1.0313 -1.0482
 5445TIP3   OH237749   4.249   5.670  11.516  0.2526  0.5801 -0.1404
 5445TIP3    H137750   4.238   5.715  11.432 -0.4613  1.2240  0.2919
 5445TIP3    H237751   4.324   5.715  11.556 -1.6266  2.6900  1.1102
 5446TIP3   OH237752   2.451   3.505  14.418 -0.6262  0.2486 -0.3435
 5446TIP3    H137753   2.378   3.468  14.368 -0.2445 -0.0097 -0.7165
 5446TIP3    H237754   2.489   3.570  14.358 -0.8314  0.7085  0.0239
 5447TIP3   OH237755   0.605   5.167   0.189  0.3268 -1.0299 -0.0485
 5447TIP3    H137756   0.603   5.184   0.284  0.2326 -1.5015  0.0373
 5447TIP3    H237757   0.569   5.079   0.180  0.0291 -0.8576 -0.5561
 5448TIP3   OH237758   1.958   0.539   1.821  0.2502 -0.3293 -0.8403
 5448TIP3    H137759   1.881   0.537   1.879  1.1216  0.8821  0.3875
 5448TIP3    H237760   1.927   0.586   1.744 -0.6297 -1.0310 -0.9267
 5449TIP3   OH237761   5.244   5.565   2.912  0.3110 -0.4320 -0.2651
 5449TIP3    H137762   5.236   5.579   3.007  1.1558 -0.8287 -0.1285
 5449TIP3    H237763   5.292   5.642   2.881 -0.5828  0.0454 -0.4854
 5450TIP3   OH237764   2.649   0.961  15.572 -0.5799  0.1556  0.1562
 5450TIP3    H137765   2.585   0.956  15.643  0.3681  0.6609  1.0599
 5450TIP3    H237766   2.733   0.941  15.614  0.0093  0.6009 -0.7980
 5451TIP3   OH237767   1.329   6.307   3.682  0.1412  0.2010  0.1495
 5451TIP3    H137768   1.402   6.269   3.634  0.4081  0.6484  0.2023
 5451TIP3    H237769   1.348   6.400   3.686  0.1454  0.1603  1.1693
 5452TIP3   OH237770   1.024   4.398   0.818 -0.7034  0.2500  0.7918
 5452TIP3    H137771   1.090   4.451   0.772 -0.8360  0.8574  1.2924
 5452TIP3    H237772   1.070   4.365   0.896 -0.6181 -0.3877  0.4778
 5453TIP3   OH237773   0.103   0.028  15.421  0.1453 -0.2736  0.1022
 5453TIP3    H137774   0.069  -0.059  15.444  1.5796 -0.8603  0.0914
 5453TIP3    H237775   0.025   0.079  15.398 -0.6291 -1.8752 -0.9293
 5454TIP3   OH237776   1.503   2.987   0.404 -0.8125  0.0662 -0.1016
 5454TIP3    H137777   1.540   2.903   0.377 -1.7268 -0.5727  0.6104
 5454TIP3    H237778   1.505   3.041   0.324  0.0204 -0.5353 -0.4946
 5455TIP3   OH237779   5.151   3.878  13.039  0.5073 -0.1298  0.1933
 5455TIP3    H137780   5.064   3.863  13.076  0.0935 -1.0132 -1.1103
 5455TIP3    H237781   5.135   3.892  12.946  1.7369 -0.0560 -0.0060
 5456TIP3   OH237782   1.789   6.162  10.941  0.3504 -0.1130 -0.3926
 5456TIP3    H137783   1.824   6.234  10.993  0.0475 -1.3141  1.5217
 5456TIP3    H237784   1.837   6.166  10.858 -0.4285  2.9387 -0.7421
 5457TIP3   OH237785   2.445   3.524  14.724  0.1219  0.6641 -0.2737
 5457TIP3    H137786   2.460   3.517  14.629 -0.8950  0.9032 -0.4479
 5457TIP3    H237787   2.470   3.614  14.745 -1.1391  1.0900 -0.5821
 5458TIP3   OH237788   6.363   3.225  13.644  0.6693  0.4090 -0.6615
 5458TIP3    H137789   6.413   3.150  13.678 -1.7899 -0.6291  0.7801
 5458TIP3    H237790   6.366   3.290  13.714 -3.2935 -1.2271  1.1940
 5459TIP3   OH237791   3.502   4.643  17.186  0.2546 -0.0375 -0.1735
 5459TIP3    H137792   3.446   4.717  17.163  1.1374  0.4567 -0.7779
 5459TIP3    H237793   3.503   4.643  17.282 -0.3299  0.2859 -0.1699
 5460TIP3   OH237794   1.172   1.377  17.168  0.2491 -0.4068 -0.1374
 5460TIP3    H137795   1.139   1.407  17.083 -0.3853 -0.7966 -0.0379
 5460TIP3    H237796   1.231   1.305  17.147 -0.1697 -0.7239 -0.2309
 5461TIP3   OH237797   6.294   1.502   2.934 -0.0600  0.1385  0.0381
 5461TIP3    H137798   6.247   1.420   2.920  1.7438 -0.6925 -1.4512
 5461TIP3    H237799   6.261   1.561   2.867 -0.9868  0.4856  0.7852
 5462TIP3   OH237800   3.302   3.343  13.726 -0.1098  0.0142  0.1655
 5462TIP3    H137801   3.210   3.355  13.751 -0.5101 -0.4918 -1.0510
 5462TIP3    H237802   3.340   3.295  13.799 -0.5346  1.1742  1.1875
 5463TIP3   OH237803   5.131   4.694   0.922  0.2557 -0.4235  0.0208
 5463TIP3    H137804   5.064   4.650   0.870 -0.9200 -0.5703  1.6253
 5463TIP3    H237805   5.135   4.783   0.887  0.5673 -0.9483 -1.3045
 5464TIP3   OH237806   2.367   1.491  11.573 -0.2033 -0.5719 -0.2561
 5464TIP3    H137807   2.440   1.478  11.512 -2.0984  0.1789 -2.8035
 5464TIP3    H237808   2.350   1.585  11.569 -1.3739 -0.7594  0.1865
 5465TIP3   OH237809   3.811   6.006   1.582 -0.7037 -0.2034 -0.4833
 5465TIP3    H137810   3.744   6.065   1.547 -1.7026 -0.4410  0.9419
 5465TIP3    H237811   3.817   5.936   1.517 -0.7833  0.5757 -1.3349
 5466TIP3   OH237812   1.932   4.473  17.047 -0.2758 -0.8964  0.1150
 5466TIP3    H137813   2.025   4.457  17.063 -0.2087 -0.0069  0.7077
 5466TIP3    H237814   1.911   4.421  16.970  0.8534 -0.6535 -0.3632
 5467TIP3   OH237815   1.783   2.405  10.857  0.6000 -0.0030 -0.2747
 5467TIP3    H137816   1.872   2.386  10.825  0.9365 -0.6689  1.0169
 5467TIP3    H237817   1.749   2.469  10.795  1.1495 -1.4298 -2.1010
 5468TIP3   OH237818   3.997   5.124   1.568 -0.4912  0.0413 -0.4957
 5468TIP3    H137819   3.911   5.126   1.527 -0.2303 -1.8586 -1.1737
 5468TIP3    H237820   3.979   5.114   1.661 -0.9967 -2.3034 -0.8196
 5469TIP3   OH237821   1.148   2.224  16.392  0.1288 -0.3752  0.3879
 5469TIP3    H137822   1.184   2.300  16.439  0.5872 -1.5309  1.9578
 5469TIP3    H237823   1.090   2.262  16.326  1.2177  1.3806  0.4132
 5470TIP3   OH237824   0.758   5.941   4.724  0.0163  0.1561 -0.3754
 5470TIP3    H137825   0.827   5.875   4.720 -0.3644 -0.5135  2.8847
 5470TIP3    H237826   0.677   5.891   4.729 -0.4756  0.9150 -0.6173
 5471TIP3   OH237827   6.033   3.801   1.551 -0.0918 -0.4512 -0.4980
 5471TIP3    H137828   6.072   3.880   1.588 -1.0602 -0.1381 -0.1200
 5471TIP3    H237829   6.107   3.750   1.518  0.3979  1.6352 -2.7770
 5472TIP3   OH237830   2.469   5.595  15.056  0.5253 -0.6724 -0.1556
 5472TIP3    H137831   2.447   5.588  14.963 -2.0701 -0.0216  0.3651
 5472TIP3    H237832   2.457   5.506  15.090 -0.4461 -0.4974 -0.0470
 5473TIP3   OH237833   5.748   0.808   2.256  0.1309 -0.4589 -0.5226
 5473TIP3    H137834   5.772   0.832   2.167 -1.4746 -0.8467 -1.0728
 5473TIP3    H237835   5.674   0.748   2.246 -1.8979  1.6497  1.0991
 5474TIP3   OH237836   6.081   1.898   3.203 -0.0681  0.1697  0.3789
 5474TIP3    H137837   6.046   1.986   3.217 -0.4694  0.1001 -0.1613
 5474TIP3    H237838   6.172   1.912   3.177 -0.3760  0.4783 -0.5643
 5475TIP3   OH237839   0.899   0.430  17.108 -0.2751  0.6100  0.4878
 5475TIP3    H137840   0.982   0.408  17.064 -1.0582 -1.3754 -0.0715
 5475TIP3    H237841   0.908   0.522  17.131  2.3939  0.2591  1.0675
 5476TIP3   OH237842   2.067   3.527  16.056  0.0432 -0.2234  0.0358
 5476TIP3    H137843   2.055   3.491  16.144 -0.6154 -2.3934 -0.9273
 5476TIP3    H237844   1.987   3.504  16.009  1.1905 -0.7573 -1.6942
 5477TIP3   OH237845   6.046   2.651  10.954 -0.5847  0.5464  0.4133
 5477TIP3    H137846   5.975   2.707  10.985 -1.3119 -1.4861  2.5809
 5477TIP3    H237847   6.003   2.583  10.903  0.2233  1.4717 -1.5752
 5478TIP3   OH237848   4.958   0.893  11.863  0.5179  0.2648 -0.4422
 5478TIP3    H137849   5.022   0.875  11.794 -2.4463  0.3360 -3.3350
 5478TIP3    H237850   4.966   0.988  11.878  1.2872  0.2213 -0.5390
 5479TIP3   OH237851   4.571   3.699  12.048  0.2359 -0.0948  0.2070
 5479TIP3    H137852   4.570   3.609  12.082 -0.8668  0.1838  0.9285
 5479TIP3    H237853   4.575   3.754  12.126  1.2135  0.4805 -0.2489
 5480TIP3   OH237854   4.988   5.430  13.017 -0.6571  0.0448 -0.3050
 5480TIP3    H137855   5.045   5.503  12.994  0.3345  0.1219  2.2496
 5480TIP3    H237856   5.040   5.352  12.998 -0.6125  0.0509 -0.2021
 5481TIP3   OH237857   0.733   4.832   2.516 -0.2391 -0.0513  0.2949
 5481TIP3    H137858   0.729   4.880   2.598  3.4244  0.4464  0.2610
 5481TIP3    H237859   0.644   4.798   2.504 -1.3736  1.6152  3.3607
 5482TIP3   OH237860   6.704   1.992   3.755  0.8514  0.1673  0.2263
 5482TIP3    H137861   6.635   2.050   3.723  0.9247  1.2035  1.8892
 5482TIP3    H237862   6.665   1.946   3.829  1.4938 -0.2823  0.2871
 5483TIP3   OH237863   4.813   2.737  13.301 -0.3739  0.3162  0.1857
 5483TIP3    H137864   4.867   2.804  13.342 -0.2189 -0.7551  1.7952
 5483TIP3    H237865   4.851   2.723  13.215 -0.3483  2.2089 -0.1243
 5484TIP3   OH237866   5.080   6.180  16.458 -0.5115 -0.4478 -0.7087
 5484TIP3    H137867   5.114   6.256  16.410  3.1234 -0.5881  1.3918
 5484TIP3    H237868   5.066   6.213  16.547 -2.3232 -1.4129 -0.6208
 5485TIP3   OH237869   6.358   6.716  16.545 -0.5797 -0.4364  0.1616
 5485TIP3    H137870   6.384   6.768  16.621 -0.2003 -1.1714  0.5495
 5485TIP3    H237871   6.304   6.646  16.582 -2.7378  0.8142 -0.5974
 5486TIP3   OH237872   2.190   1.895   6.439  0.1710 -0.1993 -0.1365
 5486TIP3    H137873   2.281   1.922   6.427  1.0051 -2.0188  1.6630
 5486TIP3    H237874   2.183   1.878   6.534 -1.4041 -2.1762 -0.5617
 5487TIP3   OH237875   0.803   3.819  11.034 -0.0314 -0.1134 -0.1285
 5487TIP3    H137876   0.815   3.788  11.124  0.1359  1.8721  0.5474
 5487TIP3    H237877   0.890   3.811  10.995  0.4459  1.2178  0.6127
 5488TIP3   OH237878   1.226   0.345   5.091 -0.1582  0.0583 -1.0805
 5488TIP3    H137879   1.198   0.267   5.043 -1.6378  1.0495 -1.8724
 5488TIP3    H237880   1.212   0.417   5.030  0.4367  1.0405 -0.0783
 5489TIP3   OH237881   4.537   5.013  13.881 -0.1810  0.2612 -0.1909
 5489TIP3    H137882   4.616   4.996  13.829 -0.4227 -0.1728 -0.4207
 5489TIP3    H237883   4.494   5.085  13.837  0.3745  0.8713  0.2527
 5490TIP3   OH237884   4.288   1.865   3.507 -0.1127 -0.2551  0.3765
 5490TIP3    H137885   4.306   1.838   3.597  0.9121  2.0759  0.9019
 5490TIP3    H237886   4.367   1.841   3.459  1.1768  2.5467  1.0293
 5491TIP3   OH237887   1.555   1.253   0.714 -0.0422  0.2954  0.1224
 5491TIP3    H137888   1.463   1.234   0.695  0.1108 -0.2610 -0.0655
 5491TIP3    H237889   1.552   1.314   0.788 -0.5836  0.8656 -0.3598
 5492TIP3   OH237890   4.452   4.131  17.082  0.0265 -0.4923 -0.3003
 5492TIP3    H137891   4.430   4.115  16.991 -1.4934  1.0028 -0.2241
 5492TIP3    H237892   4.373   4.106  17.130 -0.2478  1.5171  0.3252
 5493TIP3   OH237893   0.479   1.792  13.437  1.0356 -0.0611  0.2786
 5493TIP3    H137894   0.545   1.849  13.397  1.8086 -0.7298  0.5704
 5493TIP3    H237895   0.522   1.706  13.442 -0.2313 -0.7543 -0.4782
 5494TIP3   OH237896   6.535   4.168   2.333 -0.9473 -0.1944 -0.1942
 5494TIP3    H137897   6.577   4.232   2.392  0.9894 -1.1261 -0.5353
 5494TIP3    H237898   6.505   4.098   2.391 -1.0800 -0.0414 -0.0750
 5495TIP3   OH237899   3.611   4.524   1.055  0.0708  0.0290  0.0925
 5495TIP3    H137900   3.703   4.524   1.084  1.0759 -0.1726 -2.9464
 5495TIP3    H237901   3.585   4.616   1.059  0.2871  0.0500  1.2644
 5496TIP3   OH237902   0.235   4.091  14.633 -0.2352  0.6318  0.2771
 5496TIP3    H137903   0.157   4.109  14.684 -1.6086 -1.5350 -0.9854
 5496TIP3    H237904   0.261   4.002  14.659  0.4926  0.4653 -0.9671
 5497TIP3   OH237905   3.763   2.296   3.601  0.0282 -0.1233  0.7777
 5497TIP3    H137906   3.817   2.218   3.612  0.7871 -0.0268 -1.8511
 5497TIP3    H237907   3.674   2.262   3.587  0.3823 -0.5707 -0.5127
 5498TIP3   OH237908   4.657   6.769   1.909 -0.3229  0.4763  0.0725
 5498TIP3    H137909   4.631   6.723   1.989  0.3993  1.8132  1.0871
 5498TIP3    H237910   4.586   6.751   1.847  0.3849 -2.8011  0.1109
 5499TIP3   OH237911   5.252   0.253   2.900  0.8229  0.2081  0.3141
 5499TIP3    H137912   5.196   0.228   2.974  0.6932  0.6297  0.3591
 5499TIP3    H237913   5.289   0.170   2.869  0.8784  0.0293  0.8527
 5500TIP3   OH237914   2.637   1.912  12.016 -0.3185  0.1323  0.2173
 5500TIP3    H137915   2.720   1.947  11.983 -1.4064  0.7114 -1.9996
 5500TIP3    H237916   2.646   1.817  12.006  0.7929  0.0754  1.7421
 5501TIP3   OH237917   5.758   3.849  15.311  0.1969  0.3762 -0.6252
 5501TIP3    H137918   5.755   3.806  15.225 -0.5895  0.2628 -0.5431
 5501TIP3    H237919   5.847   3.834  15.342 -0.2534 -1.7990 -0.2829
 5502TIP3   OH237920   2.657   3.997  12.880  0.1705 -0.4673 -0.2821
 5502TIP3    H137921   2.669   4.035  12.968  1.4784 -0.0761 -0.6113
 5502TIP3    H237922   2.584   3.936  12.890 -1.9381  2.0477  0.2869
 5503TIP3   OH237923   4.236   0.972   6.485 -0.1045 -0.0664 -0.3759
 5503TIP3    H137924   4.229   0.985   6.580  0.4430  0.6506 -0.4340
 5503TIP3    H237925   4.207   1.055   6.447  0.4283 -0.0818 -0.8188
 5504TIP3   OH237926   0.433   1.885   4.783 -0.1237  0.3689  0.2756
 5504TIP3    H137927   0.475   1.950   4.840 -1.3261  0.2358  1.3420
 5504TIP3    H237928   0.346   1.873   4.821 -0.2240 -1.2211 -0.4231
 5505TIP3   OH237929   1.624   0.959   3.570  0.0519 -0.0466 -0.2313
 5505TIP3    H137930   1.711   0.994   3.588  0.6367 -0.9584 -1.2052
 5505TIP3    H237931   1.564   1.021   3.611  1.0660  1.7700 -1.4318
 5506TIP3   OH237932   0.981   4.608  11.434 -0.2017  0.1920 -0.0042
 5506TIP3    H137933   1.023   4.596  11.349 -0.4104 -1.8200  0.1624
 5506TIP3    H237934   0.891   4.633  11.413  0.3312  1.8781 -0.3546
 5507TIP3   OH237935   4.915   0.424   3.881  0.6034  0.2614 -0.2351
 5507TIP3    H137936   4.917   0.395   3.790  0.5093  2.1755 -0.8805
 5507TIP3    H237937   5.003   0.456   3.898  1.3227 -2.3583  1.1492
 5508TIP3   OH237938   1.840   5.028  13.979 -0.0941 -0.6580 -0.1120
 5508TIP3    H137939   1.745   5.033  13.970 -0.0008  0.0237 -0.7402
 5508TIP3    H237940   1.853   4.999  14.069 -0.9158 -2.2913 -0.5013
 5509TIP3   OH237941   6.144   2.622   1.932 -0.1107 -0.0891  0.9668
 5509TIP3    H137942   6.214   2.556   1.931 -0.5696 -0.6070 -1.4102
 5509TIP3    H237943   6.063   2.572   1.931 -0.4683  0.4277 -1.8096
 5510TIP3   OH237944   3.749   0.303  16.220  0.0164 -0.0753 -0.0244
 5510TIP3    H137945   3.723   0.393  16.237  0.7329  0.1762 -0.2468
 5510TIP3    H237946   3.707   0.252  16.289 -1.4791  0.2545 -0.6655
 5511TIP3   OH237947   1.271   6.091   5.608 -0.4090  0.6480  0.1641
 5511TIP3    H137948   1.313   6.139   5.536  1.0135  1.7314  1.6836
 5511TIP3    H237949   1.203   6.151   5.640  1.4843  1.7788  2.1789
 5512TIP3   OH237950   4.805   3.278  12.362  0.6161  0.2647  0.2772
 5512TIP3    H137951   4.835   3.243  12.278 -2.4050  3.4457 -2.3030
 5512TIP3    H237952   4.789   3.202  12.417  1.6980 -1.9310 -2.3780
 5513TIP3   OH237953   3.554   5.942   4.047 -0.6935 -0.0758  0.7608
 5513TIP3    H137954   3.589   5.931   4.135 -1.2459 -1.4848  0.8201
 5513TIP3    H237955   3.629   5.929   3.989 -0.5299 -0.1462  0.9871
 5514TIP3   OH237956   2.992   3.352  15.218 -0.3089 -0.1275 -0.3225
 5514TIP3    H137957   2.905   3.391  15.227 -0.7514 -1.5358  1.9334
 5514TIP3    H237958   3.010   3.313  15.304  2.5033  0.0341 -0.7937
 5515TIP3   OH237959   1.454   1.115   2.324 -0.3465  0.2767  0.0101
 5515TIP3    H137960   1.537   1.104   2.277 -0.8647 -1.4190 -0.5366
 5515TIP3    H237961   1.437   1.029   2.362  0.5410  1.8549  4.1730
 5516TIP3   OH237962   0.566   0.993   5.402  0.0494 -0.7290  0.2375
 5516TIP3    H137963   0.569   1.081   5.437  0.4276 -0.7008  0.1308
 5516TIP3    H237964   0.595   1.002   5.311  0.0752 -0.9586  0.2215
 5517TIP3   OH237965   5.071   2.961   1.786 -0.2573  0.0389  0.8728
 5517TIP3    H137966   5.079   2.885   1.844  0.1485 -0.0980  0.6364
 5517TIP3    H237967   5.161   2.994   1.777 -0.3942  0.3866  0.7614
 5518TIP3   OH237968   2.012   2.788   6.161  0.4676  0.2013  0.5208
 5518TIP3    H137969   1.965   2.730   6.221  0.6345  1.1776  1.6214
 5518TIP3    H237970   2.104   2.773   6.181  0.4921  1.2992  1.2490
 5519TIP3   OH237971   6.642   3.214  12.500  0.0036  0.0586  0.1454
 5519TIP3    H137972   6.712   3.240  12.439 -0.2687  2.1328  0.6697
 5519TIP3    H237973   6.688   3.184  12.578  0.3480 -2.0655 -0.8466
 5520TIP3   OH237974   3.716   2.892   3.917  0.2631 -0.1018  0.3991
 5520TIP3    H137975   3.674   2.806   3.923  0.9621 -0.5120 -0.4575
 5520TIP3    H237976   3.647   2.950   3.885  0.5615 -0.9436 -1.8427
 5521TIP3   OH237977   5.416   3.479   0.180 -1.0860  0.2972  0.6897
 5521TIP3    H137978   5.342   3.418   0.173  0.2173 -1.3957  1.5272
 5521TIP3    H237979   5.474   3.455   0.108 -1.0907  1.3282  0.3192
 5522TIP3   OH237980   2.021   5.165   6.587  0.0273  0.5108  0.0565
 5522TIP3    H137981   2.062   5.246   6.555 -0.2836 -0.0084 -1.7218
 5522TIP3    H237982   2.092   5.116   6.628  1.0584 -0.0488 -2.3266
 5523TIP3   OH237983   4.282   2.875   4.129  0.2736 -0.2780 -0.2271
 5523TIP3    H137984   4.359   2.855   4.076  0.6321  0.3124  0.0647
 5523TIP3    H237985   4.209   2.876   4.066  0.5159 -0.7460 -0.5147
 5524TIP3   OH237986   4.295   5.218  12.175 -0.1526 -0.7242 -0.1201
 5524TIP3    H137987   4.315   5.307  12.203  0.1759 -1.0784  0.8062
 5524TIP3    H237988   4.206   5.222  12.140  0.2665  0.1811 -1.0965
 5525TIP3   OH237989   5.969   1.182  15.612 -0.5302 -0.1176 -0.2644
 5525TIP3    H137990   5.992   1.247  15.545 -1.7422 -0.3562 -0.9288
 5525TIP3    H237991   6.010   1.215  15.692 -0.2751  0.9304 -0.8091
 5526TIP3   OH237992   1.656   1.486  16.562 -0.1420 -0.5519 -0.1040
 5526TIP3    H137993   1.650   1.552  16.632  0.9667 -0.3493 -0.2007
 5526TIP3    H237994   1.637   1.535  16.482 -1.3898 -0.7796  0.0362
 5527TIP3   OH237995   1.989   1.299   3.354 -0.1485 -0.0169  0.1115
 5527TIP3    H137996   2.024   1.319   3.267  0.2167 -1.4444 -0.0840
 5527TIP3    H237997   1.898   1.274   3.338 -0.4554  0.9557  0.2966
 5528TIP3   OH237998   2.781   3.767   2.748  0.3666 -0.5962  0.0938
 5528TIP3    H137999   2.741   3.811   2.674  1.9211  1.4495  0.4166
 5528TIP3    H238000   2.746   3.678   2.745 -1.0737  0.0032 -1.9301
 5529TIP3   OH238001   0.837   2.117   0.840  0.5570 -0.2974  0.0324
 5529TIP3    H138002   0.877   2.134   0.754  0.2648 -0.4603 -0.1329
 5529TIP3    H238003   0.788   2.036   0.828 -1.2204  0.8097 -0.2180
 5530TIP3   OH238004   3.191   2.028   4.143 -0.0022 -0.4162  0.7276
 5530TIP3    H138005   3.280   2.048   4.171  0.3847  0.6785 -1.1899
 5530TIP3    H238006   3.188   1.932   4.140  1.1527 -0.4532  0.6422
 5531TIP3   OH238007   6.265   0.121  15.526  0.0729  0.2749  0.0739
 5531TIP3    H138008   6.345   0.118  15.578  0.4936 -0.2042 -0.6044
 5531TIP3    H238009   6.213   0.046  15.557  0.4301 -0.1557 -0.3718
 5532TIP3   OH238010   0.897   3.942  15.798  0.4707  0.0529 -0.4411
 5532TIP3    H138011   0.848   3.871  15.839  1.5580 -0.1787  0.4815
 5532TIP3    H238012   0.985   3.936  15.837  0.1548  2.8513  0.8102
 5533TIP3   OH238013   5.205   4.809   3.827 -0.0988 -0.1751 -0.2502
 5533TIP3    H138014   5.301   4.805   3.835  0.0635 -0.1407 -2.1169
 5533TIP3    H238015   5.178   4.717   3.826 -0.3630 -0.2083  3.0080
 5534TIP3   OH238016   0.460   0.349  10.951 -0.1330 -0.0360  0.7465
 5534TIP3    H138017   0.450   0.337  10.856 -1.2117  0.9243  0.7220
 5534TIP3    H238018   0.525   0.284  10.977 -0.0910 -0.5478 -0.5987
 5535TIP3   OH238019   3.368   1.124  11.371 -0.1803 -0.3780 -0.1524
 5535TIP3    H138020   3.439   1.186  11.389  0.2111 -0.8309 -0.0950
 5535TIP3    H238021   3.296   1.177  11.340  0.8006 -0.1028 -1.9877
 5536TIP3   OH238022   1.617   4.922  10.281 -0.0237  0.2911  0.2957
 5536TIP3    H138023   1.524   4.900  10.272  0.4901 -1.1840 -1.7634
 5536TIP3    H238024   1.637   4.974  10.203  0.8998  0.5576  0.6992
 5537TIP3   OH238025   6.419   0.825  11.768 -0.4449  0.7768 -0.3233
 5537TIP3    H138026   6.464   0.840  11.851  0.0603 -2.2158  0.0096
 5537TIP3    H238027   6.489   0.824  11.702 -0.4407 -0.0282 -0.3203
 5538TIP3   OH238028   5.388   5.027  17.171 -0.4446  0.6931 -0.3327
 5538TIP3    H138029   5.338   4.975  17.234  0.9269  1.2240  1.2349
 5538TIP3    H238030   5.330   5.036  17.095 -1.1459 -2.1105 -0.1719
 5539TIP3   OH238031   4.230   5.183  15.388  0.1924 -0.1807  0.1557
 5539TIP3    H138032   4.207   5.140  15.470 -2.6957  1.8235  0.4684
 5539TIP3    H238033   4.310   5.231  15.407 -1.8294  2.3352  2.5748
 5540TIP3   OH238034   0.772   1.146  13.949  0.1658  0.6363  0.4038
 5540TIP3    H138035   0.856   1.112  13.979 -0.0377  0.2624  0.5473
 5540TIP3    H238036   0.768   1.235  13.984  1.3832  1.3816 -1.2580
 5541TIP3   OH238037   3.720   5.675  12.911 -0.0331  0.0046 -0.3393
 5541TIP3    H138038   3.692   5.659  12.821  0.9073  0.7879 -0.7856
 5541TIP3    H238039   3.800   5.728  12.902 -0.9768  1.6971  1.0055
 5542TIP3   OH238040   5.616   3.606   4.657  0.7906  0.0905 -0.2718
 5542TIP3    H138041   5.629   3.529   4.602  1.6754 -1.2054  1.6948
 5542TIP3    H238042   5.702   3.623   4.696 -0.0641  0.2889  1.5918
 5543TIP3   OH238043   4.084   5.234  13.957  0.1499 -0.3709 -0.1258
 5543TIP3    H138044   4.049   5.147  13.978 -0.5090 -0.6348 -2.2820
 5543TIP3    H238045   4.044   5.292  14.023 -2.4895 -1.0591 -1.0774
 5544TIP3   OH238046   5.208   0.975   4.932 -0.2301  0.4001  0.1940
 5544TIP3    H138047   5.227   0.926   5.012 -1.0097  0.3710  0.3705
 5544TIP3    H238048   5.292   1.012   4.905 -0.0457  0.7673  1.2709
 5545TIP3   OH238049   3.906   1.683   6.487  0.2855  0.3070 -0.0347
 5545TIP3    H138050   3.935   1.654   6.401 -1.2706  0.8436 -0.7720
 5545TIP3    H238051   3.984   1.677   6.543  1.2268 -0.3440 -1.3999
 5546TIP3   OH238052   2.014   0.700  15.571  0.4248  0.6170  0.1801
 5546TIP3    H138053   1.939   0.714  15.513  0.0649  0.7138  0.6647
 5546TIP3    H238054   2.080   0.762  15.540 -0.3700  1.8616  0.9182
 5547TIP3   OH238055   3.771   1.985   2.316 -0.0228  0.1620  0.6097
 5547TIP3    H138056   3.713   1.909   2.320  0.9672 -0.6162  0.4943
 5547TIP3    H238057   3.724   2.054   2.362 -1.6262 -0.0554 -0.6511
 5548TIP3   OH238058   2.997   5.745   1.095 -0.8183  0.5671  0.2787
 5548TIP3    H138059   2.957   5.666   1.061  2.4286 -1.7154  1.5847
 5548TIP3    H238060   3.043   5.784   1.021 -1.0908  0.4005  0.0231
 5549TIP3   OH238061   5.540   6.016   1.545  0.0200 -0.2173  0.5852
 5549TIP3    H138062   5.452   6.015   1.508  0.1601 -0.1706  0.2419
 5549TIP3    H238063   5.594   6.055   1.476  0.3992 -0.7202  0.5936
 5550TIP3   OH238064   4.004   2.837   2.635  0.1491 -0.1088  0.4182
 5550TIP3    H138065   3.996   2.783   2.557  1.3568  2.2300 -1.3961
 5550TIP3    H238066   4.063   2.789   2.692  0.2678 -1.2336 -0.6402
 5551TIP3   OH238067   4.511   2.093   0.513  0.0992  0.2375  0.1764
 5551TIP3    H138068   4.489   2.080   0.606 -0.4051  1.9091  0.3012
 5551TIP3    H238069   4.600   2.058   0.505 -0.0766 -0.4733  1.1552
 5552TIP3   OH238070   0.352   1.505   1.091  0.3527 -0.1536  0.0948
 5552TIP3    H138071   0.388   1.489   1.178 -0.0228 -1.0461  0.0984
 5552TIP3    H238072   0.413   1.566   1.050  0.5600  0.2283  0.9632
 5553TIP3   OH238073   3.458   4.299  11.120  0.2031 -0.0374  0.7683
 5553TIP3    H138074   3.459   4.252  11.203  3.3490 -0.1750  0.6949
 5553TIP3    H238075   3.368   4.288  11.087 -0.6591 -1.2176  3.4147
 5554TIP3   OH238076   2.798   1.914  17.197  0.2394  0.1619 -0.2581
 5554TIP3    H138077   2.718   1.919  17.145 -0.3325 -1.5460  0.3893
 5554TIP3    H238078   2.860   1.972  17.153 -0.5443 -0.4777 -2.2499
 5555TIP3   OH238079   6.450   1.331   2.038  0.1811 -0.2760  0.0455
 5555TIP3    H138080   6.469   1.248   1.994  2.6838 -1.3080  2.9227
 5555TIP3    H238081   6.529   1.383   2.026 -0.2613  0.5810  0.7762
 5556TIP3   OH238082   2.742   4.073  13.392 -0.1308 -0.1106  0.0452
 5556TIP3    H138083   2.682   4.091  13.464 -0.8262  0.3895 -0.6438
 5556TIP3    H238084   2.821   4.123  13.413 -0.4193  0.2226  0.3430
 5557TIP3   OH238085   3.013   1.430  11.401 -0.2806 -0.2600  0.2100
 5557TIP3    H138086   2.935   1.485  11.390 -0.4582 -0.4920  0.3118
 5557TIP3    H238087   3.013   1.407  11.494 -0.1932 -0.4184  0.1704
 5558TIP3   OH238088   4.018   3.992   5.731 -0.3174  0.0938  0.0188
 5558TIP3    H138089   3.990   3.957   5.816  0.1695  0.5539  0.3764
 5558TIP3    H238090   4.003   4.086   5.738  0.7375  0.2711 -0.0062
 5559TIP3   OH238091   6.038   1.883  13.754  0.0946  0.4512 -0.3038
 5559TIP3    H138092   5.972   1.914  13.816 -0.7160 -0.3670 -0.7447
 5559TIP3    H238093   6.111   1.854  13.809 -0.8723 -0.8528  0.3173
 5560TIP3   OH238094   2.006   0.337  15.841 -0.2395 -0.0066  0.0436
 5560TIP3    H138095   1.936   0.399  15.823 -1.3239 -1.4043 -0.7446
 5560TIP3    H238096   1.963   0.251  15.834  0.7017 -0.8034  3.3492
 5561TIP3   OH238097   2.782   3.627  12.299  0.4935 -0.2278  0.0435
 5561TIP3    H138098   2.831   3.635  12.381  0.3321 -1.3712  0.2591
 5561TIP3    H238099   2.693   3.605  12.326  0.6616 -1.5759 -0.4600
 5562TIP3   OH238100   2.928   5.494  16.811  0.4056 -0.6970 -0.1054
 5562TIP3    H138101   2.921   5.570  16.868 -2.7361 -0.9018 -0.1378
 5562TIP3    H238102   2.956   5.529  16.726  0.5122  0.2030  0.3023
 5563TIP3   OH238103   6.399   3.078   5.590 -0.2369  0.1631 -0.3596
 5563TIP3    H138104   6.446   3.155   5.622 -1.8284  0.6123  0.9723
 5563TIP3    H238105   6.333   3.113   5.530  0.7841 -0.4101 -1.8216
 5564TIP3   OH238106   1.472   3.446   4.625  0.4773  0.0018 -1.0333
 5564TIP3    H138107   1.510   3.526   4.661  0.0437 -1.7797  3.7158
 5564TIP3    H238108   1.441   3.471   4.538  0.7374  4.8907  0.1552
 5565TIP3   OH238109   5.975   5.259   3.024 -0.0095 -0.0340 -0.2849
 5565TIP3    H138110   5.961   5.264   3.119  1.7937 -0.1177  0.0134
 5565TIP3    H238111   5.908   5.316   2.986 -0.8815 -0.1662  1.0289
 5566TIP3   OH238112   2.602   1.225   4.552  0.2362 -1.0057 -0.2204
 5566TIP3    H138113   2.620   1.311   4.515 -1.0048 -0.5914  0.1095
 5566TIP3    H238114   2.511   1.230   4.581  0.0739 -2.5065 -0.4301
 5567TIP3   OH238115   0.631   5.666  16.306  0.0221 -0.5169 -0.5027
 5567TIP3    H138116   0.627   5.584  16.355 -0.8540  0.4293  1.0301
 5567TIP3    H238117   0.551   5.713  16.331 -0.6390 -0.1561 -3.0945
 5568TIP3   OH238118   2.339   0.640  14.312  0.4465 -0.0704  0.4021
 5568TIP3    H138119   2.313   0.689  14.234 -0.7693  0.3142  1.0356
 5568TIP3    H238120   2.281   0.672  14.381  0.0655 -1.9233  0.9854
 5569TIP3   OH238121   6.739   0.642   6.331 -0.2182  0.1519  0.1983
 5569TIP3    H138122   6.773   0.729   6.309  1.9557 -0.4920  0.8271
 5569TIP3    H238123   6.770   0.585   6.261  2.1885 -0.9051  2.0407
 5570TIP3   OH238124   0.771   4.433  15.209 -0.0978 -0.2239  0.3228
 5570TIP3    H138125   0.794   4.474  15.126 -0.6229  1.2141  0.8798
 5570TIP3    H238126   0.811   4.346  15.204  0.9329  0.3026 -0.9123
 5571TIP3   OH238127   0.535   6.172  14.858  0.1120  0.1902 -0.3233
 5571TIP3    H138128   0.551   6.195  14.950 -0.2512 -0.2955 -0.1380
 5571TIP3    H238129   0.484   6.245  14.823 -1.3880 -0.5129  0.3728
 5572TIP3   OH238130   4.802   0.168   1.775 -0.4305 -0.1647  0.5931
 5572TIP3    H138131   4.757   0.110   1.836  0.2637 -0.7728  0.5378
 5572TIP3    H238132   4.800   0.121   1.692 -2.8173  1.3914 -0.2519
 5573TIP3   OH238133   6.349   2.838   3.830  0.1056 -0.4229  0.2153
 5573TIP3    H138134   6.326   2.876   3.915 -0.6258  0.2320 -0.2677
 5573TIP3    H238135   6.360   2.914   3.772 -2.4175 -0.9723 -1.0245
 5574TIP3   OH238136   0.170   1.859  15.148 -0.3826  0.0538  0.5926
 5574TIP3    H138137   0.158   1.951  15.171  1.7485  0.5664 -0.1967
 5574TIP3    H238138   0.094   1.838  15.094 -0.3336  1.7104 -0.1743
 5575TIP3   OH238139   5.553   0.626   2.731 -0.1235  0.1757  0.4481
 5575TIP3    H138140   5.497   0.595   2.802 -2.0212  0.0626 -1.0732
 5575TIP3    H238141   5.634   0.576   2.742 -1.3422 -1.7599  0.9614
 5576TIP3   OH238142   2.240   6.148   4.838  0.1642  0.0461 -0.1190
 5576TIP3    H138143   2.252   6.061   4.877 -1.0273 -0.1971 -0.2669
 5576TIP3    H238144   2.147   6.151   4.817  0.0758  1.6148  0.4839
 5577TIP3   OH238145   3.314   6.076  10.774  0.0815 -0.2201 -0.2295
 5577TIP3    H138146   3.396   6.123  10.758 -0.5160  0.6344 -0.8152
 5577TIP3    H238147   3.340   5.984  10.776  0.7023 -0.1367 -2.7962
 5578TIP3   OH238148   3.901   0.810  11.244 -0.0720  0.3353 -0.5817
 5578TIP3    H138149   3.890   0.728  11.196 -2.3888  2.2586 -3.5770
 5578TIP3    H238150   3.996   0.818  11.256  0.2364 -2.4144 -0.8548
 5579TIP3   OH238151   2.269   0.217   0.138 -0.1807  0.5715 -0.1917
 5579TIP3    H138152   2.267   0.127   0.171 -4.4443  1.9020  3.7493
 5579TIP3    H238153   2.188   0.226   0.088  1.0791  1.7559 -2.0843
 5580TIP3   OH238154   5.018   0.224  11.915 -0.1692  0.0648  0.2885
 5580TIP3    H138155   5.052   0.312  11.935  0.7019 -0.2168  0.0892
 5580TIP3    H238156   5.093   0.166  11.931 -0.2297 -0.4554 -1.2834
 5581TIP3   OH238157   4.557   1.580   1.277  0.2573  0.1409  0.0658
 5581TIP3    H138158   4.468   1.549   1.264  0.3478 -0.4419  0.8354
 5581TIP3    H238159   4.581   1.551   1.365  0.9829  0.8342  0.1105
 5582TIP3   OH238160   6.125   3.691  14.138 -0.0354 -0.0464 -0.0709
 5582TIP3    H138161   6.069   3.625  14.096 -3.2436  3.1488 -1.1437
 5582TIP3    H238162   6.085   3.704  14.224  0.0846  1.0708 -0.1832
 5583TIP3   OH238163   3.335   1.502  14.855  0.7286 -0.0418 -0.3865
 5583TIP3    H138164   3.326   1.558  14.932 -3.4110  0.1071 -0.8353
 5583TIP3    H238165   3.422   1.522  14.820  1.5125  2.0399  2.5487
 5584TIP3   OH238166   4.582   5.695   5.512 -0.1356  0.0724 -0.0043
 5584TIP3    H138167   4.520   5.746   5.459 -0.0019 -2.2188 -2.4736
 5584TIP3    H238168   4.659   5.751   5.519 -0.3000  0.5818 -1.9565
 5585TIP3   OH238169   2.921   5.874   1.833 -0.2893 -0.2769 -0.1724
 5585TIP3    H138170   2.844   5.838   1.877 -1.4617  0.2789 -1.6942
 5585TIP3    H238171   2.896   5.964   1.812  0.8844 -0.0105 -0.4626
 5586TIP3   OH238172   2.321   5.924   0.821  0.0789  0.1856  0.0216
 5586TIP3    H138173   2.248   5.931   0.883  0.4641 -0.0241  0.5086
 5586TIP3    H238174   2.396   5.900   0.876  0.3431 -0.3829 -0.5874
 5587TIP3   OH238175   3.531   1.354  11.394  0.6407  0.7419 -0.6076
 5587TIP3    H138176   3.478   1.426  11.426  1.1534 -0.2029  2.5753
 5587TIP3    H238177   3.593   1.336  11.465 -0.2783 -3.6239 -0.7371
 5588TIP3   OH238178   3.187   3.734   3.444 -0.1728  0.2871  0.7196
 5588TIP3    H138179   3.255   3.738   3.377  0.2263  0.7814  1.1557
 5588TIP3    H238180   3.229   3.693   3.519 -0.3477  0.6247  1.0017
 5589TIP3   OH238181   1.078   3.763   3.694  0.1879  0.3049 -0.2541
 5589TIP3    H138182   1.146   3.724   3.749  0.9343  0.0719 -1.3400
 5589TIP3    H238183   1.053   3.693   3.634  0.5101  1.0503 -1.2647
 5590TIP3   OH238184   4.343   6.253   3.687  0.5384 -0.2444  0.6153
 5590TIP3    H138185   4.382   6.194   3.623  1.9242 -0.1866  1.3845
 5590TIP3    H238186   4.342   6.338   3.643 -0.9198 -0.7034 -0.2753
 5591TIP3   OH238187   0.724   2.272   4.244 -0.3053  0.3575 -0.0038
 5591TIP3    H138188   0.697   2.184   4.267  1.2159  0.0446  0.6823
 5591TIP3    H238189   0.726   2.320   4.327 -0.8249  0.9550 -0.3286
 5592TIP3   OH238190   5.556   2.503   0.767 -0.5418 -0.2888  1.0337
 5592TIP3    H138191   5.625   2.569   0.775 -0.5816 -0.2110  0.7086
 5592TIP3    H238192   5.474   2.552   0.767 -0.5619 -0.3180  0.5469
 5593TIP3   OH238193   4.208   4.366   5.082 -0.3083 -0.3307 -0.3388
 5593TIP3    H138194   4.164   4.439   5.038 -1.9834 -0.3800  1.2262
 5593TIP3    H238195   4.174   4.367   5.171  1.3511 -1.6436  0.3271
 5594TIP3   OH238196   1.887   4.017  11.755  0.0140 -0.1013  0.0658
 5594TIP3    H138197   1.955   4.084  11.743 -3.0958  2.8057 -2.4391
 5594TIP3    H238198   1.916   3.944  11.700  0.3027  1.7820 -2.3907
 5595TIP3   OH238199   4.302   3.657  11.847  0.1978 -0.3028 -0.1614
 5595TIP3    H138200   4.345   3.718  11.787 -0.4015 -1.0410 -1.3625
 5595TIP3    H238201   4.221   3.633  11.803  0.1851 -1.5651  0.5267
 5596TIP3   OH238202   3.009   4.288   1.517 -0.1887  0.0655 -0.2159
 5596TIP3    H138203   3.004   4.381   1.539  0.8770  0.5192 -1.8036
 5596TIP3    H238204   2.938   4.275   1.454 -0.7316 -0.3426  0.4758
 5597TIP3   OH238205   5.410   2.541   1.272  0.1405 -0.6885 -0.4159
 5597TIP3    H138206   5.468   2.550   1.348  1.9748 -0.0431 -1.8753
 5597TIP3    H238207   5.356   2.464   1.293 -0.1619  0.1344  2.0298
 5598TIP3   OH238208   0.911   3.042   1.706  0.0567 -0.0127 -0.7182
 5598TIP3    H138209   0.826   3.059   1.745 -0.6127  0.9769 -2.5656
 5598TIP3    H238210   0.970   3.105   1.748  0.0631 -1.2334  1.1349
 5599TIP3   OH238211   4.604   5.830  16.641 -0.0340 -0.3129  0.7266
 5599TIP3    H138212   4.654   5.749  16.651 -0.5136 -0.4626  1.9613
 5599TIP3    H238213   4.553   5.816  16.561  0.2577 -1.0204  0.6577
 5600TIP3   OH238214   5.005   5.275  15.427 -0.3608  0.1634  0.6999
 5600TIP3    H138215   5.034   5.363  15.406 -2.6175  0.1328 -3.1133
 5600TIP3    H238216   5.085   5.222  15.425  0.4348  1.3728 -1.6116
 5601TIP3   OH238217   3.075   2.318  10.589  0.0487 -0.8693 -0.3554
 5601TIP3    H138218   3.127   2.390  10.624 -1.6645 -0.0438  0.5412
 5601TIP3    H238219   3.130   2.240  10.603  1.2140  0.0250  0.1607
 5602TIP3   OH238220   1.275   0.279   1.224 -0.1356 -0.0470 -0.2537
 5602TIP3    H138221   1.231   0.206   1.268  0.9794  0.8300  2.4368
 5602TIP3    H238222   1.211   0.349   1.222 -1.1384 -1.0009 -2.6488
 5603TIP3   OH238223   5.567   4.332  17.099  0.4944 -0.1577  0.0338
 5603TIP3    H138224   5.497   4.380  17.054 -0.0551  0.7173  1.7589
 5603TIP3    H238225   5.524   4.293  17.176  1.2470 -2.2690 -0.5897
 5604TIP3   OH238226   0.636   0.053  12.702  0.0768  0.1088  0.3015
 5604TIP3    H138227   0.615   0.081  12.613  0.7538 -0.2541  0.0264
 5604TIP3    H238228   0.704   0.114  12.731  1.5659 -1.2415 -0.3043
 5605TIP3   OH238229   2.826   3.339   3.475 -0.3919 -0.4244  0.2642
 5605TIP3    H138230   2.877   3.420   3.479 -0.7325 -0.2577  1.3138
 5605TIP3    H238231   2.789   3.338   3.387  0.2328  0.1751 -0.0124
 5606TIP3   OH238232   4.518   5.829   2.852  0.0025  0.4022 -0.2492
 5606TIP3    H138233   4.523   5.738   2.880 -0.3759  0.2643 -0.6117
 5606TIP3    H238234   4.424   5.849   2.853  0.1333  1.0140  0.5373
 5607TIP3   OH238235   1.371   3.181  13.372  0.0861 -0.0402  0.1526
 5607TIP3    H138236   1.464   3.198  13.360  0.0358  0.8595  1.0054
 5607TIP3    H238237   1.361   3.168  13.466 -0.6414 -0.2385  0.0514
 5608TIP3   OH238238   1.101   6.706  16.412  0.8061 -0.0008 -0.3176
 5608TIP3    H138239   1.126   6.760  16.337 -1.9596  1.0120 -0.5558
 5608TIP3    H238240   1.138   6.753  16.487 -1.1283  1.9978 -0.5717
 5609TIP3   OH238241   1.238   3.777  14.730 -0.1699  0.8553  0.2911
 5609TIP3    H138242   1.314   3.834  14.729 -0.1243  0.8294  1.2525
 5609TIP3    H238243   1.169   3.830  14.769  0.0495  0.0605  1.8190
 5610TIP3   OH238244   0.244   4.356   5.551  0.1281 -0.1041 -1.1259
 5610TIP3    H138245   0.315   4.397   5.503  0.5343  2.1465  1.3094
 5610TIP3    H238246   0.170   4.416   5.541 -0.8076 -1.3522 -1.8326
 5611TIP3   OH238247   6.321   6.633  16.849 -0.4649  0.2139  0.1015
 5611TIP3    H138248   6.272   6.711  16.824  1.3199  0.2987 -3.3855
 5611TIP3    H238249   6.264   6.560  16.826 -0.7555  0.4007  0.2288
 5612TIP3   OH238250   1.904   1.891   3.398 -0.3818  0.2461 -0.2417
 5612TIP3    H138251   1.949   1.975   3.410  0.5166 -0.2997  0.2892
 5612TIP3    H238252   1.921   1.868   3.307  0.4822  0.0136 -0.0299
 5613TIP3   OH238253   4.434   5.018  12.044 -0.5306 -0.0706  0.2632
 5613TIP3    H138254   4.385   5.083  12.094 -1.9478 -0.0262 -1.1466
 5613TIP3    H238255   4.368   4.955  12.016  0.8423 -2.2591  1.7651
 5614TIP3   OH238256   1.139   3.036   3.461  0.0897  0.1031 -0.5485
 5614TIP3    H138257   1.158   2.991   3.543  1.3121  3.7382  1.2863
 5614TIP3    H238258   1.053   3.077   3.476  0.1116  0.4082 -1.2368
 5615TIP3   OH238259   3.896   3.026   1.331 -0.0121  0.3499 -0.1372
 5615TIP3    H138260   3.899   2.976   1.249 -0.8230 -1.1590  0.7156
 5615TIP3    H238261   3.930   3.112   1.309 -1.2995  0.3290 -2.3310
 5616TIP3   OH238262   4.079   1.673  12.708 -0.5295  0.1759  0.2608
 5616TIP3    H138263   4.154   1.639  12.756 -0.5785  0.6717  0.6809
 5616TIP3    H238264   4.003   1.647  12.759 -0.5559  1.1437  0.7260
 5617TIP3   OH238265   5.182   4.097   0.620 -0.6841  0.2019  0.0704
 5617TIP3    H138266   5.230   4.129   0.696  0.5690  2.9473 -1.7999
 5617TIP3    H238267   5.249   4.066   0.560 -1.4435  0.7674 -1.0970
 5618TIP3   OH238268   5.958   6.280   5.175 -0.0464 -0.0733  0.0065
 5618TIP3    H138269   6.044   6.309   5.207 -0.4226 -1.9042  2.8277
 5618TIP3    H238270   5.902   6.357   5.183  0.7234  0.4395  0.5421
 5619TIP3   OH238271   3.379   2.058  10.950 -0.7434  0.7077  0.0187
 5619TIP3    H138272   3.290   2.037  10.979 -1.4309  1.6907 -1.3198
 5619TIP3    H238273   3.387   2.014  10.865 -0.7236  2.3458 -0.8524
 5620TIP3   OH238274   3.360   2.904  11.899 -0.7907  0.2883  0.3455
 5620TIP3    H138275   3.288   2.843  11.917 -0.5799  0.4535  1.7786
 5620TIP3    H238276   3.411   2.861  11.830 -1.6982 -0.2848  0.0209
 5621TIP3   OH238277   6.190   4.003   3.271 -0.3547 -0.2273  0.3294
 5621TIP3    H138278   6.153   3.930   3.221 -0.9894  0.8258 -0.7761
 5621TIP3    H238279   6.274   4.021   3.229 -0.3390 -0.1243  0.4048
 5622TIP3   OH238280   0.551   0.356  11.419 -0.2660  0.1117 -0.1929
 5622TIP3    H138281   0.553   0.294  11.345 -1.0903  0.9466 -0.9308
 5622TIP3    H238282   0.546   0.300  11.497  1.9249 -0.8088 -0.6914
 5623TIP3   OH238283   2.865   1.653   3.280  0.4601  0.0953  0.3247
 5623TIP3    H138284   2.907   1.567   3.285  0.5430  0.2096  1.7298
 5623TIP3    H238285   2.793   1.640   3.218 -0.6411 -1.4959  1.8642
 5624TIP3   OH238286   2.931   1.063   0.241 -0.4147  0.4111  0.2670
 5624TIP3    H138287   2.992   1.066   0.168 -0.9900  0.6380 -0.2056
 5624TIP3    H238288   2.885   0.979   0.231  0.6458 -0.2971  1.2938
 5625TIP3   OH238289   2.574   1.431   2.513 -0.1208  0.1237 -0.4521
 5625TIP3    H138290   2.489   1.390   2.495 -0.7536  1.7010 -1.1664
 5625TIP3    H238291   2.631   1.358   2.535 -1.4423 -1.0603 -0.8326
 5626TIP3   OH238292   5.104   0.541  17.087 -0.2900  0.3298 -0.4566
 5626TIP3    H138293   5.146   0.613  17.040 -1.8297  0.5572 -1.4960
 5626TIP3    H238294   5.043   0.583  17.147 -0.2846 -0.0637 -0.1707
 5627TIP3   OH238295   3.445   5.473   2.942 -0.4283 -0.1840 -0.1076
 5627TIP3    H138296   3.488   5.554   2.917 -0.1264 -1.0025 -2.3097
 5627TIP3    H238297   3.363   5.501   2.983 -0.6264  1.2142 -1.4133
 5628TIP3   OH238298   3.921   5.121   1.050  0.5980  0.1179 -0.0478
 5628TIP3    H138299   3.936   5.032   1.083  1.6383 -0.4368 -1.9169
 5628TIP3    H238300   3.983   5.176   1.098  1.2831 -0.4797 -0.2454
 5629TIP3   OH238301   1.041   4.342   5.940 -0.4514 -0.5404  0.2959
 5629TIP3    H138302   1.011   4.339   6.031 -2.7537 -1.4686 -0.4695
 5629TIP3    H238303   0.969   4.382   5.892  0.9224  0.3541 -1.0768
 5630TIP3   OH238304   1.377   4.853   1.521  0.0474 -0.9620 -0.4419
 5630TIP3    H138305   1.458   4.904   1.521  0.6945 -1.9798  0.4958
 5630TIP3    H238306   1.330   4.884   1.599  0.2323 -1.4706 -0.1295
 5631TIP3   OH238307   1.141   3.930   4.606 -0.2605 -0.0626 -0.0077
 5631TIP3    H138308   1.149   4.020   4.636  1.0158  0.3617 -1.5519
 5631TIP3    H238309   1.056   3.901   4.640 -1.1852  2.0574 -0.4112
 5632TIP3   OH238310   6.406   1.485   1.372  0.2324  0.2744 -0.8146
 5632TIP3    H138311   6.358   1.508   1.293 -1.5545  0.4699  0.3073
 5632TIP3    H238312   6.361   1.531   1.442  1.0132 -0.9026  0.4911
 5633TIP3   OH238313   5.577   6.335   4.673  0.0606 -0.2063 -0.7359
 5633TIP3    H138314   5.482   6.339   4.671  0.1093  0.5341 -1.6109
 5633TIP3    H238315   5.602   6.296   4.590  0.5625  0.4666 -0.9046
 5634TIP3   OH238316   2.428   1.582  14.245  0.1791 -0.2275  0.0766
 5634TIP3    H138317   2.455   1.604  14.334 -0.3188 -0.3670  0.2622
 5634TIP3    H238318   2.505   1.540  14.207  1.3752  2.4060 -0.5136
 5635TIP3   OH238319   3.976   6.160   3.623  0.5554  0.2185 -0.2831
 5635TIP3    H138320   3.969   6.116   3.707  1.9364 -0.4635 -0.5141
 5635TIP3    H238321   3.940   6.247   3.638 -1.5192 -0.7288  0.3689
 5636TIP3   OH238322   5.524   5.937   2.041  0.6196 -0.4251  0.1524
 5636TIP3    H138323   5.546   5.855   2.085  0.9666 -1.0877 -1.2226
 5636TIP3    H238324   5.590   5.946   1.971  2.0314  2.2128  1.7157
 5637TIP3   OH238325   6.329   5.637   1.119  0.3792 -0.2040 -0.2041
 5637TIP3    H138326   6.349   5.544   1.132 -1.0834 -0.4381  0.5780
 5637TIP3    H238327   6.233   5.642   1.126  0.5477  1.5997  1.4160
 5638TIP3   OH238328   4.571   0.751   3.801 -0.2306 -0.8530  0.5612
 5638TIP3    H138329   4.654   0.764   3.756 -0.4843 -1.1978 -0.0089
 5638TIP3    H238330   4.596   0.719   3.888  0.2320 -0.9087  0.4091
 5639TIP3   OH238331   4.358   2.178   3.384 -0.0115  0.2857 -0.2106
 5639TIP3    H138332   4.287   2.243   3.387 -0.3666 -0.1274  0.6500
 5639TIP3    H238333   4.325   2.105   3.436 -0.6632 -1.6754 -3.2747
 5640TIP3   OH238334   3.362   0.613   4.097  0.5106  0.2480 -0.1329
 5640TIP3    H138335   3.377   0.672   4.024  0.2040  0.6001  0.0867
 5640TIP3    H238336   3.284   0.648   4.141  0.9436  0.3020  0.6144
 5641TIP3   OH238337   6.568   5.969   3.708 -0.4852 -0.1774 -0.1597
 5641TIP3    H138338   6.558   5.892   3.764  0.1628  0.1417  0.4065
 5641TIP3    H238339   6.593   5.934   3.623  0.7643 -0.5579  0.3488
 5642TIP3   OH238340   2.869   0.161   1.531 -0.2606 -0.6189  0.2483
 5642TIP3    H138341   2.806   0.129   1.596 -0.7903  2.6593  1.4803
 5642TIP3    H238342   2.936   0.206   1.582 -0.3637  1.5102 -1.4144
 5643TIP3   OH238343   0.085   5.624  16.580 -0.2130 -0.1497 -0.4121
 5643TIP3    H138344   0.178   5.639  16.597  0.4575 -0.9429 -3.1517
 5643TIP3    H238345   0.062   5.689  16.514 -1.9057  0.7449  1.0145
 5644TIP3   OH238346   6.469   2.645   2.906  0.0560  0.4939  0.3523
 5644TIP3    H138347   6.388   2.687   2.878  0.0154  0.4734  0.4373
 5644TIP3    H238348   6.495   2.694   2.984  0.3148  0.7277  0.1214
 5645TIP3   OH238349   3.724   2.937   2.355 -0.1862 -0.0498  0.2053
 5645TIP3    H138350   3.708   2.963   2.445 -1.3711  0.5981 -0.1832
 5645TIP3    H238351   3.792   2.996   2.324 -0.4551  0.3449  0.3738
 5646TIP3   OH238352   0.840   5.798   5.368  0.3300  0.0510  0.2321
 5646TIP3    H138353   0.902   5.871   5.362 -1.7976  1.7618 -1.5983
 5646TIP3    H238354   0.771   5.829   5.426 -0.2732 -0.7506 -0.0500
 5647TIP3   OH238355   4.364   1.986   4.783 -0.1787  0.2889  0.2411
 5647TIP3    H138356   4.418   2.034   4.845 -0.6526 -0.2489  1.0740
 5647TIP3    H238357   4.295   1.947   4.836 -0.1313 -0.8332 -0.4942
 5648TIP3   OH238358   4.371   2.574   6.077 -0.1168  0.0165 -0.3321
 5648TIP3    H138359   4.432   2.502   6.096 -0.7813 -0.5330 -0.2812
 5648TIP3    H238360   4.291   2.550   6.123 -0.6993  0.2445 -1.2287
 5649TIP3   OH238361   4.637   1.455  12.887  0.0994  0.3493 -0.1367
 5649TIP3    H138362   4.724   1.424  12.861 -0.3296  0.8904 -2.3303
 5649TIP3    H238363   4.605   1.389  12.947  1.3632 -0.7153 -0.6082
 5650TIP3   OH238364   3.475   2.515   2.790  0.0598 -0.5349  0.3117
 5650TIP3    H138365   3.494   2.430   2.750  0.8216 -0.2223 -0.0127
 5650TIP3    H238366   3.511   2.579   2.728  0.1169 -0.0067  0.8845
 5651TIP3   OH238367   3.438   5.067   0.101  0.3563  0.1612 -0.1564
 5651TIP3    H138368   3.468   4.997   0.159 -1.0747 -1.5623 -1.3931
 5651TIP3    H238369   3.477   5.045   0.016 -0.6889  0.4375 -0.7154
 5652TIP3   OH238370   1.303   1.807   3.433  0.7098  0.0617 -0.1254
 5652TIP3    H138371   1.219   1.809   3.478  1.4796 -0.1569  1.3631
 5652TIP3    H238372   1.297   1.730   3.376 -0.6410  0.9084 -1.1658
 5653TIP3   OH238373   0.809   2.923  14.623 -0.2068  0.0823 -0.5051
 5653TIP3    H138374   0.887   2.917  14.568 -1.9452 -1.2704 -2.8979
 5653TIP3    H238375   0.796   3.017  14.636  1.9832  0.3003  0.1883
 5654TIP3   OH238376   3.375   3.604  11.977  0.0670 -0.2566  0.7849
 5654TIP3    H138377   3.435   3.531  11.958  0.0468 -0.2127  0.5570
 5654TIP3    H238378   3.423   3.682  11.951  0.5872 -0.0874  2.2260
 5655TIP3   OH238379   6.416   2.254   4.640  0.1767 -0.2397 -0.8101
 5655TIP3    H138380   6.393   2.344   4.660 -0.5467 -0.6222  0.1396
 5655TIP3    H238381   6.472   2.227   4.712 -2.2004 -1.5429  0.6256
 5656TIP3   OH238382   5.429   2.205   1.085 -0.3591 -0.2749  0.1916
 5656TIP3    H138383   5.384   2.288   1.076  0.9536  0.3467 -0.8904
 5656TIP3    H238384   5.395   2.167   1.166 -0.4631  1.6162  1.0498
 5657TIP3   OH238385   1.689   6.338  14.790  0.3149 -0.3599  0.2604
 5657TIP3    H138386   1.728   6.403  14.848 -0.1222  1.3367 -1.3194
 5657TIP3    H238387   1.749   6.264  14.794  0.3500 -0.2440  2.7734
 5658TIP3   OH238388   3.963   6.605   2.991  0.0996 -0.6378 -0.0271
 5658TIP3    H138389   4.034   6.640   2.938 -0.7511  0.2054 -0.6257
 5658TIP3    H238390   3.991   6.516   3.013  1.1264 -0.4748 -0.6412
 5659TIP3   OH238391   4.322   6.480   0.399 -0.4260 -0.3282 -0.1994
 5659TIP3    H138392   4.285   6.407   0.350 -0.5259 -1.4433  1.4949
 5659TIP3    H238393   4.258   6.550   0.391 -0.1934 -0.3039 -2.0854
 5660TIP3   OH238394   3.889   3.175  14.661 -0.4986  0.2630 -0.3596
 5660TIP3    H138395   3.960   3.236  14.642  0.6749 -0.8570  0.3530
 5660TIP3    H238396   3.814   3.231  14.680 -0.3154  1.4500 -2.9013
 5661TIP3   OH238397   6.538   3.948   4.491  0.2755  0.1008  0.4257
 5661TIP3    H138398   6.453   3.906   4.507  0.4916  0.0361  1.4636
 5661TIP3    H238399   6.549   3.946   4.396 -0.9853  0.3078  0.2736
 5662TIP3   OH238400   0.533   3.026  11.259  0.5828  0.0272  0.3546
 5662TIP3    H138401   0.577   3.111  11.267 -0.6644  0.8376 -1.1103
 5662TIP3    H238402   0.516   3.016  11.165 -0.3942 -1.2645  0.6467
 5663TIP3   OH238403   2.572   5.051  11.444  0.2268  0.0678  0.2627
 5663TIP3    H138404   2.529   4.970  11.470  2.6820 -1.7122 -0.9001
 5663TIP3    H238405   2.662   5.041  11.476  0.8111  1.9011 -0.7528
 5664TIP3   OH238406   6.682   2.630   5.845  0.4862  0.3782 -0.0491
 5664TIP3    H138407   6.730   2.712   5.838  1.0457  0.3422  2.6602
 5664TIP3    H238408   6.632   2.638   5.926  0.0279 -1.6873 -0.0952
 5665TIP3   OH238409   2.899   4.743  13.156 -0.4250 -0.7368  0.6722
 5665TIP3    H138410   2.830   4.680  13.133 -0.7311  0.3176 -1.5054
 5665TIP3    H238411   2.854   4.828  13.156  0.4475 -0.2690  1.3268
 5666TIP3   OH238412   5.530   4.903  11.358 -0.0572 -0.0637  0.2720
 5666TIP3    H138413   5.452   4.891  11.412 -0.1610 -0.9665 -0.0566
 5666TIP3    H238414   5.501   4.883  11.269  0.5253 -0.3178  0.1345
 5667TIP3   OH238415   4.406   3.357  15.290  0.5953 -0.3982 -0.8246
 5667TIP3    H138416   4.348   3.281  15.298  0.7920 -0.3034  1.8477
 5667TIP3    H238417   4.484   3.324  15.247 -0.7998 -0.8612 -3.0988
 5668TIP3   OH238418   5.911   4.128  13.691  0.5801  0.5339 -0.3078
 5668TIP3    H138419   5.966   4.077  13.632  0.5367 -1.3571  1.2603
 5668TIP3    H238420   5.822   4.104  13.668  0.4408  1.9741 -1.3830
 5669TIP3   OH238421   2.058   1.563   3.861  0.3608  0.2062  0.2552
 5669TIP3    H138422   2.146   1.599   3.864  0.3488  0.5505 -2.1777
 5669TIP3    H238423   2.034   1.565   3.768 -1.5610 -1.4407  0.6591
 5670TIP3   OH238424   2.248   4.859   0.911 -0.2712  0.0272 -0.1067
 5670TIP3    H138425   2.337   4.895   0.916 -0.2138  0.0716 -1.3883
 5670TIP3    H238426   2.236   4.815   0.995  1.3848 -0.9462 -0.3458
 5671TIP3   OH238427   6.171   1.387  12.012 -0.2712 -0.4994 -0.0154
 5671TIP3    H138428   6.187   1.457  12.075  2.7624 -1.4303  0.3555
 5671TIP3    H238429   6.206   1.308  12.054 -1.2308 -1.7549 -1.5090
 5672TIP3   OH238430   2.811   5.456   2.111  0.1656 -0.3905 -0.3206
 5672TIP3    H138431   2.779   5.424   2.196 -1.1650  0.2467 -0.5821
 5672TIP3    H238432   2.894   5.499   2.132 -0.2300 -0.1037  0.6742
 5673TIP3   OH238433   4.292   1.901   1.815 -0.1145  0.0100  0.3559
 5673TIP3    H138434   4.212   1.853   1.795 -0.4633  1.1416 -1.0312
 5673TIP3    H238435   4.358   1.832   1.826 -0.9981 -0.8726  0.2968
 5674TIP3   OH238436   4.425   5.258  14.463  0.1065 -0.3598 -0.2815
 5674TIP3    H138437   4.419   5.239  14.369  0.8563 -0.0886 -0.3868
 5674TIP3    H238438   4.347   5.217  14.501 -1.4735  1.5103 -1.3551
 5675TIP3   OH238439   6.147   0.049   2.445 -0.3323 -0.3611  0.6577
 5675TIP3    H138440   6.089   0.053   2.369  0.2448  1.0191  0.2662
 5675TIP3    H238441   6.163  -0.044   2.458  0.5075 -0.5941 -1.6766
 5676TIP3   OH238442   6.065   5.575   1.204  0.2521  0.4903  0.5167
 5676TIP3    H138443   6.043   5.492   1.162 -1.2393  1.0528  0.1632
 5676TIP3    H238444   6.107   5.550   1.286 -1.2549 -0.6173  0.9717
 5677TIP3   OH238445   3.776   3.611   3.030 -0.8486 -0.3624 -0.1011
 5677TIP3    H138446   3.832   3.671   2.981 -1.6436  0.9588  0.5640
 5677TIP3    H238447   3.782   3.641   3.121 -1.8225 -0.8412  0.1306
 5678TIP3   OH238448   0.469   1.634   5.697 -0.7402 -0.2834 -0.2064
 5678TIP3    H138449   0.471   1.690   5.774 -2.2533 -0.1182 -0.2820
 5678TIP3    H238450   0.556   1.645   5.658  0.2790 -0.9003  1.8322
 5679TIP3   OH238451   2.826   5.556  15.721 -0.1815 -0.4302 -0.0107
 5679TIP3    H138452   2.871   5.473  15.743  0.2234 -0.3923 -0.6689
 5679TIP3    H238453   2.742   5.550  15.765  0.2845 -0.7200  0.8550
 5680TIP3   OH238454   1.511   6.503   3.540  0.1324  0.2893  0.0741
 5680TIP3    H138455   1.515   6.595   3.514 -3.1959  0.4547 -0.0292
 5680TIP3    H238456   1.496   6.455   3.458  0.1851 -0.1999  0.3453
 5681TIP3   OH238457   0.102   6.428  11.637 -0.2996  0.3402  0.2557
 5681TIP3    H138458   0.180   6.463  11.593 -2.0839  2.5880 -1.2558
 5681TIP3    H238459   0.112   6.456  11.728  1.4463 -0.8445  0.4617
 5682TIP3   OH238460   3.630   1.689   3.814  0.4886  0.4478 -0.2320
 5682TIP3    H138461   3.716   1.650   3.828  0.7181  1.1131  0.2215
 5682TIP3    H238462   3.574   1.647   3.880  0.2613 -0.6151 -1.0885
 5683TIP3   OH238463   1.802   4.659   4.082 -0.6267  0.1014  0.1497
 5683TIP3    H138464   1.750   4.722   4.131 -1.9045 -1.7913  1.3155
 5683TIP3    H238465   1.752   4.642   4.003  0.0157  0.9832 -0.4559
 5684TIP3   OH238466   0.252   0.791   3.519  0.7293 -0.0286  0.1407
 5684TIP3    H138467   0.210   0.765   3.438 -0.3996 -2.4985  1.4664
 5684TIP3    H238468   0.338   0.748   3.516  0.7976  0.1035  0.1625
 5685TIP3   OH238469   0.997   2.482  15.628  0.5699 -0.6766 -0.8665
 5685TIP3    H138470   0.925   2.515  15.574  0.7495  1.2082 -0.0146
 5685TIP3    H238471   1.011   2.551  15.693 -0.3379 -3.3592  2.2665
 5686TIP3   OH238472   0.589   4.246  12.428 -0.3330  0.2341  0.3864
 5686TIP3    H138473   0.545   4.235  12.344 -0.9507  1.1314  0.5811
 5686TIP3    H238474   0.682   4.235  12.407 -0.4281  1.0373 -0.5335
 5687TIP3   OH238475   2.647   6.100  17.212  0.2525 -0.3272 -0.0028
 5687TIP3    H138476   2.732   6.088  17.170  1.2469  0.2321  1.7641
 5687TIP3    H238477   2.657   6.060  17.299 -1.4584 -0.7081  0.0393
 5688TIP3   OH238478   2.710   5.901  14.221 -0.0732  0.2293 -0.7935
 5688TIP3    H138479   2.752   5.870  14.301 -1.9751  1.6794  0.8300
 5688TIP3    H238480   2.646   5.834  14.200 -2.3492  1.6709  1.2234
 5689TIP3   OH238481   5.341   3.741   3.020 -0.0955 -0.1763 -0.5275
 5689TIP3    H138482   5.383   3.677   2.963  1.3218 -0.3150  0.6471
 5689TIP3    H238483   5.343   3.702   3.107 -1.0925  0.5762 -0.1461
 5690TIP3   OH238484   4.197   2.339   2.183  0.8912 -0.5858  0.0373
 5690TIP3    H138485   4.210   2.347   2.277 -0.5509 -0.3708  0.2289
 5690TIP3    H238486   4.166   2.250   2.171  0.6119 -0.4589 -0.1823
 5691TIP3   OH238487   2.504   5.461  16.791 -0.1898  0.2765  0.2746
 5691TIP3    H138488   2.470   5.507  16.714 -2.1582  0.0042  0.9550
 5691TIP3    H238489   2.532   5.531  16.850  1.4981  0.4823 -0.7428
 5692TIP3   OH238490   4.555   4.380  16.650  0.6328 -0.4927  0.3220
 5692TIP3    H138491   4.615   4.450  16.622  1.2097 -0.9864  0.2962
 5692TIP3    H238492   4.525   4.407  16.737 -0.2685  0.4843 -0.2911
 5693TIP3   OH238493   0.538   6.385   0.406 -0.1443  0.1892  0.3813
 5693TIP3    H138494   0.578   6.362   0.322 -1.1115  0.3030 -0.1144
 5693TIP3    H238495   0.612   6.412   0.460  0.4694  0.3272 -0.5040
 5694TIP3   OH238496   3.537   0.542  15.694 -0.4196  0.6922 -0.1689
 5694TIP3    H138497   3.568   0.451  15.694  2.1995  1.5453 -0.6400
 5694TIP3    H238498   3.474   0.545  15.765 -1.1596 -1.7002 -0.6706
 5695TIP3   OH238499   6.280   3.704  12.887 -0.3559 -0.1660  0.2368
 5695TIP3    H138500   6.312   3.651  12.961 -0.0351 -1.4347 -0.7839
 5695TIP3    H238501   6.241   3.640  12.827  1.1248  0.5885 -1.5948
 5696TIP3   OH238502   6.193   2.046   2.496 -0.0256 -0.4083  0.1123
 5696TIP3    H138503   6.191   1.957   2.530 -0.4371 -0.1175  0.8637
 5696TIP3    H238504   6.268   2.047   2.436  1.0798 -0.7600  1.4584
 5697TIP3   OH238505   1.242   5.821   5.576 -0.0047 -0.1868 -0.3827
 5697TIP3    H138506   1.263   5.914   5.566  2.1015 -0.4865  0.8709
 5697TIP3    H238507   1.196   5.816   5.660  0.2871 -0.3280 -0.2304
 5698TIP3   OH238508   3.443   1.897   0.114  0.7341  0.4927  0.0377
 5698TIP3    H138509   3.490   1.897   0.030  0.6455  2.3704 -0.0166
 5698TIP3    H238510   3.445   1.988   0.143  0.7710 -0.1313  2.0938
 5699TIP3   OH238511   5.227   4.851  16.831 -0.2494  0.0319  0.1543
 5699TIP3    H138512   5.309   4.861  16.782 -0.5468 -1.3142 -0.6203
 5699TIP3    H238513   5.158   4.862  16.766 -0.7272  1.6726  0.8943
 5700TIP3   OH238514   6.389   5.037  12.690 -0.2087 -0.1423  0.4725
 5700TIP3    H138515   6.341   4.959  12.717 -0.8427  0.5215  1.2860
 5700TIP3    H238516   6.420   5.076  12.771 -1.5949  1.5191  0.2506
 5701TIP3   OH238517   1.060   0.811   3.539 -0.1237 -0.2132  0.4484
 5701TIP3    H138518   1.002   0.839   3.609 -1.5257  0.4229 -0.9529
 5701TIP3    H238519   1.006   0.757   3.482  0.7993 -0.1121 -0.5549
 5702TIP3   OH238520   6.392   5.513  13.039 -0.6550  0.7694  0.5222
 5702TIP3    H138521   6.377   5.557  13.123  1.8260  1.4836  0.6440
 5702TIP3    H238522   6.422   5.583  12.981 -0.7618 -0.0218 -0.4937
 5703TIP3   OH238523   1.792   2.685  15.699  0.0022  0.0347 -0.3675
 5703TIP3    H138524   1.851   2.698  15.625  0.8094  1.4421  0.5207
 5703TIP3    H238525   1.770   2.773  15.729 -1.5141 -0.4993  0.1400
 5704TIP3   OH238526   3.086   4.720   5.426  0.1958  0.4486 -0.0131
 5704TIP3    H138527   3.110   4.805   5.462  0.1665  0.6540 -0.4718
 5704TIP3    H238528   3.096   4.730   5.332  0.9823 -0.3080 -0.0145
 5705TIP3   OH238529   5.189   0.504   3.550 -0.2102  0.2604 -0.1024
 5705TIP3    H138530   5.184   0.587   3.596  1.6893 -0.1215  0.8126
 5705TIP3    H238531   5.241   0.522   3.472 -1.5191  0.3780 -0.9740
 5706TIP3   OH238532   5.742   3.783  13.899 -0.6559 -0.3430  0.7388
 5706TIP3    H138533   5.700   3.825  13.824 -1.4246 -0.0006  1.3391
 5706TIP3    H238534   5.836   3.790  13.882 -0.7941  0.9490  0.4528
 5707TIP3   OH238535   4.981   6.690   2.479  0.2200 -0.5103 -0.2837
 5707TIP3    H138536   5.014   6.601   2.466  1.0461 -0.0767 -1.2336
 5707TIP3    H238537   4.932   6.709   2.398  1.2721  0.4240 -0.7155
 5708TIP3   OH238538   4.501   6.322  10.943 -0.1117 -0.7298 -0.3157
 5708TIP3    H138539   4.559   6.280  10.880  0.5707 -0.0992 -0.1189
 5708TIP3    H238540   4.425   6.348  10.892  0.1898 -0.7326 -0.7700
 5709TIP3   OH238541   6.236   2.553  11.172 -0.4001  0.0184  0.2006
 5709TIP3    H138542   6.154   2.544  11.122 -1.1351  1.2888  1.1754
 5709TIP3    H238543   6.212   2.531  11.262  0.8363 -1.8172  0.1165
 5710TIP3   OH238544   0.949   4.738   2.720  0.1393 -0.0676  0.1359
 5710TIP3    H138545   0.921   4.700   2.637  0.7413  0.6934 -0.4190
 5710TIP3    H238546   1.044   4.730   2.720  0.1565  0.0794  0.6773
 5711TIP3   OH238547   3.485   2.220   3.637  0.0523 -0.0654  0.4375
 5711TIP3    H138548   3.494   2.195   3.729  0.1943 -0.6828  0.2610
 5711TIP3    H238549   3.422   2.292   3.637  1.5874  1.3297  1.2430
 5712TIP3   OH238550   3.671   4.596  16.491  0.4274 -0.0799  0.0593
 5712TIP3    H138551   3.715   4.652  16.555  0.6204  0.3850 -0.4841
 5712TIP3    H238552   3.694   4.633  16.406  0.7385 -1.1166 -0.3153
 5713TIP3   OH238553   3.328   5.992  11.801  0.2702 -0.3122 -0.4118
 5713TIP3    H138554   3.390   5.921  11.817  0.6907  0.0579 -0.3906
 5713TIP3    H238555   3.303   5.982  11.710 -0.1592 -0.8706 -0.2358
 5714TIP3   OH238556   4.551   0.108   1.506 -0.2246  0.1683  0.3031
 5714TIP3    H138557   4.534   0.093   1.598  1.4642  0.1904  0.6386
 5714TIP3    H238558   4.576   0.200   1.500  1.4585 -0.2802  0.1196
 5715TIP3   OH238559   3.674   6.175   2.508  0.3871  0.5893 -0.0768
 5715TIP3    H138560   3.604   6.147   2.567 -0.0401  2.3974  0.2866
 5715TIP3    H238561   3.630   6.228   2.441  1.4035  1.7543  0.1629
 5716TIP3   OH238562   0.978   1.964  16.988  0.5375  0.3389 -0.2024
 5716TIP3    H138563   0.974   2.004  16.901  2.3069  1.3292  0.1236
 5716TIP3    H238564   1.022   1.880  16.974 -3.1762 -1.5507 -0.8945
 5717TIP3   OH238565   4.160   1.349  16.653  0.1634  0.6869  0.0460
 5717TIP3    H138566   4.216   1.278  16.687  1.2498  1.1944 -0.6469
 5717TIP3    H238567   4.094   1.362  16.721  0.0026 -0.9451  0.2125
 5718TIP3   OH238568   0.775   6.434   3.868 -0.0726 -0.2026 -0.3110
 5718TIP3    H138569   0.723   6.380   3.927 -1.3044 -0.6926 -1.8047
 5718TIP3    H238570   0.783   6.381   3.788  0.5002  0.9521 -1.0353
 5719TIP3   OH238571   2.735   0.337  11.676 -0.0925  0.2891  0.2987
 5719TIP3    H138572   2.721   0.273  11.746  0.6954 -2.4320 -1.9436
 5719TIP3    H238573   2.650   0.344  11.633  0.2982 -0.8247 -0.6947
 5720TIP3   OH238574   2.601   5.877   1.029 -0.3999 -0.4269 -0.0202
 5720TIP3    H138575   2.659   5.903   1.101  0.5923 -1.1836 -0.5218
 5720TIP3    H238576   2.569   5.959   0.993  1.3571  0.0654 -0.5174
 5721TIP3   OH238577   2.559   1.977  15.187  0.0238 -0.1113  0.6150
 5721TIP3    H138578   2.521   1.901  15.231 -0.2041  0.6502  1.7563
 5721TIP3    H238579   2.553   1.956  15.094 -1.4446 -0.8267  0.8574
 5722TIP3   OH238580   1.031   2.386   5.276  0.0256 -0.3429  0.7331
 5722TIP3    H138581   1.032   2.392   5.372  1.4909  1.3637  0.6316
 5722TIP3    H238582   1.091   2.314   5.257 -1.8063 -2.0143  1.1565
 5723TIP3   OH238583   0.853   3.928   1.932  0.2550  0.2919  0.7749
 5723TIP3    H138584   0.764   3.903   1.955  0.4768 -0.1526  1.1475
 5723TIP3    H238585   0.880   3.864   1.866 -0.1526  1.1812 -0.2779
 5724TIP3   OH238586   6.001   1.457   0.558 -0.4852 -0.1938 -1.4726
 5724TIP3    H138587   6.084   1.457   0.606 -1.6587  0.5147  0.6473
 5724TIP3    H238588   5.983   1.364   0.541  0.0855 -0.4433 -0.7373
 5725TIP3   OH238589   4.174   4.628  13.047  0.5369 -0.1557  0.0413
 5725TIP3    H138590   4.153   4.617  12.954 -0.7521 -2.2281  0.5328
 5725TIP3    H238591   4.268   4.612  13.052  0.5408 -0.4624 -0.8542
 5726TIP3   OH238592   2.228   0.713  13.249 -0.4980  0.1497 -0.4939
 5726TIP3    H138593   2.274   0.787  13.289  0.8838  0.3362 -2.3833
 5726TIP3    H238594   2.187   0.749  13.171 -0.5354 -0.8891 -0.9603
 5727TIP3   OH238595   0.105   5.391  15.106  0.6208  0.3261  0.2251
 5727TIP3    H138596   0.173   5.336  15.144  0.0755  0.2891  1.1607
 5727TIP3    H238597   0.027   5.337  15.105  0.6492  0.2756 -1.1046
 5728TIP3   OH238598   0.428   5.761  15.359  0.2974  0.3995 -0.6170
 5728TIP3    H138599   0.508   5.723  15.397 -0.7943 -1.1721  0.1668
 5728TIP3    H238600   0.413   5.841  15.410  0.5067 -0.1273  0.2858
 5729TIP3   OH238601   2.766   4.649  16.736  0.2798  0.6397 -0.4377
 5729TIP3    H138602   2.729   4.667  16.822 -0.2837 -0.6543 -0.3951
 5729TIP3    H238603   2.858   4.676  16.743  0.1373  0.9137  0.4305
 5730TIP3   OH238604   4.208   1.328   1.537  0.1416 -0.5392 -0.3268
 5730TIP3    H138605   4.259   1.268   1.483  0.0912 -0.7752 -0.1108
 5730TIP3    H238606   4.173   1.392   1.475  2.7804  1.1088 -0.1620
 5731TIP3   OH238607   3.594   2.147  15.082 -0.0596 -0.1774 -0.1617
 5731TIP3    H138608   3.574   2.185  14.996  0.7716 -0.9958 -0.7134
 5731TIP3    H238609   3.514   2.101  15.106 -0.2465 -0.0680 -0.5582
 5732TIP3   OH238610   3.486   2.474  12.710  0.5572 -0.4566  0.5447
 5732TIP3    H138611   3.579   2.482  12.689  0.5729 -0.7402  0.5097
 5732TIP3    H238612   3.446   2.550  12.667  1.3628  2.1061  4.0821
 5733TIP3   OH238613   1.392   1.871   6.478  0.5628  0.4623  0.4374
 5733TIP3    H138614   1.465   1.865   6.540 -0.6293 -0.8945  1.7453
 5733TIP3    H238615   1.424   1.827   6.399  1.1008 -0.3112  1.0755
 5734TIP3   OH238616   1.003   5.201  12.401  0.0293 -0.8888  0.0667
 5734TIP3    H138617   0.973   5.286  12.434  0.0439 -1.2230  0.9574
 5734TIP3    H238618   0.943   5.137  12.439  0.1517 -1.2968 -0.4229
 5735TIP3   OH238619   1.580   6.708  14.889  0.9256 -0.1092 -0.3234
 5735TIP3    H138620   1.489   6.708  14.861  0.2811 -0.1023  1.6538
 5735TIP3    H238621   1.601   6.801  14.902 -0.5410 -0.3240  4.4534
 5736TIP3   OH238622   1.717   4.800   2.526 -0.6598  0.5443  0.2673
 5736TIP3    H138623   1.762   4.719   2.505  1.3915  1.3594  1.4103
 5736TIP3    H238624   1.660   4.778   2.600 -0.7451 -0.0624  0.0145
 5737TIP3   OH238625   5.194   4.949   0.832 -0.2832 -0.3909  0.0780
 5737TIP3    H138626   5.103   4.974   0.817  0.1089 -0.2157 -2.0489
 5737TIP3    H238627   5.245   5.010   0.779  1.0819 -0.6102  1.1024
 5738TIP3   OH238628   2.888   1.965   0.266  0.6185 -0.0056 -0.0859
 5738TIP3    H138629   2.819   1.907   0.233 -0.3046  0.9871  0.0807
 5738TIP3    H238630   2.965   1.941   0.215 -0.4980  0.7122 -2.1898
 5739TIP3   OH238631   5.365   2.170   5.697 -0.1433  0.0738  0.0803
 5739TIP3    H138632   5.378   2.076   5.704  1.7010  0.2974 -0.0290
 5739TIP3    H238633   5.377   2.203   5.786 -1.9236  0.1000  0.3323
 5740TIP3   OH238634   3.319   4.454   0.994 -0.1065  0.1139  0.0662
 5740TIP3    H138635   3.283   4.506   1.066 -0.9754  0.5370 -0.6705
 5740TIP3    H238636   3.413   4.469   0.999 -0.1868  0.3656  0.9453
 5741TIP3   OH238637   2.050   5.826   5.343 -0.1257 -0.6734  0.7829
 5741TIP3    H138638   2.065   5.877   5.264 -2.1179  0.7755  1.3156
 5741TIP3    H238639   2.064   5.887   5.415  0.7524 -1.7418  1.5486
 5742TIP3   OH238640   0.564   1.602   4.895 -0.0347  0.1817  0.4893
 5742TIP3    H138641   0.591   1.694   4.902  0.0951  0.1708  0.1236
 5742TIP3    H238642   0.510   1.599   4.816  1.0831 -0.3288 -0.2648
 5743TIP3   OH238643   1.709   4.076  11.366  0.6369  0.1758 -0.5954
 5743TIP3    H138644   1.708   4.157  11.316 -1.5812  0.2699 -0.4316
 5743TIP3    H238645   1.708   4.007  11.300  0.5766  0.2822 -0.7045
 5744TIP3   OH238646   2.883   3.765   5.161 -0.6487  0.1308  0.0957
 5744TIP3    H138647   2.940   3.842   5.153  0.5122 -0.6108  1.0792
 5744TIP3    H238648   2.939   3.691   5.142 -1.4294 -0.5730  0.4865
 5745TIP3   OH238649   3.992   3.481   4.809 -0.6980  0.0500 -0.1182
 5745TIP3    H138650   4.013   3.553   4.868 -0.4209 -1.5380  1.8241
 5745TIP3    H238651   4.071   3.427   4.807 -1.2865 -0.8264 -0.5508
 5746TIP3   OH238652   1.411   1.932   2.212 -1.1226 -0.5566  0.5677
 5746TIP3    H138653   1.398   2.014   2.259  1.6164  0.5422 -0.4812
 5746TIP3    H238654   1.342   1.931   2.145 -0.9428  1.1006  0.3325
 5747TIP3   OH238655   5.277   2.317  13.735  0.3847 -0.2080 -0.1281
 5747TIP3    H138656   5.351   2.376  13.748 -0.0283  0.3992 -0.5072
 5747TIP3    H238657   5.247   2.296  13.823 -0.6110  1.6056 -0.0219
 5748TIP3   OH238658   4.745   2.591  16.252 -0.1324 -0.6580 -0.1270
 5748TIP3    H138659   4.776   2.616  16.165 -0.9095 -1.7526 -0.7231
 5748TIP3    H238660   4.822   2.555  16.296  0.0983 -0.7128 -0.5822
 5749TIP3   OH238661   3.934   5.515  16.056  0.3818 -0.1692  0.4281
 5749TIP3    H138662   3.953   5.471  15.972 -1.0896  0.8303 -0.4550
 5749TIP3    H238663   3.865   5.461  16.096  0.7054 -0.3470  0.7419
 5750TIP3   OH238664   1.040   1.387  12.110 -0.5086  0.6860  0.0569
 5750TIP3    H138665   0.967   1.439  12.076 -0.1298  0.9439 -0.3741
 5750TIP3    H238666   1.097   1.375  12.035 -0.8567 -0.8281  0.0247
 5751TIP3   OH238667   6.748   1.383  17.011  0.2184 -0.2747 -0.0451
 5751TIP3    H138668   6.684   1.453  16.999 -0.3535 -0.9343 -0.8713
 5751TIP3    H238669   6.833   1.425  16.997 -0.0054  0.6646  1.3284
 5752TIP3   OH238670   0.514   0.640  11.875  0.1415 -0.3309  0.0065
 5752TIP3    H138671   0.557   0.559  11.848  2.4381  0.2379  1.8345
 5752TIP3    H238672   0.506   0.633  11.970  0.6563  1.7297  0.2271
 5753TIP3   OH238673   6.182   4.758   5.131  0.4231  0.1563  0.2530
 5753TIP3    H138674   6.095   4.729   5.102  1.1934 -0.7016 -1.2688
 5753TIP3    H238675   6.201   4.706   5.209  0.1558 -0.6744 -0.2280
 5754TIP3   OH238676   3.615   3.761  11.366 -0.0031  0.3484 -0.3010
 5754TIP3    H138677   3.643   3.699  11.298  0.6380  0.0620  0.2208
 5754TIP3    H238678   3.684   3.827  11.369  0.4946 -0.2044  0.7879
 5755TIP3   OH238679   0.978   1.154  11.430 -0.2251  0.0130  0.2257
 5755TIP3    H138680   0.912   1.166  11.362 -0.8670  1.6564  1.1005
 5755TIP3    H238681   1.042   1.223  11.415  0.4987 -0.6311  0.3062
 5756TIP3   OH238682   1.055   1.289  14.474  0.5355 -0.2723  0.1044
 5756TIP3    H138683   1.018   1.222  14.532 -0.6188 -0.0461 -0.3749
 5756TIP3    H238684   1.148   1.266  14.470 -0.0232 -2.5548 -0.9546
 5757TIP3   OH238685   2.230   1.683   1.478 -0.3262 -0.2471 -0.0309
 5757TIP3    H138686   2.149   1.707   1.523 -0.3710  0.3247 -0.4162
 5757TIP3    H238687   2.250   1.595   1.511  0.0226  0.4371  1.6306
 5758TIP3   OH238688   4.393   3.497  14.332 -0.4810 -0.5805 -0.3316
 5758TIP3    H138689   4.378   3.576  14.281  1.0811  0.4724  0.8152
 5758TIP3    H238690   4.305   3.461  14.346 -1.3422  1.6713  0.2963
 5759TIP3   OH238691   4.523   2.084   6.608 -0.2001 -0.7226 -0.2477
 5759TIP3    H138692   4.556   2.085   6.698 -0.2081 -0.9818 -0.2406
 5759TIP3    H238693   4.487   2.172   6.595 -0.9761 -0.9425  0.2994
 5760TIP3   OH238694   4.732   4.588  11.176 -0.4615 -0.3245  0.6863
 5760TIP3    H138695   4.743   4.501  11.137 -1.0821  0.0918 -0.4290
 5760TIP3    H238696   4.638   4.606  11.171 -0.4126  0.1906  1.4128
 5761TIP3   OH238697   2.104   4.216   3.081  0.1251  0.6467  0.3767
 5761TIP3    H138698   2.066   4.298   3.048 -0.3523  0.4267  0.3714
 5761TIP3    H238699   2.090   4.219   3.175 -0.2283  0.4034  0.3338
 5762TIP3   OH238700   2.591   1.823   1.609 -0.4067 -0.5518 -0.5950
 5762TIP3    H138701   2.680   1.821   1.643 -0.6083 -0.8435 -0.0903
 5762TIP3    H238702   2.598   1.788   1.520 -0.1677 -1.4095 -0.2326
 5763TIP3   OH238703   2.014   3.765   5.872  0.2926  0.3352 -0.1504
 5763TIP3    H138704   2.023   3.679   5.913 -1.1969  0.4090  0.3748
 5763TIP3    H238705   2.031   3.827   5.943  0.1833  0.4707 -0.2433
 5764TIP3   OH238706   4.795   0.188   0.573  0.5587 -0.3166  0.6800
 5764TIP3    H138707   4.888   0.204   0.557  0.5351  0.4472  1.3052
 5764TIP3    H238708   4.786   0.093   0.565  1.8229 -0.6559  2.9101
 5765TIP3   OH238709   1.526   6.663   6.487 -0.3313 -0.3433  0.2692
 5765TIP3    H138710   1.560   6.601   6.423 -1.2273  0.0836 -0.6203
 5765TIP3    H238711   1.515   6.610   6.567  0.8859 -0.8463  0.1222
 5766TIP3   OH238712   5.141   0.907   0.703 -0.3852 -0.9186  0.2314
 5766TIP3    H138713   5.186   0.945   0.628 -0.8616 -1.8982 -0.5559
 5766TIP3    H238714   5.205   0.914   0.775  0.1818 -0.2660 -0.3303
 5767TIP3   OH238715   2.883   5.273  14.041 -0.0212 -0.2709 -0.3068
 5767TIP3    H138716   2.960   5.326  14.022  0.6042 -0.6725  1.0545
 5767TIP3    H238717   2.871   5.220  13.963  1.9054 -1.1830 -0.0125
 5768TIP3   OH238718   5.864   5.391  17.100  0.2517 -0.0903 -0.1957
 5768TIP3    H138719   5.846   5.434  17.016 -2.3616  2.3447  1.5226
 5768TIP3    H238720   5.938   5.440  17.137  1.8548 -1.5952 -1.3061
 5769TIP3   OH238721   4.301   3.659  17.126  0.5572  0.6492  0.1125
 5769TIP3    H138722   4.286   3.728  17.190  0.4716  1.5999 -0.9173
 5769TIP3    H238723   4.389   3.677  17.091  1.2171 -0.7167  0.9902
 5770TIP3   OH238724   4.621   0.355   1.528 -0.0578 -0.0087 -0.1537
 5770TIP3    H138725   4.637   0.403   1.447  3.7662  0.6423  0.8840
 5770TIP3    H238726   4.639   0.420   1.597 -1.5547 -1.0347  1.2285
 5771TIP3   OH238727   2.400   1.406   4.430 -0.2739 -0.2968  0.5000
 5771TIP3    H138728   2.488   1.407   4.392 -0.1345 -3.8671  0.5793
 5771TIP3    H238729   2.357   1.482   4.392  2.2392  0.4550 -0.9819
 5772TIP3   OH238730   0.523   0.468  14.289 -0.0789 -0.1555  0.0323
 5772TIP3    H138731   0.501   0.545  14.342 -2.5126  0.0523 -1.1812
 5772TIP3    H238732   0.560   0.405  14.352 -0.7405  0.9411  1.5654
 5773TIP3   OH238733   6.409   4.462  11.343  0.3104  0.0469 -0.1750
 5773TIP3    H138734   6.459   4.421  11.273  0.8341  0.0495  0.1928
 5773TIP3    H238735   6.475   4.510  11.394 -0.1301  0.4072  0.0573
 5774TIP3   OH238736   4.725   4.832  12.627 -0.0735 -0.7892 -0.0287
 5774TIP3    H138737   4.819   4.830  12.647 -0.4379 -0.7761  1.7311
 5774TIP3    H238738   4.683   4.857  12.709 -1.4508  1.6173 -1.3938
 5775TIP3   OH238739   2.752   2.211  10.923 -0.3187 -0.3052  0.5717
 5775TIP3    H138740   2.737   2.150  10.851 -1.1345 -0.8023  1.1402
 5775TIP3    H238741   2.666   2.218  10.966 -0.6280  2.4583 -0.4231
 5776TIP3   OH238742   1.184   5.179   1.598 -0.4974  0.0633 -0.1340
 5776TIP3    H138743   1.253   5.129   1.554 -0.6688 -0.7800  0.5587
 5776TIP3    H238744   1.107   5.164   1.543 -0.6947 -0.9355  0.4034
 5777TIP3   OH238745   2.789   0.871   1.103 -0.2950  0.0888  0.5913
 5777TIP3    H138746   2.709   0.833   1.066  1.5325 -2.2537 -1.1219
 5777TIP3    H238747   2.797   0.831   1.190 -1.6214  1.3033  1.2928
 5778TIP3   OH238748   2.759   4.961   6.133 -0.0050 -0.1902 -0.1762
 5778TIP3    H138749   2.676   5.001   6.109  1.0319  1.4320 -1.1578
 5778TIP3    H238750   2.774   4.988   6.224 -0.8537 -1.0186  0.2106
 5779TIP3   OH238751   4.285   3.357  15.906  0.6302  0.1196  0.5117
 5779TIP3    H138752   4.338   3.413  15.850  0.5307 -0.3082 -0.0068
 5779TIP3    H238753   4.317   3.269  15.890  0.1090 -0.0826  0.5814
 5780TIP3   OH238754   5.610   3.478  16.945 -0.0165 -0.1039  0.5063
 5780TIP3    H138755   5.543   3.415  16.970 -1.1837  1.0950  0.4851
 5780TIP3    H238756   5.625   3.530  17.025 -0.8591  1.1624 -0.1344
 5781TIP3   OH238757   0.020   6.761  13.175 -0.3421 -0.3059 -0.0288
 5781TIP3    H138758   0.004   6.702  13.249 -2.5673  0.6367  0.2797
 5781TIP3    H238759  -0.055   6.749  13.117  0.7664 -0.1150 -1.5373
 5782TIP3   OH238760   1.388   5.494  12.951  0.0581  0.0582  0.3981
 5782TIP3    H138761   1.445   5.477  13.026  0.2397 -1.3786 -0.0635
 5782TIP3    H238762   1.415   5.430  12.885 -0.5316  0.8906 -0.6655
 5783TIP3   OH238763   6.401   0.630  10.897 -0.0580  0.4543  0.0817
 5783TIP3    H138764   6.423   0.694  10.830 -0.5866 -0.5988 -1.1222
 5783TIP3    H238765   6.465   0.645  10.966 -1.3168  3.5234  0.6787
 5784TIP3   OH238766   2.561   2.856  17.057  0.5670 -0.0011  0.0162
 5784TIP3    H138767   2.567   2.767  17.092 -0.1446 -0.1927 -0.3344
 5784TIP3    H238768   2.527   2.908  17.129 -0.1632 -0.2480 -0.1469
 5785TIP3   OH238769   3.950   5.708   5.855 -0.4946  0.2990 -0.2652
 5785TIP3    H138770   3.860   5.708   5.889 -0.3552  2.9063  0.2177
 5785TIP3    H238771   3.940   5.687   5.762 -1.4246 -1.0543  0.1134
 5786TIP3   OH238772   1.330   0.851  15.295  0.1921 -0.0650  0.4293
 5786TIP3    H138773   1.365   0.938  15.315 -4.2047  1.9708 -0.0338
 5786TIP3    H238774   1.342   0.842  15.200 -1.1065  0.9459  0.1500
 5787TIP3   OH238775   1.908   4.289  16.827 -0.4724  0.0158  0.3910
 5787TIP3    H138776   1.904   4.201  16.790  1.4847  1.1825 -2.7617
 5787TIP3    H238777   1.840   4.337  16.782  1.7038  1.3626 -1.5723
 5788TIP3   OH238778   3.506   0.744   1.057 -0.1398 -0.7368  0.2082
 5788TIP3    H138779   3.486   0.783   1.142 -0.3261  0.9307 -0.5734
 5788TIP3    H238780   3.421   0.738   1.013  0.2464  0.5178 -0.7196
 5789TIP3   OH238781   5.907   4.553  16.144  0.2607  1.2227 -0.1641
 5789TIP3    H138782   5.868   4.596  16.067 -1.2348  0.3661  0.1044
 5789TIP3    H238783   5.839   4.559  16.211  0.1298 -1.2674 -0.0193
 5790TIP3   OH238784   1.271   3.448   1.708 -0.0887  0.6796 -0.5172
 5790TIP3    H138785   1.273   3.361   1.669 -0.5457  1.4821 -2.4286
 5790TIP3    H238786   1.196   3.446   1.767 -0.4232 -0.0557 -0.9586
 5791TIP3   OH238787   0.396   2.368  11.059 -0.8872 -0.1028 -0.0191
 5791TIP3    H138788   0.366   2.281  11.034 -2.4163  0.1737  0.8302
 5791TIP3    H238789   0.316   2.418  11.076 -0.0056  1.1987  0.4310
 5792TIP3   OH238790   3.879   5.677  11.691  0.2771 -0.4523 -0.2978
 5792TIP3    H138791   3.876   5.719  11.605  1.7987  0.0048 -0.1509
 5792TIP3    H238792   3.850   5.745  11.751  0.2551 -0.4218 -0.3427
 5793TIP3   OH238793   4.272   2.763   1.734 -0.1869  0.2639  0.7536
 5793TIP3    H138794   4.259   2.690   1.795  1.9549 -0.1827  0.6971
 5793TIP3    H238795   4.367   2.771   1.726 -0.4162  2.5936  0.1775
 5794TIP3   OH238796   2.480   4.821  11.566 -0.6360  0.1420 -0.4519
 5794TIP3    H138797   2.515   4.832  11.654 -0.1590 -1.3815 -0.4427
 5794TIP3    H238798   2.435   4.737  11.568  1.3224 -0.9939 -2.2759
 5795TIP3   OH238799   5.557   6.145  14.613 -0.3457  0.0630  0.1849
 5795TIP3    H138800   5.550   6.073  14.675 -0.7107  1.1038  1.3645
 5795TIP3    H238801   5.588   6.104  14.532  2.1744 -0.9748  1.6378
 5796TIP3   OH238802   5.642   5.756   2.187 -0.1251 -0.4476  0.1038
 5796TIP3    H138803   5.554   5.739   2.222  0.8524 -1.7682  2.0277
 5796TIP3    H238804   5.680   5.668   2.177  0.9544  0.1142 -0.7466
 5797TIP3   OH238805   2.927   1.232  11.799 -0.6317 -0.3428  0.5105
 5797TIP3    H138806   2.923   1.323  11.770 -0.9494 -0.1196  1.2393
 5797TIP3    H238807   2.868   1.228  11.875 -0.3276 -1.0639  0.7150
 5798TIP3   OH238808   1.411   3.962  13.441 -0.3106 -0.0965 -0.3262
 5798TIP3    H138809   1.478   3.961  13.372  0.4086 -0.1464  0.3715
 5798TIP3    H238810   1.381   3.871  13.445  0.8151 -0.4338  0.5581
 5799TIP3   OH238811   0.248   5.976   2.238  0.3629  0.1563 -0.6510
 5799TIP3    H138812   0.334   5.959   2.200 -0.0187 -1.0361 -0.9960
 5799TIP3    H238813   0.199   5.896   2.223 -0.7496  0.7594 -0.2710
 5800TIP3   OH238814   3.542   2.839   0.634  0.2005  0.2359 -0.6347
 5800TIP3    H138815   3.529   2.764   0.575 -0.5747 -0.5838  0.5394
 5800TIP3    H238816   3.613   2.889   0.594  2.9590 -2.8332  0.2039
 5801TIP3   OH238817   2.506   2.833   5.747  0.1280  0.4911  0.0485
 5801TIP3    H138818   2.569   2.816   5.817  1.0316  1.1604 -0.5866
 5801TIP3    H238819   2.439   2.889   5.788 -0.1511 -0.3637  0.7675
 5802TIP3   OH238820   5.315   5.549   4.890  0.4866  0.3747 -0.4169
 5802TIP3    H138821   5.341   5.457   4.900  0.0221  0.4239  1.5480
 5802TIP3    H238822   5.228   5.545   4.851 -0.2715 -0.1197  1.2488
 5803TIP3   OH238823   6.610   3.561  14.547 -0.1870 -0.0537  0.0875
 5803TIP3    H138824   6.535   3.580  14.491 -0.2162  0.2374  0.2269
 5803TIP3    H238825   6.679   3.618  14.513 -0.5676  1.0535  1.1632
 5804TIP3   OH238826   3.200   4.879  11.405 -0.0748  0.0311  0.3056
 5804TIP3    H138827   3.176   4.971  11.397 -1.9978 -0.5069 -0.3380
 5804TIP3    H238828   3.197   4.845  11.315 -0.2686 -0.8791  0.6485
 5805TIP3   OH238829   5.938   2.762  11.999 -0.2603 -0.1708  0.0915
 5805TIP3    H138830   5.980   2.801  11.923 -0.6643  0.5578  0.2358
 5805TIP3    H238831   5.847   2.749  11.973 -0.5705  0.7474  0.6836
 5806TIP3   OH238832   6.468   0.521   3.425  0.2321 -0.2633  0.0382
 5806TIP3    H138833   6.465   0.439   3.376  0.9127  0.0615 -0.5666
 5806TIP3    H238834   6.562   0.541   3.431  0.1480 -0.2366  1.3817
 5807TIP3   OH238835   4.411   4.878   3.588  0.0842 -0.2256  0.3141
 5807TIP3    H138836   4.356   4.878   3.666 -2.2262  1.6516 -1.2599
 5807TIP3    H238837   4.353   4.850   3.518  1.7186 -0.3549 -1.0053
 5808TIP3   OH238838   1.318   6.115  14.607  0.1341 -0.4332  0.6990
 5808TIP3    H138839   1.351   6.132  14.695  0.1677 -2.0838  1.0228
 5808TIP3    H238840   1.223   6.107  14.618  0.1871 -1.1352  0.6729
 5809TIP3   OH238841   5.406   5.651   5.460  0.2232  0.3222  0.4495
 5809TIP3    H138842   5.484   5.704   5.449 -0.8573  1.8681  0.1058
 5809TIP3    H238843   5.334   5.714   5.460 -1.2388 -1.2757 -1.8006
 5810TIP3   OH238844   1.709   5.054  17.016 -0.0399 -0.1122  0.6032
 5810TIP3    H138845   1.777   4.993  16.986 -0.1898 -0.4186  0.8820
 5810TIP3    H238846   1.689   5.107  16.939  0.6516  0.1044  0.5660
 5811TIP3   OH238847   5.781   3.246  11.576 -0.2937  0.3659 -0.0543
 5811TIP3    H138848   5.846   3.222  11.642  0.5156 -2.3638 -1.7902
 5811TIP3    H238849   5.740   3.164  11.551 -2.0694  1.6363 -1.4576
 5812TIP3   OH238850   5.190   5.149  13.977 -0.7020  0.0090  0.6395
 5812TIP3    H138851   5.132   5.072  13.977 -0.3976 -0.2349  2.0991
 5812TIP3    H238852   5.278   5.113  13.977 -0.5587  0.3510  1.1793
 5813TIP3   OH238853   5.858   2.582  15.595 -0.0789  0.5389 -0.3057
 5813TIP3    H138854   5.883   2.503  15.643  1.0660  0.7820 -0.5007
 5813TIP3    H238855   5.773   2.606  15.633  0.3250  0.1347  0.8819
 5814TIP3   OH238856   6.527   6.723  17.231  0.4198 -0.3584  0.5627
 5814TIP3    H138857   6.596   6.687  17.287  0.3925 -0.1854  0.7047
 5814TIP3    H238858   6.458   6.750  17.291  1.5284  2.3871  0.6640
 5815TIP3   OH238859   3.883   5.694  12.665 -0.2495 -0.0887  0.2700
 5815TIP3    H138860   3.789   5.705  12.648  0.1039  1.9049 -0.4665
 5815TIP3    H238861   3.926   5.741  12.595  1.3691 -2.6736 -0.5398
 5816TIP3   OH238862   2.582   2.979   2.008  0.1989 -0.5185  0.4479
 5816TIP3    H138863   2.552   3.036   2.078 -1.7529 -1.8305  0.6994
 5816TIP3    H238864   2.636   2.913   2.052 -0.6328 -1.0613  0.6610
 5817TIP3   OH238865   3.472   6.456   1.458 -0.4382  0.0045  0.1200
 5817TIP3    H138866   3.562   6.452   1.426 -0.3851 -0.8746  0.3658
 5817TIP3    H238867   3.470   6.532   1.516  0.3466 -0.4248  0.7194
 5818TIP3   OH238868   1.020   1.028  15.383 -0.5186  0.2797  0.0284
 5818TIP3    H138869   1.071   0.967  15.437  0.3598 -0.2054 -1.3336
 5818TIP3    H238870   0.957   0.972  15.337 -0.9967  0.6422  0.2357
 5819TIP3   OH238871   1.406   5.924  16.125 -0.0244 -0.6688  0.5376
 5819TIP3    H138872   1.381   6.013  16.146 -0.4422 -0.8407  0.7640
 5819TIP3    H238873   1.501   5.921  16.141  0.0680 -0.1465  0.0937
 5820TIP3   OH238874   0.251   1.546   3.473  0.4091  0.2535 -0.3085
 5820TIP3    H138875   0.255   1.490   3.551  0.5072 -0.9054 -1.1417
 5820TIP3    H238876   0.208   1.626   3.504  0.7470 -0.0578  1.0165
 5821TIP3   OH238877   2.600   0.122  13.767 -0.1311  0.3297 -0.0819
 5821TIP3    H138878   2.639   0.171  13.840 -2.3326  2.3569 -0.1958
 5821TIP3    H238879   2.575   0.038  13.805  1.8064  0.0665  0.6536
 5822TIP3   OH238880   3.103   3.342   0.083 -0.2138  0.1960  0.2853
 5822TIP3    H138881   3.194   3.329   0.109 -0.0577  1.1891  0.2671
 5822TIP3    H238882   3.075   3.258   0.047  1.0727  0.2445 -0.8274
 5823TIP3   OH238883   3.286   5.610  12.574  0.2279 -0.1584  0.7174
 5823TIP3    H138884   3.327   5.558  12.505  2.3918  1.3445  0.8079
 5823TIP3    H238885   3.317   5.569  12.655  0.1690 -0.0536  0.7922
 5824TIP3   OH238886   2.824   3.657  13.653  0.3628  0.0368  0.5016
 5824TIP3    H138887   2.868   3.644  13.570  1.3150  0.0171  0.9998
 5824TIP3    H238888   2.745   3.707  13.632  0.8625  0.4782 -0.3375
 5825TIP3   OH238889   2.131   2.619  14.611  0.1558  0.2736  0.1915
 5825TIP3    H138890   2.109   2.547  14.671 -0.9592  0.3495 -0.1233
 5825TIP3    H238891   2.222   2.602  14.587 -0.2906 -1.4225 -0.4042
 5826TIP3   OH238892   3.044   2.683  13.389  0.6584  0.3266  0.1241
 5826TIP3    H138893   3.124   2.650  13.350 -0.8130 -3.2115 -0.0705
 5826TIP3    H238894   3.064   2.692  13.482  1.8873  1.5538 -0.2398
 5827TIP3   OH238895   3.459   2.471   2.257  0.0455  0.2463 -0.1682
 5827TIP3    H138896   3.442   2.521   2.337  0.3270 -0.0811  0.0937
 5827TIP3    H238897   3.412   2.519   2.189 -0.5871  0.2531  0.2758
 5828TIP3   OH238898   1.923   2.690   1.382  0.5707  0.6294  0.1954
 5828TIP3    H138899   1.946   2.637   1.306  0.2115  0.9541 -0.1425
 5828TIP3    H238900   1.988   2.760   1.384 -0.0454  1.2256 -0.4313
 5829TIP3   OH238901   2.846   2.369   4.346 -0.0097  0.1423  0.1884
 5829TIP3    H138902   2.787   2.298   4.320  1.0722 -2.6862  4.9709
 5829TIP3    H238903   2.796   2.420   4.409  0.6805  1.2267 -0.1257
 5830TIP3   OH238904   4.941   5.618  14.614  0.5521  0.3493  0.0098
 5830TIP3    H138905   4.899   5.564  14.547 -0.5022 -1.5472  2.1320
 5830TIP3    H238906   4.881   5.691  14.627 -0.7102 -0.8253  0.9511
 5831TIP3   OH238907   5.940   0.851   0.172 -0.6941 -0.1433  0.5545
 5831TIP3    H138908   6.028   0.886   0.162 -0.3616 -0.9776  0.5802
 5831TIP3    H238909   5.884   0.929   0.176 -0.1208  0.3495 -0.9015
 5832TIP3   OH238910   0.948   2.636   5.470  0.8016  0.0958  0.3893
 5832TIP3    H138911   0.970   2.545   5.490 -0.7366 -0.5798 -0.9515
 5832TIP3    H238912   0.862   2.650   5.510  0.7326  0.7703  0.0219
 5833TIP3   OH238913   0.374   0.645  15.424  0.3510  0.2820  0.4767
 5833TIP3    H138914   0.424   0.715  15.382  1.3296  0.5006  1.9601
 5833TIP3    H238915   0.395   0.653  15.517  0.5143 -1.9927  0.6734
 5834TIP3   OH238916   3.209   5.196  13.960  0.0227 -0.6903  0.2382
 5834TIP3    H138917   3.249   5.203  13.874 -0.8360 -1.6654 -0.2451
 5834TIP3    H238918   3.152   5.119  13.955 -0.1095 -0.7087  1.6372
 5835TIP3   OH238919   2.563   1.162  14.069  0.2001  0.7377 -0.0719
 5835TIP3    H138920   2.554   1.225  13.997  0.1155  0.4227 -0.3349
 5835TIP3    H238921   2.652   1.176  14.102 -0.0399  1.4481  0.2912
 5836TIP3   OH238922   6.289   4.035   3.975 -0.2648  0.3281 -0.1701
 5836TIP3    H138923   6.251   4.084   4.048  1.1776  1.6144 -0.2543
 5836TIP3    H238924   6.241   4.065   3.899  1.4117  2.5953 -0.3977
 5837TIP3   OH238925   2.046   3.876  14.929  0.7192  0.9914  0.5062
 5837TIP3    H138926   2.006   3.963  14.925  0.3768  0.8520  0.8579
 5837TIP3    H238927   2.029   3.846  15.018 -0.6136 -0.1233 -0.0994
 5838TIP3   OH238928   5.412   0.509  13.260 -0.3779  0.4041 -0.4192
 5838TIP3    H138929   5.359   0.471  13.331 -1.2319  1.5770 -0.4149
 5838TIP3    H238930   5.354   0.506  13.183 -0.1682  0.9757 -0.5996
 5839TIP3   OH238931   1.347   0.442  15.083  0.3725  0.2123 -0.2514
 5839TIP3    H138932   1.272   0.430  15.025  0.0236  1.1183 -0.0089
 5839TIP3    H238933   1.344   0.367  15.143 -0.8894  0.7206  0.3374
 5840TIP3   OH238934   3.687   1.870   6.239 -0.7291  0.1363 -0.1310
 5840TIP3    H138935   3.716   1.847   6.151 -1.0676  2.9806 -1.0207
 5840TIP3    H238936   3.765   1.905   6.282 -1.3233  1.9152 -0.4548
 5841TIP3   OH238937   0.817   3.244   2.422 -0.5738 -0.7178  0.2385
 5841TIP3    H138938   0.864   3.233   2.504 -1.1665 -1.5904  0.4797
 5841TIP3    H238939   0.751   3.311   2.441 -0.0453 -0.1793  0.1745
 5842TIP3   OH238940   0.403   4.452  13.446  0.0724 -0.4104 -0.0912
 5842TIP3    H138941   0.415   4.390  13.518  1.3779  0.2027  0.2370
 5842TIP3    H238942   0.330   4.508  13.475  0.9031  0.1316  0.9818
 5843TIP3   OH238943   2.844   5.652  12.038 -0.6578  0.4037  0.5819
 5843TIP3    H138944   2.752   5.636  12.022 -0.8604  2.0354 -0.0096
 5843TIP3    H238945   2.846   5.731  12.093  0.3278 -0.5909  2.0298
 5844TIP3   OH238946   2.551   3.427   2.183  0.0712 -0.1098  0.1908
 5844TIP3    H138947   2.614   3.406   2.252  0.9688  0.6490 -0.3879
 5844TIP3    H238948   2.603   3.428   2.103 -0.5283  1.2710 -0.1943
 5845TIP3   OH238949   1.782   6.299  13.916 -0.8444  0.1815  0.0085
 5845TIP3    H138950   1.793   6.391  13.939  0.0310 -0.0057  0.3551
 5845TIP3    H238951   1.807   6.294  13.823  0.1848  0.1021  0.2834
 5846TIP3   OH238952   6.723   1.748  12.842  0.2116 -0.0056 -0.3218
 5846TIP3    H138953   6.654   1.794  12.889  0.4850 -0.5749  0.6419
 5846TIP3    H238954   6.730   1.795  12.759 -0.9818  0.3697 -0.2260
 5847TIP3   OH238955   2.225   1.211   3.478 -0.1402 -0.6799 -0.2213
 5847TIP3    H138956   2.134   1.233   3.460  0.1633 -0.2503 -1.2833
 5847TIP3    H238957   2.244   1.251   3.562 -0.7021 -0.1031 -0.3666
 5848TIP3   OH238958   0.441   3.345  13.174  0.7931  0.2118 -0.0391
 5848TIP3    H138959   0.453   3.334  13.269  1.9596  2.5453  0.1435
 5848TIP3    H238960   0.398   3.265  13.145  2.2648 -1.4267  2.1363
 5849TIP3   OH238961   3.074   2.565   3.083  0.5428 -0.5649  0.1428
 5849TIP3    H138962   2.988   2.523   3.078 -0.1630  0.8319  0.4218
 5849TIP3    H238963   3.055   2.656   3.103  2.0963 -0.2285  0.1220
 5850TIP3   OH238964   2.456   3.792   2.193 -0.1689 -0.9111 -0.3877
 5850TIP3    H138965   2.449   3.706   2.152 -1.8174 -1.8018  1.6529
 5850TIP3    H238966   2.403   3.785   2.272  0.7733  1.5799  0.5094
 5851TIP3   OH238967   1.783   4.845   3.302  0.2581 -0.0931 -0.2740
 5851TIP3    H138968   1.878   4.859   3.295  0.4363 -1.0885  0.1387
 5851TIP3    H238969   1.772   4.791   3.380 -0.7437  0.9077  0.2955
 5852TIP3   OH238970   5.187   5.270   0.510  0.1749  0.1632 -0.0329
 5852TIP3    H138971   5.129   5.201   0.478  0.7949 -0.3251 -0.1210
 5852TIP3    H238972   5.146   5.352   0.484 -0.5686 -0.1783  0.0702
 5853TIP3   OH238973   1.392   5.042   4.452  0.0460  0.0744 -0.3234
 5853TIP3    H138974   1.389   4.947   4.464 -1.2719  0.1709  0.2205
 5853TIP3    H238975   1.356   5.056   4.364 -1.0310  0.1567  0.1247
 5854TIP3   OH238976   2.042   4.152  13.663  0.3388  0.1029  0.5877
 5854TIP3    H138977   2.021   4.114  13.748 -0.1955  0.3345  0.5579
 5854TIP3    H238978   2.041   4.078  13.603  2.4753 -0.3740  1.0754
 5855TIP3   OH238979   0.447   0.320  14.079  0.1010  0.4659  0.4080
 5855TIP3    H138980   0.480   0.245  14.129  0.3898  0.3963  0.1159
 5855TIP3    H238981   0.464   0.396  14.136  0.5067  0.3968  0.3788
 5856TIP3   OH238982   1.156   2.163   5.841 -0.1832 -0.2258 -0.2967
 5856TIP3    H138983   1.143   2.089   5.782 -0.2710 -0.4021 -0.0593
 5856TIP3    H238984   1.250   2.163   5.859 -0.2972 -0.7645  0.3250
 5857TIP3   OH238985   3.764   6.312  12.205 -0.6809  0.3942 -0.2567
 5857TIP3    H138986   3.851   6.347  12.184 -1.3188  2.2765  0.1845
 5857TIP3    H238987   3.708   6.389  12.215 -2.0041 -0.7104  1.2401
 5858TIP3   OH238988   6.594   3.658  16.602  0.6967 -0.4239  0.2878
 5858TIP3    H138989   6.500   3.646  16.615  0.8245  0.1875  1.9151
 5858TIP3    H238990   6.602   3.689  16.512 -0.5478 -1.6229 -0.2557
 5859TIP3   OH238991   0.509   3.268  13.432  0.2092  0.1023 -0.3346
 5859TIP3    H138992   0.489   3.309  13.517 -0.1236 -2.1282  0.7132
 5859TIP3    H238993   0.593   3.225  13.446  0.6688  0.6145 -1.4837
 5860TIP3   OH238994   1.615   0.195   0.494  0.6858 -0.2397  0.2325
 5860TIP3    H138995   1.689   0.150   0.452 -0.0810 -1.7954  0.5197
 5860TIP3    H238996   1.656   0.255   0.556  1.7807  0.7362 -1.3851
 5861TIP3   OH238997   1.726   0.069   2.514 -0.0816  0.3888  0.1344
 5861TIP3    H138998   1.707   0.134   2.446  1.3247  0.6255 -0.0572
 5861TIP3    H238999   1.758   0.120   2.588  0.1618 -0.0199  0.3105
 5862TIP3   OH239000   5.001   5.084  14.346  0.3148  0.4916 -0.4646
 5862TIP3    H139001   5.041   5.005  14.384 -2.0591 -0.6009 -0.1401
 5862TIP3    H239002   4.963   5.053  14.263  0.0886  1.4908 -0.7349
 5863TIP3   OH239003   0.985   6.166  11.660  0.1094  0.0690 -0.1390
 5863TIP3    H139004   0.903   6.145  11.616 -0.7284  1.6486  0.6139
 5863TIP3    H239005   1.038   6.087  11.653 -1.6441 -1.0967 -0.2949
 5864TIP3   OH239006   0.389   5.117  14.858  0.8525 -0.2825  0.5770
 5864TIP3    H139007   0.419   5.191  14.804  0.7626 -2.5694 -2.7615
 5864TIP3    H239008   0.469   5.072  14.885  0.8133 -0.3903  0.5138
 5865TIP3   OH239009   4.044   2.451  12.806 -0.1589  0.0143  0.0381
 5865TIP3    H139010   3.996   2.513  12.751  0.3103  0.3298 -0.0219
 5865TIP3    H239011   4.130   2.443  12.764  0.8115  1.5752  1.6308
 5866TIP3   OH239012   4.740   1.217  13.536 -0.2180  0.4718  0.7502
 5866TIP3    H139013   4.811   1.271  13.503 -0.1437  0.5799  1.0800
 5866TIP3    H239014   4.745   1.227  13.631 -0.0915 -0.2578  0.8228
 5867TIP3   OH239015   3.583   5.674  12.647 -0.5958 -0.5749 -0.1286
 5867TIP3    H139016   3.595   5.657  12.554  1.1375 -1.0870  0.1641
 5867TIP3    H239017   3.500   5.631  12.669 -1.0570 -0.3705 -1.4400
 5868TIP3   OH239018   6.081   4.362  16.231 -0.1467 -0.1087 -0.1306
 5868TIP3    H139019   6.028   4.428  16.186  0.0501 -0.3987 -0.7896
 5868TIP3    H239020   6.171   4.387  16.211 -0.0347  0.2957  0.8698
 5869TIP3   OH239021   0.695   1.757   4.220  0.0089 -0.6611 -0.4412
 5869TIP3    H139022   0.667   1.678   4.173 -0.7559 -1.1657  0.8201
 5869TIP3    H239023   0.711   1.822   4.151 -0.6094 -1.5322 -1.4226
 5870TIP3   OH239024   6.356   5.031   3.816  0.1075  0.2753 -0.5473
 5870TIP3    H139025   6.312   4.949   3.795 -2.8451  1.2104  1.6679
 5870TIP3    H239026   6.335   5.089   3.742 -0.1274 -0.1192 -0.7902
 5871TIP3   OH239027   4.406   3.534  15.752  0.1115  0.4600 -0.3972
 5871TIP3    H139028   4.420   3.487  15.670 -0.3981  0.7121 -0.6266
 5871TIP3    H239029   4.350   3.608  15.729 -0.2050  0.4182  0.2197
 5872TIP3   OH239030   2.078   2.064   1.536  0.2686  0.0474 -0.2704
 5872TIP3    H139031   2.072   2.158   1.550 -0.1942 -0.0335  0.1050
 5872TIP3    H239032   2.170   2.043   1.547  0.1067  0.1824  1.4176
 5873TIP3   OH239033   5.469   0.270  13.149 -0.0752 -0.7632  0.3621
 5873TIP3    H139034   5.432   0.337  13.093  2.3789 -0.5685 -1.1101
 5873TIP3    H239035   5.401   0.251  13.213 -1.3592  2.0309 -0.1254
 5874TIP3   OH239036   3.032   1.666   0.950 -0.7490 -0.3960 -0.1887
 5874TIP3    H139037   3.068   1.597   0.894 -0.9993  0.7275 -1.7916
 5874TIP3    H239038   3.055   1.747   0.905 -1.2252  0.5292  1.2039
 5875TIP3   OH239039   0.282   2.929  17.065 -0.2326  0.1641  0.3009
 5875TIP3    H139040   0.295   2.856  17.004 -0.5627  0.6467 -0.3542
 5875TIP3    H239041   0.344   2.912  17.136 -0.0967 -0.5951  0.0049
 5876TIP3   OH239042   3.185   1.242  14.444 -0.7402 -0.0918  0.0926
 5876TIP3    H139043   3.272   1.216  14.477 -0.7101  1.0884  0.9602
 5876TIP3    H239044   3.161   1.317  14.498 -2.2887 -0.3819 -0.1858
 5877TIP3   OH239045   0.550   4.865  17.004  0.7004  0.1277 -0.6613
 5877TIP3    H139046   0.464   4.905  17.008  0.4192 -0.4272 -1.1062
 5877TIP3    H239047   0.596   4.897  17.082 -0.0406  0.0990 -0.2171
 5878TIP3   OH239048   4.941   1.954  14.706  0.1802  0.3973 -0.0258
 5878TIP3    H139049   4.898   1.963  14.621 -0.0364  0.5815  0.1014
 5878TIP3    H239050   4.954   2.044  14.736 -0.5448  0.3274  0.5287
 5879TIP3   OH239051   4.977   4.217   6.177  0.3765 -0.2524  0.5992
 5879TIP3    H139052   4.886   4.230   6.203  0.4032  1.5097 -0.0933
 5879TIP3    H239053   5.012   4.306   6.168  1.4429 -0.8596 -1.5768
 5880TIP3   OH239054   6.668   3.075   4.847 -0.1275  0.2795 -0.4433
 5880TIP3    H139055   6.597   3.112   4.793  0.2091  2.3551  0.4602
 5880TIP3    H239056   6.627   3.058   4.932  0.1474  0.2705 -0.3118
 5881TIP3   OH239057   5.060   2.796   3.530 -0.4370 -0.0948 -0.0437
 5881TIP3    H139058   5.129   2.732   3.547 -0.8590 -0.8543 -1.1847
 5881TIP3    H239059   5.013   2.802   3.613 -0.1408 -0.9562  0.1923
 5882TIP3   OH239060   4.490   4.478   1.261  0.0901  0.7931 -0.3160
 5882TIP3    H139061   4.442   4.554   1.226 -0.0326  1.1458  0.6003
 5882TIP3    H239062   4.565   4.517   1.307  3.1104  0.1323 -4.4647
 5883TIP3   OH239063   4.165   4.787  14.726  1.0221 -0.0809 -0.4090
 5883TIP3    H139064   4.131   4.741  14.802 -2.4359  0.9889 -1.2053
 5883TIP3    H239065   4.117   4.870  14.725  2.1933  0.6177 -2.8086
 5884TIP3   OH239066   2.083   1.076   2.221 -0.0550  0.1997  0.0335
 5884TIP3    H139067   2.007   1.096   2.166 -0.9237 -0.5494  0.9398
 5884TIP3    H239068   2.157   1.072   2.160 -1.1264 -1.3966 -1.1935
 5885TIP3   OH239069   6.692   0.049   2.430 -0.1026 -0.3833  0.1102
 5885TIP3    H139070   6.745   0.090   2.362 -2.1956 -0.7359 -1.7882
 5885TIP3    H239071   6.651   0.123   2.476 -0.9522 -0.2069 -0.9075
 5886TIP3   OH239072   1.331   6.489  11.486 -0.0115 -0.1573  0.0750
 5886TIP3    H139073   1.300   6.402  11.514 -1.1967  0.9863  2.4794
 5886TIP3    H239074   1.369   6.527  11.565  1.3783  1.1620 -1.1961
 5887TIP3   OH239075   3.122   5.082   0.408 -0.5812  0.0867  0.5694
 5887TIP3    H139076   3.170   5.164   0.392 -0.7059 -0.0082 -0.3522
 5887TIP3    H239077   3.125   5.036   0.324 -0.0311 -1.1156  1.2348
 5888TIP3   OH239078   6.519   1.958  11.000  0.2339  0.1014 -0.0170
 5888TIP3    H139079   6.535   2.040  10.954  1.4797 -0.3593 -0.4259
 5888TIP3    H239080   6.423   1.949  11.001  0.0777  1.6629  0.2470
 5889TIP3   OH239081   3.585   4.992   2.154 -0.1189  0.2859  0.0446
 5889TIP3    H139082   3.599   5.003   2.060 -1.2161  0.9572 -0.0454
 5889TIP3    H239083   3.667   5.021   2.194  1.6485 -3.1359 -0.8542
 5890TIP3   OH239084   6.186   3.828   0.162  0.1551 -0.3736 -0.3368
 5890TIP3    H139085   6.116   3.893   0.167 -0.3439 -1.0501  1.8900
 5890TIP3    H239086   6.264   3.873   0.195  0.1574 -0.4463 -0.2432
 5891TIP3   OH239087   1.977   5.966   2.976  0.2865 -0.1957 -0.2182
 5891TIP3    H139088   2.046   5.994   2.916  0.0529 -1.4290 -1.0832
 5891TIP3    H239089   2.004   5.879   3.006 -0.7046 -0.5407 -0.2805
 5892TIP3   OH239090   4.748   4.731  15.192 -0.0671  0.7100  0.1523
 5892TIP3    H139091   4.693   4.757  15.118 -1.3337 -0.9304  0.4977
 5892TIP3    H239092   4.835   4.764  15.170 -0.0883 -1.0492 -2.7899
 5893TIP3   OH239093   5.279   4.335  11.691 -0.0467 -0.0462 -0.2774
 5893TIP3    H139094   5.309   4.411  11.641  0.6561 -0.6083 -0.7179
 5893TIP3    H239095   5.294   4.261  11.632 -1.0247 -0.4875  0.0293
 5894TIP3   OH239096   4.647   6.333  13.966  0.1089 -0.7838  0.5162
 5894TIP3    H139097   4.605   6.362  14.046 -1.6190  1.3627 -1.1107
 5894TIP3    H239098   4.616   6.243  13.953 -0.5258 -0.7256  1.6207
 5895TIP3   OH239099   1.456   6.215   5.955  0.0908  0.3492 -0.3734
 5895TIP3    H139100   1.430   6.301   5.919  1.7991  0.8961 -0.3479
 5895TIP3    H239101   1.504   6.237   6.035 -2.3005 -0.8016  1.4290
 5896TIP3   OH239102   2.650   2.317  16.186 -0.8688 -0.1770 -0.0026
 5896TIP3    H139103   2.669   2.280  16.272 -3.3162 -1.5740 -0.0054
 5896TIP3    H239104   2.665   2.244  16.125 -1.3502  0.1413 -0.5124
 5897TIP3   OH239105   5.261   6.628   1.803  0.5284 -0.1679 -0.3525
 5897TIP3    H139106   5.178   6.664   1.834  2.9265  3.1237  2.4980
 5897TIP3    H239107   5.282   6.558   1.865  0.1819 -0.6791 -0.7984
 5898TIP3   OH239108   5.538   0.482  12.554 -0.4367  0.1028  0.0759
 5898TIP3    H139109   5.522   0.455  12.464  0.5174 -1.0008  0.2199
 5898TIP3    H239110   5.627   0.451  12.572 -0.2638  1.1546  1.0840
 5899TIP3   OH239111   0.365   2.220   5.625  0.3310  0.9083  0.1518
 5899TIP3    H139112   0.287   2.274   5.608 -0.8623 -0.5879  0.7723
 5899TIP3    H239113   0.339   2.162   5.696  1.3980 -0.9150 -0.9200
 5900TIP3   OH239114   2.479   5.518  13.410 -0.2057  0.0542 -0.1913
 5900TIP3    H139115   2.432   5.599  13.386  0.9188  1.1058  1.0886
 5900TIP3    H239116   2.561   5.524  13.361 -0.6332 -0.9199 -1.0401
 5901TIP3   OH239117   5.684   1.879   1.176  0.4625 -0.3379 -0.2966
 5901TIP3    H139118   5.672   1.795   1.220 -0.9135  0.3370  0.6519
 5901TIP3    H239119   5.776   1.880   1.151  1.3712 -0.6062  2.8539
 5902TIP3   OH239120   6.011   2.457  11.945  0.2110 -0.2065 -0.0376
 5902TIP3    H139121   5.940   2.519  11.930  0.2192 -0.2328 -0.1896
 5902TIP3    H239122   6.091   2.507  11.927  0.2123 -0.2936 -0.2690
 5903TIP3   OH239123   6.467   0.355  10.870 -0.0712  0.6303  0.0484
 5903TIP3    H139124   6.411   0.433  10.875 -2.1408 -0.5822 -2.9369
 5903TIP3    H239125   6.407   0.282  10.883  1.3373 -0.6071 -0.3000
 5904TIP3   OH239126   5.410   1.703   1.699 -0.1106  0.1527 -0.3430
 5904TIP3    H139127   5.496   1.743   1.716 -0.0736  0.4936 -1.2572
 5904TIP3    H239128   5.427   1.609   1.702  0.4570  0.2148 -1.2078
 5905TIP3   OH239129   5.554   3.564  16.678 -0.1552 -0.0174  0.6123
 5905TIP3    H139130   5.525   3.538  16.591 -0.2198  1.9985 -0.0076
 5905TIP3    H239131   5.488   3.527  16.737 -1.2498  0.3148 -0.3744
 5906TIP3   OH239132   2.599   4.727  13.995 -0.2086 -0.2653  0.0478
 5906TIP3    H139133   2.570   4.738  14.086  0.4196  1.5054  0.0578
 5906TIP3    H239134   2.656   4.803  13.980  0.5364 -1.1283 -1.4847
 5907TIP3   OH239135   6.279   1.453   4.212  0.5774  0.2726  0.2274
 5907TIP3    H139136   6.346   1.489   4.154  1.0830 -2.2319 -0.8022
 5907TIP3    H239137   6.298   1.360   4.217 -2.3602 -0.3731  0.5651
 5908TIP3   OH239138   3.587   4.662   3.058 -0.5154 -0.1114 -0.1767
 5908TIP3    H139139   3.492   4.653   3.054 -0.5042  0.3303 -1.5181
 5908TIP3    H239140   3.611   4.623   3.143 -1.8096 -0.8055 -0.1162
 5909TIP3   OH239141   6.340   6.672  16.267 -0.0927  0.8435 -0.4670
 5909TIP3    H139142   6.318   6.579  16.270 -0.7072  0.9857 -0.5977
 5909TIP3    H239143   6.351   6.698  16.358  1.4878  0.3132 -0.4750
 5910TIP3   OH239144   2.279   4.646  11.012  0.0779 -0.0855  0.6842
 5910TIP3    H139145   2.286   4.555  10.983 -0.2339 -0.1380  0.7756
 5910TIP3    H239146   2.336   4.694  10.952 -1.0853 -0.0909 -0.4393
 5911TIP3   OH239147   0.099   3.147   2.431  0.5302 -0.3546  0.4401
 5911TIP3    H139148   0.070   3.115   2.516 -2.1339  1.3605  0.2556
 5911TIP3    H239149   0.156   3.220   2.451  1.6344 -1.2907  0.7630
 5912TIP3   OH239150   2.323   3.399   4.815  0.8513 -0.2295  0.3076
 5912TIP3    H139151   2.339   3.390   4.721 -0.5728  0.3054 -0.0032
 5912TIP3    H239152   2.271   3.321   4.838  1.2381 -0.3848  0.6627
 5913TIP3   OH239153   1.810   1.123  16.871 -0.1111  0.1993 -0.2312
 5913TIP3    H139154   1.861   1.129  16.790 -0.1756  1.4843 -0.1899
 5913TIP3    H239155   1.765   1.207  16.877 -1.5147 -0.5733  0.2150
 5914TIP3   OH239156   1.751   4.421   0.016  0.7966  0.0064  0.1721
 5914TIP3    H139157   1.824   4.405  -0.044  0.3983  0.1732 -0.3606
 5914TIP3    H239158   1.775   4.372   0.095  0.8907 -0.9775 -0.4456
 5915TIP3   OH239159   4.243   3.035  11.202 -0.4568  0.4402  0.1280
 5915TIP3    H139160   4.205   2.965  11.255  1.5557 -0.7373  0.0596
 5915TIP3    H239161   4.337   3.023  11.210 -0.0701  3.0508 -0.0410
 5916TIP3   OH239162   1.608   6.759  11.717 -0.2186 -0.5475 -0.4005
 5916TIP3    H139163   1.680   6.697  11.720  1.2353  1.1004 -0.2481
 5916TIP3    H239164   1.610   6.802  11.802 -1.9905 -1.1466 -0.0438
 5917TIP3   OH239165   6.704   2.215  10.856  0.6947 -0.2768 -0.0188
 5917TIP3    H139166   6.621   2.206  10.809  1.3448 -0.9370 -1.0639
 5917TIP3    H239167   6.742   2.296  10.822  0.5213 -0.0140  0.4057
 5918TIP3   OH239168   1.438   1.018  15.879 -0.0627  0.2807  0.0386
 5918TIP3    H139169   1.500   1.018  15.806 -1.5222 -3.6201 -1.3134
 5918TIP3    H239170   1.372   1.083  15.854 -1.1719 -1.8035 -2.7623
 5919TIP3   OH239171   6.709   0.761   2.506 -0.8932 -0.2845 -0.2373
 5919TIP3    H139172   6.740   0.764   2.416  0.0636  1.6439  0.1160
 5919TIP3    H239173   6.634   0.821   2.507  0.1001  0.9685  0.5876
 5920TIP3   OH239174   1.627   0.607   4.082  0.1539  0.2427  0.2797
 5920TIP3    H139175   1.717   0.636   4.066  0.2768 -0.0645  0.4151
 5920TIP3    H239176   1.575   0.687   4.076  0.3600  0.3367 -0.3784
 5921TIP3   OH239177   0.492   0.495  17.134  0.3479  0.7440 -0.0850
 5921TIP3    H139178   0.405   0.505  17.174 -0.0888 -1.4872 -0.3663
 5921TIP3    H239179   0.547   0.559  17.178 -1.3049  1.7820  0.5207
 5922TIP3   OH239180   2.108   3.905  14.113 -0.3187  0.5180  0.3261
 5922TIP3    H139181   2.191   3.863  14.093 -0.8095 -0.3506  0.1070
 5922TIP3    H239182   2.133   3.990  14.151  0.6267  1.0297 -1.4198
 5923TIP3   OH239183   3.267   5.295  14.896 -0.5095  0.7196  0.1598
 5923TIP3    H139184   3.172   5.294  14.910 -0.3004  0.6543  1.6629
 5923TIP3    H239185   3.295   5.207  14.919  0.2652  1.5223  2.4809
 5924TIP3   OH239186   2.543   0.905  14.739  0.5350 -0.2931  0.4731
 5924TIP3    H139187   2.507   0.828  14.784  0.8089 -0.9529 -0.4162
 5924TIP3    H239188   2.576   0.870  14.656  1.7267  0.5906  0.5702
 5925TIP3   OH239189   1.974   1.892  12.842  0.4112  0.1777 -0.0994
 5925TIP3    H139190   1.921   1.834  12.898  1.2937 -0.0593  0.4985
 5925TIP3    H239191   1.956   1.979  12.876 -0.2454  0.1804 -0.4413
 5926TIP3   OH239192   2.051   3.301  15.197 -0.0593  0.3640 -0.2005
 5926TIP3    H139193   2.123   3.353  15.161  0.1668 -0.2330 -0.6423
 5926TIP3    H239194   1.983   3.305  15.129  0.2841 -0.5898 -0.6124
 5927TIP3   OH239195   3.635   2.471  16.311  0.3236 -0.5810 -0.1266
 5927TIP3    H139196   3.559   2.479  16.369  0.9261 -1.2899  0.7866
 5927TIP3    H239197   3.601   2.430  16.232 -0.5722  0.6779 -0.4011
 5928TIP3   OH239198   4.805   1.387  14.397  0.0237 -0.3750  0.0759
 5928TIP3    H139199   4.869   1.319  14.421 -0.8736 -1.8834 -1.7329
 5928TIP3    H239200   4.771   1.418  14.481  2.9590  0.3169  1.0822
 5929TIP3   OH239201   5.509   4.820  15.635  0.0330 -0.3263 -0.5610
 5929TIP3    H139202   5.591   4.807  15.587  1.0941 -0.4828  1.2461
 5929TIP3    H239203   5.536   4.860  15.718 -1.5542 -1.9295  0.7702
 5930TIP3   OH239204   0.095   2.314   3.877  0.2995 -0.2766 -0.2287
 5930TIP3    H139205   0.170   2.286   3.824  0.3331  0.9020 -0.8174
 5930TIP3    H239206   0.071   2.399   3.841 -0.2547  0.1243  1.0726
 5931TIP3   OH239207   5.870   1.892  17.088  0.3339 -0.1148  0.3782
 5931TIP3    H139208   5.777   1.900  17.066  0.4659 -0.1943 -0.2001
 5931TIP3    H239209   5.901   1.817  17.038  0.0912 -1.7861  2.6193
 5932TIP3   OH239210   5.040   1.282   3.921 -0.4084  0.0824  0.2528
 5932TIP3    H139211   5.120   1.278   3.974  0.6031 -2.8686 -1.3427
 5932TIP3    H239212   5.051   1.359   3.865  1.3931 -0.3586 -0.0174
 5933TIP3   OH239213   4.970   2.248  13.584  0.0436 -0.4293 -0.3286
 5933TIP3    H139214   4.953   2.303  13.661  1.2130 -0.4904 -0.0136
 5933TIP3    H239215   4.910   2.174  13.594 -0.5629  0.1077 -0.0292
 5934TIP3   OH239216   4.322   1.584  12.791  0.0375  0.5233  0.1463
 5934TIP3    H139217   4.395   1.626  12.745 -0.5675 -0.4176 -1.7551
 5934TIP3    H239218   4.331   1.611  12.882  1.8948  1.6120 -0.3458
 5935TIP3   OH239219   4.632   1.942   2.826  0.2517  0.3289 -0.7481
 5935TIP3    H139220   4.676   1.972   2.905 -0.1037 -0.1493 -0.3675
 5935TIP3    H239221   4.651   1.849   2.821 -0.0767  0.2731 -0.9926
 5936TIP3   OH239222   0.518   0.833  11.691  0.5170  0.3139  0.2464
 5936TIP3    H139223   0.470   0.802  11.614  0.6521  0.0212  0.2809
 5936TIP3    H239224   0.500   0.768  11.759  1.5482 -0.1853  0.0513
 5937TIP3   OH239225   2.668   3.742   1.576  0.0890 -0.1802  0.4971
 5937TIP3    H139226   2.589   3.795   1.590 -0.1489 -0.7018  1.1510
 5937TIP3    H239227   2.663   3.716   1.485 -0.1181  0.4038  0.3381
 5938TIP3   OH239228   6.168   3.849  10.548  0.1872  0.2289  0.5280
 5938TIP3    H139229   6.107   3.864  10.475  0.6339  2.2929  0.5506
 5938TIP3    H239230   6.134   3.904  10.618  1.1627  0.1342  1.0805
 5939TIP3   OH239231   3.009   4.619   6.487  0.2737  0.0465  0.1788
 5939TIP3    H139232   3.039   4.566   6.560  0.0708 -0.6555 -0.2396
 5939TIP3    H239233   2.980   4.701   6.526 -2.1462 -1.2320  1.1837
 5940TIP3   OH239234   2.562   5.263   5.596 -0.0863 -0.4583  0.1927
 5940TIP3    H139235   2.532   5.344   5.554  1.6093  0.9475  1.6305
 5940TIP3    H239236   2.569   5.201   5.524 -0.9500  0.7958 -1.0125
 5941TIP3   OH239237   0.792   4.767   6.539 -0.3004 -0.0623  0.1887
 5941TIP3    H139238   0.860   4.829   6.513  1.8256 -2.5178 -0.3613
 5941TIP3    H239239   0.718   4.821   6.566  1.3614  2.6667 -0.5891
 5942TIP3   OH239240   4.633   5.701   6.012 -0.5911 -0.4573  0.0040
 5942TIP3    H139241   4.607   5.680   5.922  0.3971  0.5146 -0.5104
 5942TIP3    H239242   4.729   5.700   6.010 -0.5629 -1.2805  1.2570
 5943TIP3   OH239243   2.904   0.891   1.521  0.1334 -0.1795 -0.5713
 5943TIP3    H139244   2.821   0.940   1.522 -0.4030 -1.1066  1.1424
 5943TIP3    H239245   2.968   0.951   1.560 -0.0423  0.0054 -0.5691
 5944TIP3   OH239246   3.630   4.445  15.601  0.4536  0.5416  0.4685
 5944TIP3    H139247   3.606   4.353  15.614 -0.2730  0.9912  2.4707
 5944TIP3    H239248   3.608   4.463  15.510  1.1759 -1.4286 -0.1304
 5945TIP3   OH239249   3.212   5.163   4.996  0.2230  0.4703  0.0173
 5945TIP3    H139250   3.277   5.231   5.012 -0.5848  0.7990  2.0173
 5945TIP3    H239251   3.180   5.181   4.907  0.5679  2.2400  0.2350
 5946TIP3   OH239252   2.890   2.060  13.243 -0.3100  0.1982  0.1712
 5946TIP3    H139253   2.931   2.043  13.158 -0.9533 -0.0409 -0.0903
 5946TIP3    H239254   2.809   2.010  13.241  0.0407 -0.4169  1.2352
 5947TIP3   OH239255   3.061   5.449   5.006  0.5799 -0.2743  0.0282
 5947TIP3    H139256   3.022   5.470   4.921  0.0181 -0.0161  0.3450
 5947TIP3    H239257   3.123   5.520   5.022 -0.6325  0.6540  0.6657
 5948TIP3   OH239258   6.012   3.989   5.971 -0.6456  0.1727 -0.9259
 5948TIP3    H139259   6.021   4.004   6.065 -0.5424 -0.9598 -0.7584
 5948TIP3    H239260   5.918   3.988   5.956 -0.6585  0.7956 -0.9130
 5949TIP3   OH239261   0.150   5.945  11.796  0.0904 -0.1257  0.2879
 5949TIP3    H139262   0.119   5.858  11.823 -0.2972 -0.3058 -0.7289
 5949TIP3    H239263   0.070   5.993  11.773  0.4996 -0.3918 -1.7415
 5950TIP3   OH239264   0.845   3.100   0.521  0.3004 -0.5718 -0.4033
 5950TIP3    H139265   0.843   3.186   0.563  0.3692 -0.5510 -0.4422
 5950TIP3    H239266   0.813   3.040   0.587  2.4158 -0.8531  0.4094
 5951TIP3   OH239267   2.835   4.996   5.256  0.0321  0.7194  0.0386
 5951TIP3    H139268   2.763   5.049   5.290 -3.6698 -1.6365 -3.6962
 5951TIP3    H239269   2.855   5.034   5.170  0.2329 -1.3399 -0.8519
 5952TIP3   OH239270   4.147   5.225  12.483 -0.2664  0.0797 -0.4217
 5952TIP3    H139271   4.069   5.227  12.538  0.2200 -1.6207  0.3673
 5952TIP3    H239272   4.204   5.293  12.518 -0.9011  0.5229 -0.2513
 5953TIP3   OH239273   0.923   5.861  14.708  0.1294  0.2612 -0.3520
 5953TIP3    H139274   0.967   5.880  14.790 -1.1718  0.2396  0.3658
 5953TIP3    H239275   0.986   5.810  14.657  1.0612  0.5752  0.4890
 5954TIP3   OH239276   4.097   3.679  13.585  0.3971 -0.3093 -0.6106
 5954TIP3    H139277   4.099   3.685  13.681  1.3675 -0.8210 -0.5850
 5954TIP3    H239278   4.126   3.765  13.555 -2.4594  0.7341 -0.4895
 5955TIP3   OH239279   3.343   4.081  15.318  0.4372  0.3702  0.0318
 5955TIP3    H139280   3.317   3.990  15.311  0.1508  0.4800 -0.3843
 5955TIP3    H239281   3.308   4.111  15.402  0.4970  0.1094  0.1494
 5956TIP3   OH239282   0.174   5.192   2.515  0.4395 -0.2152  0.1470
 5956TIP3    H139283   0.154   5.172   2.423  1.0646 -1.8701  0.3556
 5956TIP3    H239284   0.139   5.118   2.564 -0.2839  0.8677  1.3071
 5957TIP3   OH239285   5.606   1.353  14.353  0.6156 -0.3051  0.4187
 5957TIP3    H139286   5.527   1.355  14.298  0.6314 -1.7036  0.3326
 5957TIP3    H239287   5.633   1.261  14.353  2.2606  0.1673  0.4418
 5958TIP3   OH239288   1.283   5.188  10.827  0.1524 -0.0822  0.0085
 5958TIP3    H139289   1.325   5.102  10.824 -0.1868 -0.2240 -0.6002
 5958TIP3    H239290   1.340   5.244  10.774  0.1227 -0.0395  0.0221
 5959TIP3   OH239291   5.419   2.033   2.360  0.2261 -0.7904  0.2786
 5959TIP3    H139292   5.453   2.022   2.449  1.0849  1.0439  0.1822
 5959TIP3    H239293   5.364   2.111   2.364 -0.0833 -0.9512 -0.6991
 5960TIP3   OH239294   3.059   3.723   4.022 -0.1950  0.1309  0.7570
 5960TIP3    H139295   3.155   3.727   4.019 -0.2409  0.7475 -0.1281
 5960TIP3    H239296   3.040   3.643   4.070  0.7646 -0.5041  0.0952
 5961TIP3   OH239297   0.875   5.576  10.875 -0.2127 -0.5321  0.3792
 5961TIP3    H139298   0.852   5.593  10.966  0.9359 -1.4036  0.8492
 5961TIP3    H239299   0.809   5.624  10.824  0.5547  1.9196  1.6319
 5962TIP3   OH239300   1.720   4.718  15.480  0.6463 -0.5660 -0.1932
 5962TIP3    H139301   1.748   4.693  15.392  0.7981  0.3042 -0.4002
 5962TIP3    H239302   1.629   4.746  15.470  0.7325 -0.2550 -0.1160
 5963TIP3   OH239303   4.222   5.913   1.716  0.0494  0.2808 -0.1648
 5963TIP3    H139304   4.221   5.941   1.807  0.2563 -0.0011 -0.0753
 5963TIP3    H239305   4.207   5.819   1.719  0.7111  0.1626 -0.3791
 5964TIP3   OH239306   3.009   0.159   1.789  0.5718 -0.0160 -0.3407
 5964TIP3    H139307   3.102   0.179   1.790  0.3109  1.2944 -1.8764
 5964TIP3    H239308   3.005   0.065   1.768  1.4867  0.3635 -2.3262
 5965TIP3   OH239309   1.950   4.722   5.151  0.0824  0.5239  0.4752
 5965TIP3    H139310   1.861   4.701   5.179  0.2295 -0.3750  0.2776
 5965TIP3    H239311   1.983   4.780   5.220 -0.2121 -0.1753  1.2192
 5966TIP3   OH239312   6.705   3.514   3.971 -0.0022  0.0328 -0.4336
 5966TIP3    H139313   6.677   3.423   3.963  0.2015 -0.1929  1.2476
 5966TIP3    H239314   6.800   3.509   3.984 -0.0602  0.4382  0.2148
 5967TIP3   OH239315   4.039   1.107   1.350 -0.2148 -0.2684  0.2138
 5967TIP3    H139316   4.018   1.132   1.440 -1.9266 -2.3071  0.3903
 5967TIP3    H239317   3.998   1.175   1.296 -1.6281 -0.6233  0.8471
 5968TIP3   OH239318   1.136   5.671  14.637 -0.4510 -0.0493  0.3300
 5968TIP3    H139319   1.198   5.725  14.686  0.5621 -1.4926  0.6771
 5968TIP3    H239320   1.128   5.715  14.552 -0.3414  1.1315  0.9238
 5969TIP3   OH239321   5.481   5.322  11.656 -0.0290 -0.1980  0.3831
 5969TIP3    H139322   5.399   5.283  11.684  0.3708 -1.6503 -0.4222
 5969TIP3    H239323   5.508   5.270  11.580  1.8337  0.0003  0.8833
 5970TIP3   OH239324   1.780   3.392   0.205  0.0695 -0.0065  0.1520
 5970TIP3    H139325   1.740   3.477   0.186  0.4887  0.2763  0.5043
 5970TIP3    H239326   1.793   3.351   0.120  0.0659  0.3770 -0.0327
 5971TIP3   OH239327   0.722   6.285   4.264  0.0903  0.1969 -1.0266
 5971TIP3    H139328   0.756   6.367   4.229  1.7506  0.0370  0.1700
 5971TIP3    H239329   0.744   6.219   4.198  2.2525  0.0726 -0.1964
 5972TIP3   OH239330   6.067   0.810  14.225  0.1286  0.0137 -0.1173
 5972TIP3    H139331   6.134   0.780  14.286 -1.9749 -1.2148  1.6293
 5972TIP3    H239332   6.026   0.730  14.193  0.3902  0.6944 -2.2612
 5973TIP3   OH239333   1.833   5.200   4.721  0.6494  0.0253  0.0208
 5973TIP3    H139334   1.851   5.266   4.653  1.3363  0.4027  0.5534
 5973TIP3    H239335   1.756   5.153   4.690 -0.6609  1.9644  0.2680
 5974TIP3   OH239336   4.021   1.159  12.920 -0.0579  0.1298  0.1251
 5974TIP3    H139337   4.090   1.192  12.863 -0.5032 -0.4223 -0.7612
 5974TIP3    H239338   3.969   1.236  12.943  0.6787  0.5037  0.5725
 5975TIP3   OH239339   3.731   4.871   1.629  0.6368  0.2181 -0.2783
 5975TIP3    H139340   3.783   4.852   1.708 -1.5319 -0.3943  1.0593
 5975TIP3    H239341   3.743   4.965   1.614  2.2857  0.0375 -0.1211
 5976TIP3   OH239342   3.489   3.910  14.559  0.6352 -0.5911 -0.0645
 5976TIP3    H139343   3.502   3.937  14.650  0.0954  0.6635 -0.3380
 5976TIP3    H239344   3.549   3.965  14.509 -0.8445  0.5096 -0.6843
 5977TIP3   OH239345   4.256   6.542   2.938 -0.0330  0.5993 -0.4547
 5977TIP3    H139346   4.308   6.470   2.901  0.5236  1.0942 -0.6508
 5977TIP3    H239347   4.316   6.617   2.938 -0.6430  1.0924 -0.3576
 5978TIP3   OH239348   5.334   2.575  13.564  0.2984  0.5582 -0.3394
 5978TIP3    H139349   5.419   2.535  13.543  1.0179  0.3341  2.8279
 5978TIP3    H239350   5.277   2.548  13.492  1.8478 -2.8137 -0.3969
 5979TIP3   OH239351   4.666   4.392   0.344 -0.6336 -0.2382  0.2467
 5979TIP3    H139352   4.612   4.375   0.267 -2.0615 -1.6891  1.5133
 5979TIP3    H239353   4.751   4.355   0.323 -1.3697 -1.7430 -0.1816
 5980TIP3   OH239354   5.128   5.085  16.116 -0.4510  0.0463 -0.9054
 5980TIP3    H139355   5.062   5.133  16.166  0.2249 -0.8818  0.9181
 5980TIP3    H239356   5.199   5.148  16.104 -0.4242  0.1360 -0.2895
 5981TIP3   OH239357   4.547   3.105  16.150 -0.1210 -0.5390 -0.0521
 5981TIP3    H139358   4.508   3.123  16.065 -1.6304 -0.5173  0.6117
 5981TIP3    H239359   4.565   3.191  16.187  1.0996 -0.5568 -0.5910
 5982TIP3   OH239360   6.168   3.175   6.461  0.1130 -0.7132 -0.4806
 5982TIP3    H139361   6.093   3.198   6.406 -0.1994 -0.6598 -0.0350
 5982TIP3    H239362   6.244   3.203   6.411 -0.1658 -0.8094 -0.9555
 5983TIP3   OH239363   3.759   2.482  12.251  0.2846 -0.6129 -0.1810
 5983TIP3    H139364   3.689   2.548  12.257  2.2930  1.7904 -2.4689
 5983TIP3    H239365   3.794   2.477  12.340  0.1510  1.4568  0.0038
 5984TIP3   OH239366   0.443   3.818  16.739 -0.0331  0.0718 -0.0116
 5984TIP3    H139367   0.394   3.887  16.695 -0.1386  0.1139  0.1689
 5984TIP3    H239368   0.425   3.739  16.687  0.3788  0.2479 -0.4249
 5985TIP3   OH239369   4.117   1.262   4.234 -1.0935 -0.0691 -0.4916
 5985TIP3    H139370   4.164   1.195   4.281 -1.9968 -2.1208 -2.4164
 5985TIP3    H239371   4.135   1.343   4.282  1.1937 -1.4287  1.0008
 5986TIP3   OH239372   1.454   2.709   0.605  0.0963  0.4583 -0.3138
 5986TIP3    H139373   1.464   2.631   0.550  0.6128  1.8795 -2.2945
 5986TIP3    H239374   1.392   2.682   0.672  1.9136 -2.3340  0.3581
 5987TIP3   OH239375   5.332   3.061   0.340 -0.2021 -0.6527  0.3237
 5987TIP3    H139376   5.413   3.045   0.389  0.6991  0.0238 -0.9186
 5987TIP3    H239377   5.274   3.103   0.403  0.8840  0.0518  0.8663
 5988TIP3   OH239378   6.509   0.794   6.272 -0.3759 -1.0287 -0.9932
 5988TIP3    H139379   6.555   0.718   6.307 -3.8493 -2.5829  0.4328
 5988TIP3    H239380   6.462   0.831   6.347 -0.6934  1.1029 -2.1816
 5989TIP3   OH239381   4.748   3.495   4.113  0.1549  0.1878  0.2566
 5989TIP3    H139382   4.798   3.453   4.043 -0.9521 -0.1336 -0.3566
 5989TIP3    H239383   4.661   3.455   4.107  0.0658  0.1188  1.8489
 5990TIP3   OH239384   0.372   2.816   1.604 -0.3662  0.0124 -0.0964
 5990TIP3    H139385   0.445   2.877   1.620 -0.4752  0.2701 -0.5821
 5990TIP3    H239386   0.342   2.792   1.692  0.5524 -0.3918  0.1111
 5991TIP3   OH239387   5.090   3.855   0.371  0.0608  0.0451  0.0770
 5991TIP3    H139388   5.116   3.797   0.299 -0.5589 -1.7657  1.2663
 5991TIP3    H239389   5.149   3.831   0.443 -1.2880 -0.2735  1.0900
 5992TIP3   OH239390   0.770   3.183  14.671 -0.0171 -0.4230 -0.3574
 5992TIP3    H139391   0.762   3.243  14.597  0.6685 -0.8905 -0.8202
 5992TIP3    H239392   0.760   3.238  14.748 -3.2589 -0.2974 -0.8038
 5993TIP3   OH239393   4.020   4.554  15.954 -0.5657  0.0510 -0.1006
 5993TIP3    H139394   3.933   4.541  15.918 -0.7462  1.4866 -0.2352
 5993TIP3    H239395   4.079   4.523  15.885 -0.9596 -0.1682 -0.3414
 5994TIP3   OH239396   6.257   0.788   1.227 -0.0334  0.1554 -0.2323
 5994TIP3    H139397   6.323   0.821   1.289 -1.6969 -0.3720  1.8697
 5994TIP3    H239398   6.207   0.866   1.203  0.4657  0.3189 -0.7791
 5995TIP3   OH239399   3.183   5.801  15.112  0.1067 -0.9556 -0.3400
 5995TIP3    H139400   3.204   5.782  15.020 -0.2173  0.7326 -0.7798
 5995TIP3    H239401   3.117   5.736  15.136 -0.1266 -1.1336 -1.4387
 5996TIP3   OH239402   0.736   5.512   0.749  0.0745  0.6438 -0.0070
 5996TIP3    H139403   0.825   5.500   0.718  0.1844 -1.2699  0.9681
 5996TIP3    H239404   0.741   5.584   0.812  0.7734  1.0654 -0.5460
 5997TIP3   OH239405   3.439   1.052  16.115 -0.0914 -0.0745 -0.0668
 5997TIP3    H139406   3.415   0.973  16.163  0.2553 -0.0789  0.1022
 5997TIP3    H239407   3.530   1.069  16.140  0.5728 -0.8973 -1.8521
 5998TIP3   OH239408   3.555   3.363  16.926  0.2948  0.3828 -0.0136
 5998TIP3    H139409   3.518   3.452  16.924 -0.8249 -0.0841 -0.4907
 5998TIP3    H239410   3.490   3.312  16.974  1.7680  0.1792  1.7809
 5999TIP3   OH239411   2.050   6.157  16.418 -0.1486 -0.0620 -1.1225
 5999TIP3    H139412   2.035   6.193  16.505  0.8415 -0.3253 -0.8362
 5999TIP3    H239413   1.975   6.101  16.401  0.1391 -0.7942 -0.0191
 6000TIP3   OH239414   6.212   6.091   3.850 -0.2621 -0.0089 -0.0335
 6000TIP3    H139415   6.270   6.025   3.887  1.1270  0.3158 -1.5491
 6000TIP3    H239416   6.165   6.127   3.925  2.4129  0.5808  1.4341
 6001TIP3   OH239417   3.933   5.305   4.717  0.1115 -0.1802 -0.0754
 6001TIP3    H139418   3.902   5.246   4.648 -1.4631 -0.7766  1.1140
 6001TIP3    H239419   4.026   5.285   4.724 -0.1806 -1.7679 -0.4310
 6002TIP3   OH239420   1.063   3.893  12.348 -0.2163  1.0984  0.1485
 6002TIP3    H139421   1.064   3.976  12.396 -0.7000  0.1683  1.8072
 6002TIP3    H239422   1.054   3.826  12.416 -0.4866 -0.2810 -1.2187
 6003TIP3   OH239423   1.854   5.662  12.509  0.0364  0.4733 -0.2496
 6003TIP3    H139424   1.823   5.631  12.594 -0.7913  0.5629 -0.5182
 6003TIP3    H239425   1.938   5.617  12.497  1.6245  2.6959  1.9431
 6004TIP3   OH239426   3.350   1.449  13.484  0.3499 -0.0800  0.1028
 6004TIP3    H139427   3.365   1.446  13.390  1.4835 -2.6691  0.3166
 6004TIP3    H239428   3.256   1.462  13.494  0.4221  1.7714 -1.3500
 6005TIP3   OH239429   4.682   5.960  13.058  0.0275  0.3691 -0.1352
 6005TIP3    H139430   4.639   6.045  13.066  0.8135  0.6601  1.1648
 6005TIP3    H239431   4.696   5.949  12.964  0.7440  2.1218 -0.2593
 6006TIP3   OH239432   0.383   0.674  14.451  0.0393 -0.0742 -0.0142
 6006TIP3    H139433   0.327   0.619  14.505 -0.0973 -1.1267 -1.2033
 6006TIP3    H239434   0.333   0.754  14.438 -1.2159 -1.0119 -1.0870
 6007TIP3   OH239435   2.261   0.805  13.963  0.3761 -0.1711  0.0099
 6007TIP3    H139436   2.245   0.714  13.936 -1.2582  0.6366 -1.8843
 6007TIP3    H239437   2.174   0.837  13.988  0.9772  0.8223  0.8220
 6008TIP3   OH239438   4.401   3.126  16.384  0.4778  0.0565 -0.1073
 6008TIP3    H139439   4.399   3.222  16.382 -0.3037  0.0279 -1.0422
 6008TIP3    H239440   4.453   3.101  16.307  0.7410 -0.2765  0.1732
 6009TIP3   OH239441   0.541   6.740  13.312 -0.2694  0.4435 -0.1237
 6009TIP3    H139442   0.580   6.804  13.253  0.5732 -0.3117 -0.3865
 6009TIP3    H239443   0.447   6.757  13.307 -0.0934  1.3001 -0.6093
 6010TIP3   OH239444   2.150   0.752   6.631  0.2923  0.5798  0.0723
 6010TIP3    H139445   2.129   0.843   6.613  0.4635  0.7564  0.7641
 6010TIP3    H239446   2.219   0.756   6.697  0.2533 -0.0519  0.1517
 6011TIP3   OH239447   5.760   3.431  16.227  0.3660 -0.2389  0.5214
 6011TIP3    H139448   5.687   3.396  16.175  1.3889  0.5115 -1.4489
 6011TIP3    H239449   5.720   3.502  16.278 -0.0205  1.1882 -1.6864
 6012TIP3   OH239450   2.446   4.078   6.063 -0.7245 -0.4173  0.0645
 6012TIP3    H139451   2.425   3.985   6.055  0.5082 -0.6696 -0.4596
 6012TIP3    H239452   2.384   4.111   6.127  0.6037 -2.1996  2.3515
 6013TIP3   OH239453   4.795   2.745  16.005  0.2878  0.1035  0.0815
 6013TIP3    H139454   4.812   2.725  15.913  0.5824  2.1487 -0.3262
 6013TIP3    H239455   4.829   2.834  16.017 -1.1494  0.4455  1.7644
 6014TIP3   OH239456   3.522   1.419  13.681 -0.8205  0.6841 -0.3802
 6014TIP3    H139457   3.491   1.426  13.591 -3.5083 -2.3032  0.2085
 6014TIP3    H239458   3.579   1.342  13.681  1.0276  2.0204  0.0355
 6015TIP3   OH239459   4.834   0.400   2.217  0.1733  0.7901  0.8059
 6015TIP3    H139460   4.864   0.462   2.150  1.6992  0.2354  0.9450
 6015TIP3    H239461   4.768   0.347   2.172  1.1321  0.4676 -0.2563
 6016TIP3   OH239462   0.204   1.351   2.403  0.4387 -0.1102 -0.3147
 6016TIP3    H139463   0.293   1.388   2.406  0.3193  0.1308  0.3665
 6016TIP3    H239464   0.217   1.260   2.376  0.9763 -0.3130  0.5950
 6017TIP3   OH239465   5.781   3.821   4.302 -0.6167 -0.6440 -0.5071
 6017TIP3    H139466   5.796   3.728   4.322 -0.5622 -0.5510 -0.1170
 6017TIP3    H239467   5.856   3.846   4.248  0.9630 -0.0314  1.9025
 6018TIP3   OH239468   5.728   4.633  11.340  0.0482  0.1511 -0.3133
 6018TIP3    H139469   5.739   4.690  11.264 -1.5153 -0.2020 -0.8133
 6018TIP3    H239470   5.792   4.563  11.326  1.2063  1.1768 -0.2491
 6019TIP3   OH239471   4.532   5.186   2.944 -0.5510 -0.1628 -0.1971
 6019TIP3    H139472   4.475   5.109   2.950  0.8554 -1.2130 -0.0869
 6019TIP3    H239473   4.550   5.194   2.850  0.4680 -0.8569 -0.0742
 6020TIP3   OH239474   2.470   2.044   4.566  0.5821 -0.0164 -0.7705
 6020TIP3    H139475   2.553   2.052   4.614  0.4879  1.6323 -0.8462
 6020TIP3    H239476   2.404   2.036   4.634  0.3395  3.3188 -0.5089
 6021TIP3   OH239477   6.589   6.770  13.780  0.0597 -0.4772  0.0727
 6021TIP3    H139478   6.535   6.775  13.701  0.2227  0.9847  0.0497
 6021TIP3    H239479   6.655   6.703  13.760 -0.0365 -0.2701 -0.9341
 6022TIP3   OH239480   0.541   6.354  11.488  0.5435  0.4085  0.2801
 6022TIP3    H139481   0.526   6.287  11.555 -3.2212 -1.2001 -1.9965
 6022TIP3    H239482   0.548   6.305  11.406  0.3764  2.6295 -1.1172
 6023TIP3   OH239483   2.967   1.687  13.307  0.4770  0.2512 -0.2816
 6023TIP3    H139484   2.898   1.740  13.346 -0.1968 -0.0980 -1.0044
 6023TIP3    H239485   3.047   1.717  13.351 -0.2128  0.1455  1.0831
 6024TIP3   OH239486   0.217   2.828  16.330 -0.5763  0.0407 -0.1062
 6024TIP3    H139487   0.230   2.734  16.343  1.8267  0.2272 -0.8528
 6024TIP3    H239488   0.256   2.868  16.407 -1.7275  0.4206  0.2775
 6025TIP3   OH239489   4.316   6.246  14.267  0.1292  0.3062  0.0760
 6025TIP3    H139490   4.273   6.257  14.182  0.3355  0.9845  0.0592
 6025TIP3    H239491   4.246   6.215  14.325 -0.0186 -0.1333 -0.3337
 6026TIP3   OH239492   3.823   0.536   3.619  0.2349  0.2701 -0.0075
 6026TIP3    H139493   3.853   0.604   3.559 -1.1174  1.2102  0.3482
 6026TIP3    H239494   3.898   0.520   3.677  1.8117 -1.1779 -2.3587
 6027TIP3   OH239495   4.315   3.274   0.792 -0.4555 -0.1517 -1.0779
 6027TIP3    H139496   4.327   3.181   0.814  1.3538  0.0471 -1.1388
 6027TIP3    H239497   4.404   3.309   0.786 -1.0443  1.0280 -3.4951
 6028TIP3   OH239498   5.007   6.719   1.858  0.2486  0.2872  1.0225
 6028TIP3    H139499   4.966   6.647   1.811  0.6991  1.0615 -0.5824
 6028TIP3    H239500   4.956   6.796   1.835  0.6819  0.7363  1.5281
 6029TIP3   OH239501   0.293   3.297   1.716 -0.5472  0.4209  0.1124
 6029TIP3    H139502   0.269   3.329   1.802  1.1776  0.2462  0.6719
 6029TIP3    H239503   0.388   3.306   1.712 -0.5883  0.3239 -1.7231
 6030TIP3   OH239504   3.556   6.245  11.480 -0.0087  0.4469 -0.1683
 6030TIP3    H139505   3.538   6.172  11.420  0.0765 -1.2079  1.7654
 6030TIP3    H239506   3.478   6.251  11.535  0.3906  1.1805  0.3290
 6031TIP3   OH239507   4.925   0.213  12.472  0.0858  0.5292 -0.0376
 6031TIP3    H139508   4.958   0.284  12.528  0.2347  0.7808 -0.4475
 6031TIP3    H239509   4.921   0.138  12.530  0.8399  0.6402  0.1602
 6032TIP3   OH239510   4.995   1.572   6.297 -0.1123 -0.2883 -0.1418
 6032TIP3    H139511   4.992   1.656   6.251  0.5270 -0.9281 -1.3532
 6032TIP3    H239512   5.080   1.572   6.340  0.6195 -1.0639 -1.5720
 6033TIP3   OH239513   2.271   5.166   4.423  0.1157 -0.2249 -0.1834
 6033TIP3    H139514   2.223   5.110   4.361 -1.7662  1.8271 -0.6527
 6033TIP3    H239515   2.286   5.109   4.499  1.0770 -2.3088 -1.8709
 6034TIP3   OH239516   5.335   3.748  14.954 -0.4846 -0.1207 -0.1544
 6034TIP3    H139517   5.284   3.720  15.030 -0.6009 -1.3490 -0.6667
 6034TIP3    H239518   5.302   3.835  14.933  0.4863  0.8232  2.0199
 6035TIP3   OH239519   1.918   4.130   1.000 -0.2847 -0.1089 -0.4353
 6035TIP3    H139520   1.996   4.182   0.980  1.1078 -1.5363  1.1369
 6035TIP3    H239521   1.920   4.059   0.936  0.9618 -1.4059  1.0220
 6036TIP3   OH239522   1.233   3.231   4.526 -0.6245 -0.1839  0.7428
 6036TIP3    H139523   1.206   3.322   4.517 -2.5043 -0.6380  1.5782
 6036TIP3    H239524   1.278   3.227   4.611 -0.3708  0.0045  0.6167
 6037TIP3   OH239525   5.075   3.405  16.396 -0.0967  0.0779 -0.9222
 6037TIP3    H139526   5.108   3.318  16.421 -0.2660  0.4128  0.4943
 6037TIP3    H239527   5.014   3.429  16.466 -0.8229  0.9160 -1.8149
 6038TIP3   OH239528   0.272   0.930   0.015 -0.2449  0.8298  0.0345
 6038TIP3    H139529   0.229   1.005  -0.027 -0.1079  1.4500  0.9914
 6038TIP3    H239530   0.349   0.913  -0.040  0.8975  2.7525  0.9992
 6039TIP3   OH239531   4.046   0.021  13.598  0.1685 -0.6101  0.7313
 6039TIP3    H139532   4.042   0.053  13.508  0.6950 -0.1148  0.8807
 6039TIP3    H239533   4.127   0.058  13.633 -0.1600 -0.6036  1.4890
 6040TIP3   OH239534   2.404   2.298   1.554  0.6662  0.1433 -0.1884
 6040TIP3    H139535   2.436   2.231   1.493  2.1924  0.2675  0.4567
 6040TIP3    H239536   2.360   2.248   1.623  0.0213 -0.0630 -0.7331
 6041TIP3   OH239537   6.120   3.756  15.032  0.2625 -0.1347  0.0779
 6041TIP3    H139538   6.052   3.775  14.968  0.5081  0.0658 -0.1255
 6041TIP3    H239539   6.102   3.815  15.105  0.4375  0.1798 -0.1329
 6042TIP3   OH239540   5.356   3.428  16.786  0.3247  0.0801  0.5721
 6042TIP3    H139541   5.289   3.381  16.736  1.9466 -0.5708 -1.0512
 6042TIP3    H239542   5.419   3.360  16.810  0.8293  0.8322  1.3766
 6043TIP3   OH239543   1.167   2.240   6.341  0.7387 -0.2982 -0.6852
 6043TIP3    H139544   1.078   2.273   6.326  0.7800  0.0086 -0.2496
 6043TIP3    H239545   1.160   2.187   6.420  1.5887  2.3647  1.2659
 6044TIP3   OH239546   0.381   5.603  13.266 -0.3486  0.0553 -0.0073
 6044TIP3    H139547   0.398   5.549  13.343  0.1695 -0.2607 -0.3429
 6044TIP3    H239548   0.468   5.631  13.236 -0.4451 -0.9333 -1.2729
 6045TIP3   OH239549   0.503   6.064   3.638  0.1088  0.2472  0.0705
 6045TIP3    H139550   0.491   5.995   3.573  2.0643  0.6876 -0.7925
 6045TIP3    H239551   0.579   6.037   3.689  0.1996  1.2060  0.4578
 6046TIP3   OH239552   4.430   4.669   3.894  0.0875  0.3101  0.2738
 6046TIP3    H139553   4.453   4.664   3.986  0.3806  3.0953  0.3854
 6046TIP3    H239554   4.345   4.714   3.892  0.8868  1.7981 -0.9019
 6047TIP3   OH239555   1.387   5.095   5.398  0.2430  0.3494 -0.5476
 6047TIP3    H139556   1.310   5.126   5.446 -0.9492 -2.3105 -0.6312
 6047TIP3    H239557   1.448   5.066   5.466 -0.4768 -1.2150 -0.5465
 6048TIP3   OH239558   6.233   2.000   1.194  0.3111  0.3270 -0.2118
 6048TIP3    H139559   6.245   1.953   1.111  1.3717  0.0063  0.1118
 6048TIP3    H239560   6.281   2.082   1.182 -0.0133  0.5299 -0.1192
 6049TIP3   OH239561   5.784   2.848   0.466  0.4616 -0.2647  0.0755
 6049TIP3    H139562   5.722   2.910   0.505 -1.5851 -0.9878 -1.9235
 6049TIP3    H239563   5.869   2.892   0.471 -0.5696  1.6756  0.8320
 6050TIP3   OH239564   4.557   0.559  15.210  0.0798 -0.0821 -0.7849
 6050TIP3    H139565   4.558   0.544  15.305  1.7199  0.6522 -0.6613
 6050TIP3    H239566   4.471   0.598  15.193 -1.0909 -2.2332  0.0585
 6051TIP3   OH239567   6.306   5.392  13.992 -0.0869  0.4371  0.2503
 6051TIP3    H139568   6.328   5.358  14.079  1.5427 -1.7636 -0.9579
 6051TIP3    H239569   6.391   5.411  13.952 -0.8122  1.0090 -1.0300
 6052TIP3   OH239570   3.317   0.311  12.393  0.0480  0.6905 -0.4589
 6052TIP3    H139571   3.283   0.237  12.443 -0.2397  0.1583 -1.4307
 6052TIP3    H239572   3.274   0.304  12.308  0.5382  1.5884 -0.7849
 6053TIP3   OH239573   3.173   5.264   2.599 -0.4458 -0.3127  0.1124
 6053TIP3    H139574   3.102   5.318   2.634 -0.3381  0.2837 -0.5722
 6053TIP3    H239575   3.208   5.218   2.676  0.2424  1.5237  0.9355
 6054TIP3   OH239576   2.583   0.529  11.290 -0.4770 -0.0200  0.0386
 6054TIP3    H139577   2.515   0.575  11.242  0.6709  1.5489 -0.1296
 6054TIP3    H239578   2.571   0.557  11.381 -1.2597 -1.2473  0.3152
 6055TIP3   OH239579   4.119   5.837   1.274  0.4946  0.0340 -0.0332
 6055TIP3    H139580   4.083   5.785   1.346 -1.1077 -1.8877 -2.1240
 6055TIP3    H239581   4.052   5.831   1.206  2.1886  1.4047 -1.8495
 6056TIP3   OH239582   6.594   6.264  15.656 -0.5077 -0.6235 -0.6192
 6056TIP3    H139583   6.534   6.332  15.624 -0.8795 -0.4546  0.4201
 6056TIP3    H239584   6.559   6.239  15.742 -0.2721 -2.0019 -0.9017
 6057TIP3   OH239585   5.096   2.408   3.260  0.3030 -0.2569 -0.0094
 6057TIP3    H139586   5.116   2.447   3.175  0.4709  0.5588  0.3980
 6057TIP3    H239587   5.026   2.345   3.242  0.5126 -0.2671 -0.7881
 6058TIP3   OH239588   6.447   1.410   0.360  0.4096 -0.2328 -0.1120
 6058TIP3    H139589   6.477   1.500   0.348 -0.4149  0.3166  1.6840
 6058TIP3    H239590   6.358   1.409   0.325 -0.0597  0.0084  1.0428
 6059TIP3   OH239591   4.251   2.365   5.915  0.3104 -0.1280 -0.7253
 6059TIP3    H139592   4.308   2.299   5.876  1.1120 -0.2683  0.6413
 6059TIP3    H239593   4.309   2.438   5.936  0.3176 -0.8417  2.0232
 6060TIP3   OH239594   2.810   0.967  10.488  0.4140 -0.5283 -0.4498
 6060TIP3    H139595   2.875   0.936  10.550 -0.6393  0.1618  1.0216
 6060TIP3    H239596   2.787   0.889  10.437  1.7676 -0.9533 -0.4256
 6061TIP3   OH239597   0.823   1.724  15.166  0.5563 -0.7837  0.9178
 6061TIP3    H139598   0.852   1.807  15.204  0.7751 -1.0989  1.4424
 6061TIP3    H239599   0.793   1.672  15.241 -0.9926 -0.6108  0.4271
 6062TIP3   OH239600   4.074   0.433   2.896  0.0187  0.2922  0.2006
 6062TIP3    H139601   3.995   0.487   2.900  1.2183  2.2624 -1.3746
 6062TIP3    H239602   4.145   0.496   2.887  1.5779 -1.5238 -0.5768
 6063TIP3   OH239603   2.049   0.220   4.887 -0.0493 -0.4691  0.4467
 6063TIP3    H139604   2.034   0.134   4.849  0.4137 -0.5137  0.3624
 6063TIP3    H239605   2.119   0.258   4.834 -0.2413 -0.0476  0.4913
 6064TIP3   OH239606   0.869   6.706   0.730 -0.6659  0.0515  0.0743
 6064TIP3    H139607   0.908   6.640   0.788 -0.8343  0.6699  0.8997
 6064TIP3    H239608   0.819   6.763   0.789  0.0004  1.2983 -0.5554
 6065TIP3   OH239609   0.782   1.521   3.118  0.4612  0.3006  0.2749
 6065TIP3    H139610   0.691   1.506   3.094  0.5483  0.4196 -0.1299
 6065TIP3    H239611   0.816   1.434   3.139  0.2123  0.2761  0.5769
 6066TIP3   OH239612   6.681   1.537  16.584 -0.3433  0.1691  0.2456
 6066TIP3    H139613   6.601   1.544  16.637 -0.8644 -0.8653 -0.3972
 6066TIP3    H239614   6.730   1.465  16.624 -0.5055 -0.2821 -0.3615
 6067TIP3   OH239615   0.480   5.732   0.829 -0.1040 -0.6024  0.0405
 6067TIP3    H139616   0.412   5.761   0.768  0.0594  0.4214  0.3384
 6067TIP3    H239617   0.435   5.726   0.913 -0.4855 -2.6300 -0.2673
 6068TIP3   OH239618   0.712   3.089  16.054 -0.5916 -0.1623  0.1926
 6068TIP3    H139619   0.741   3.016  15.999  0.2458  0.7458 -0.5836
 6068TIP3    H239620   0.698   3.050  16.140  1.9787 -0.8203  0.3500
 6069TIP3   OH239621   1.371   4.543   2.603  0.8778 -0.5018 -0.0934
 6069TIP3    H139622   1.364   4.456   2.566 -0.9534 -0.1626 -0.5710
 6069TIP3    H239623   1.305   4.595   2.558  0.3273  0.5517  1.8347
 6070TIP3   OH239624   1.220   4.337  15.054 -0.4365 -0.1386  0.1269
 6070TIP3    H139625   1.177   4.331  14.969  0.3781 -0.3318 -0.2802
 6070TIP3    H239626   1.259   4.424  15.055 -1.4029  0.2902  0.7691
 6071TIP3   OH239627   0.174   0.161   4.988 -0.2335 -0.3593 -0.0138
 6071TIP3    H139628   0.146   0.107   5.061 -0.6045  1.3132  1.1168
 6071TIP3    H239629   0.267   0.176   5.004 -0.4756  0.6132  0.5353
 6072TIP3   OH239630   1.370   1.102   4.139  0.0126  0.1389  0.1654
 6072TIP3    H139631   1.387   1.191   4.169 -1.8120  0.0437  1.6251
 6072TIP3    H239632   1.329   1.113   4.053 -0.3807  0.7154  0.4248
 6073TIP3   OH239633   1.053   0.698  14.330 -0.0400 -0.1317  0.7535
 6073TIP3    H139634   0.965   0.728  14.310  0.3400 -2.2118 -5.1198
 6073TIP3    H239635   1.111   0.759  14.284  1.4451 -0.7683  1.7062
 6074TIP3   OH239636   3.428   5.372  15.601 -0.1087  0.1566  0.4589
 6074TIP3    H139637   3.488   5.446  15.597  0.5613 -0.3595  0.9976
 6074TIP3    H239638   3.342   5.410  15.579  0.4483  0.8311 -0.6206
 6075TIP3   OH239639   1.064   6.239  15.538 -0.3157  0.4306  0.1050
 6075TIP3    H139640   1.053   6.157  15.586  0.7434  1.1849  1.6602
 6075TIP3    H239641   1.021   6.305  15.592 -0.0840  1.1119 -0.5307
 6076TIP3   OH239642   2.191   0.829  11.021  0.8244 -0.1450 -0.3562
 6076TIP3    H139643   2.186   0.917  10.985  1.5186 -0.4314 -1.1943
 6076TIP3    H239644   2.166   0.772  10.948 -1.7666 -0.5438  0.8016
 6077TIP3   OH239645   4.211   6.729  17.218 -0.2691 -0.6768 -0.1919
 6077TIP3    H139646   4.127   6.754  17.258 -0.7296  0.0415 -1.6024
 6077TIP3    H239647   4.276   6.751  17.285 -1.3081 -2.8792  1.6473
 6078TIP3   OH239648   3.437   3.114  11.271 -0.3331  0.6290 -0.2416
 6078TIP3    H139649   3.462   3.115  11.364  0.1296  0.0885 -0.3541
 6078TIP3    H239650   3.459   3.201  11.239 -0.7907  0.9230  0.2352
 6079TIP3   OH239651   6.540   4.300  13.785  0.3579  0.0533 -0.2659
 6079TIP3    H139652   6.564   4.371  13.846 -0.7849  0.1239  0.0996
 6079TIP3    H239653   6.593   4.226  13.814  0.8162  0.4701 -0.0228
 6080TIP3   OH239654   1.512   0.536  11.407 -0.2070  0.4682 -0.3931
 6080TIP3    H139655   1.598   0.574  11.419  0.1986 -0.4435 -0.3616
 6080TIP3    H239656   1.451   0.603  11.437  0.5325  0.7425  0.4994
 6081TIP3   OH239657   1.520   5.282  15.673 -0.4593 -0.5657 -0.2823
 6081TIP3    H139658   1.463   5.269  15.597 -0.1090 -1.9070 -0.3170
 6081TIP3    H239659   1.541   5.376  15.671 -1.6104 -0.3079 -1.0060
 6082TIP3   OH239660   2.406   4.380   3.945 -0.0779  0.5501  0.1523
 6082TIP3    H139661   2.474   4.418   3.890  0.0681 -0.9724 -0.7330
 6082TIP3    H239662   2.412   4.286   3.930 -1.5248  0.2934  1.0578
 6083TIP3   OH239663   0.518   0.375   3.377  0.6594 -0.2252  0.6500
 6083TIP3    H139664   0.491   0.439   3.443 -0.3216 -0.7968  0.8137
 6083TIP3    H239665   0.527   0.427   3.296 -0.8497  0.0127  0.6136
 6084TIP3   OH239666   0.565   2.113   4.895  0.2045  0.0301  0.2134
 6084TIP3    H139667   0.602   2.186   4.846  1.9907 -0.6287  0.5407
 6084TIP3    H239668   0.618   2.108   4.974 -0.2112 -1.3180  0.4198
 6085TIP3   OH239669   2.268   2.821  16.289  0.3528  0.4029  0.0502
 6085TIP3    H139670   2.346   2.773  16.262  0.3272  0.9965 -1.1249
 6085TIP3    H239671   2.197   2.779  16.240 -0.4147 -1.5365  2.7071
 6086TIP3   OH239672   3.807   2.499  16.538  0.1146 -0.0146 -0.4337
 6086TIP3    H139673   3.851   2.414  16.533 -0.6063 -0.3255 -2.1027
 6086TIP3    H239674   3.727   2.487  16.487 -0.7262  1.2428  0.5569
 6087TIP3   OH239675   6.086   5.298  11.025 -0.2739 -0.9998 -0.2596
 6087TIP3    H139676   6.021   5.252  11.079 -0.1059  1.7250  2.3917
 6087TIP3    H239677   6.037   5.370  10.985  0.5736 -0.4101 -0.2350
 6088TIP3   OH239678   1.588   1.920  16.592  0.1942 -0.6411  0.1039
 6088TIP3    H139679   1.650   1.978  16.636 -1.2876  1.2756 -0.2708
 6088TIP3    H239680   1.582   1.844  16.649  1.7247 -0.1732  0.9197
 6089TIP3   OH239681   1.945   1.242  12.622  0.3637  0.2400  0.2561
 6089TIP3    H139682   1.942   1.336  12.639 -0.7050 -0.0377  1.8026
 6089TIP3    H239683   1.871   1.225  12.563  0.3417  0.3294  0.2583
 6090TIP3   OH239684   5.680   0.526  16.643  0.2724 -0.5730  0.1442
 6090TIP3    H139685   5.732   0.525  16.724  1.0030 -0.9780 -0.3221
 6090TIP3    H239686   5.593   0.497  16.670  0.5796 -0.9519  0.7423
 6091TIP3   OH239687   4.546   5.490  16.459  0.1795 -0.2764  0.3662
 6091TIP3    H139688   4.519   5.578  16.435  0.5165 -0.4047 -0.4687
 6091TIP3    H239689   4.537   5.488  16.555  1.8657  1.2279  0.5785
 6092TIP3   OH239690   3.845   3.484  16.865  0.7030 -0.6493 -0.1898
 6092TIP3    H139691   3.771   3.536  16.834  1.4165  0.2689 -0.3479
 6092TIP3    H239692   3.866   3.519  16.951 -1.2122 -3.1408  1.3709
 6093TIP3   OH239693   4.507   0.747   5.930 -0.2489 -0.1530 -0.0116
 6093TIP3    H139694   4.496   0.654   5.911 -0.9875  0.0932 -0.8606
 6093TIP3    H239695   4.571   0.750   6.000 -1.7482 -1.4144  1.4575
 6094TIP3   OH239696   0.005   2.672   2.806 -0.0333 -0.4288  0.2529
 6094TIP3    H139697  -0.035   2.621   2.876 -0.7570  1.2756  1.1127
 6094TIP3    H239698  -0.064   2.731   2.777  1.2559  1.2197  0.4453
 6095TIP3   OH239699   1.164   0.941   3.058  0.3154  0.5887  0.3769
 6095TIP3    H139700   1.239   0.964   3.004  0.8182 -0.7275  0.4826
 6095TIP3    H239701   1.175   0.992   3.139  0.7886  0.8309  0.1597
 6096TIP3   OH239702   2.005   2.275   1.918  0.2346  0.0979 -0.1306
 6096TIP3    H139703   1.973   2.351   1.869  0.3209  1.3339  1.6607
 6096TIP3    H239704   1.928   2.244   1.967 -0.2961 -2.2046 -2.3152
 6097TIP3   OH239705   1.219   2.007   6.081 -0.4116  0.3582  0.3087
 6097TIP3    H139706   1.299   2.015   6.028  0.1949 -0.1292  1.1351
 6097TIP3    H239707   1.191   2.097   6.097 -0.4394  0.5161 -0.5935
 6098TIP3   OH239708   3.395   2.826   4.132  0.6161  0.3014  0.3668
 6098TIP3    H139709   3.334   2.803   4.202  1.3020 -0.0375  0.8654
 6098TIP3    H239710   3.431   2.743   4.102 -0.4722  0.3661 -1.1392
 6099TIP3   OH239711   5.059   1.250   2.624  0.2342  0.2296  0.3637
 6099TIP3    H139712   5.045   1.315   2.555  0.1145  0.4774  0.6224
 6099TIP3    H239713   5.123   1.189   2.586  1.3727  1.2428  0.6065
 6100TIP3   OH239714   6.263   2.040  16.353  0.4054 -0.2112  0.5793
 6100TIP3    H139715   6.207   2.096  16.298  0.5016  0.5504  1.2587
 6100TIP3    H239716   6.223   1.953  16.346 -0.1383  0.0750  0.0573
 6101TIP3   OH239717   0.734   5.998   1.771  0.0881  0.2680 -0.2763
 6101TIP3    H139718   0.817   6.045   1.771 -0.5913  1.5149  1.0585
 6101TIP3    H239719   0.697   6.015   1.684  1.2301 -0.3000 -0.8754
 6102TIP3   OH239720   3.451   4.466  12.834  0.1302  0.2537  0.4682
 6102TIP3    H139721   3.383   4.402  12.856 -1.8641  2.8560  2.1688
 6102TIP3    H239722   3.406   4.533  12.783  2.3645 -0.0424 -1.9943
 6103TIP3   OH239723   6.664   4.119   0.572 -0.6504  0.6519 -0.2831
 6103TIP3    H139724   6.725   4.123   0.645  0.0696  1.7080 -0.9160
 6103TIP3    H239725   6.676   4.203   0.527 -0.1703 -0.4867 -2.3370
 6104TIP3   OH239726   5.564   4.835   4.500 -0.4760 -0.1217  0.0013
 6104TIP3    H139727   5.561   4.804   4.409  0.3511  0.7761 -0.3508
 6104TIP3    H239728   5.605   4.921   4.494 -1.0540  0.2480  1.1581
 6105TIP3   OH239729   0.017   4.569   5.046  0.0743 -0.3942 -0.5603
 6105TIP3    H139730  -0.039   4.644   5.024  1.5172  0.4146 -1.5546
 6105TIP3    H239731   0.057   4.544   4.962  0.3820 -1.6447 -0.0476
 6106TIP3   OH239732   5.654   2.290   4.934 -0.1238 -0.1809  0.8445
 6106TIP3    H139733   5.647   2.202   4.970 -1.4233  0.1226  1.3689
 6106TIP3    H239734   5.566   2.310   4.901  0.2328  0.7939  0.4544
 6107TIP3   OH239735   3.953   5.950  11.469 -0.4648 -0.6618 -0.3465
 6107TIP3    H139736   4.029   5.903  11.435 -0.4148 -0.0939 -1.0309
 6107TIP3    H239737   3.934   6.016  11.403 -0.5763  0.2365  0.5693
 6108TIP3   OH239738   0.056   2.220  11.096 -0.0400 -0.7442 -0.3981
 6108TIP3    H139739  -0.014   2.196  11.036 -1.4051  1.4265  0.2807
 6108TIP3    H239740   0.057   2.315  11.095  1.6005 -0.7171  1.1214
 6109TIP3   OH239741   6.160   4.264  15.875 -0.0186 -0.0749  0.1553
 6109TIP3    H139742   6.217   4.278  15.951 -0.9380 -0.5278  0.9265
 6109TIP3    H239743   6.190   4.329  15.811  0.9356  0.1296  0.8017
 6110TIP3   OH239744   4.330   5.940   4.401 -0.7692 -0.1840 -0.0509
 6110TIP3    H139745   4.370   5.857   4.376 -0.1576 -0.3516  1.4177
 6110TIP3    H239746   4.238   5.919   4.416 -1.4450  0.1789 -3.3232
 6111TIP3   OH239747   0.081   0.080  16.646  0.3598  0.0579  0.0046
 6111TIP3    H139748   0.047   0.032  16.570 -0.2796 -0.0504  0.3558
 6111TIP3    H239749   0.173   0.095  16.625 -0.1344  1.2423 -1.3945
 6112TIP3   OH239750   6.446   1.785  12.696 -0.2971  0.4341 -0.3642
 6112TIP3    H139751   6.403   1.768  12.612  0.2347 -1.0333 -0.3535
 6112TIP3    H239752   6.394   1.735  12.760  0.9828 -0.7860 -0.2563
 6113TIP3   OH239753   0.483   0.683   3.439  0.1536 -0.1844 -0.3817
 6113TIP3    H139754   0.517   0.762   3.395  0.6510 -1.3669 -2.1849
 6113TIP3    H239755   0.557   0.653   3.492 -0.2656  0.9399  0.8685
 6114TIP3   OH239756   0.498   1.367  15.003  0.5811 -0.0478  0.1894
 6114TIP3    H139757   0.544   1.442  15.041  0.0094  0.1274  0.5565
 6114TIP3    H239758   0.457   1.402  14.924 -0.6632  0.3347  0.9882
 6115TIP3   OH239759   5.262   5.984   4.589 -0.0694 -0.3043  0.1090
 6115TIP3    H139760   5.214   5.918   4.640  0.7191 -0.6236  0.4540
 6115TIP3    H239761   5.352   5.952   4.588  0.8331  2.0295  2.3705
 6116TIP3   OH239762   6.573   3.753  15.828  0.5478  0.3379 -0.0057
 6116TIP3    H139763   6.500   3.720  15.881  1.1909 -0.2419  0.5385
 6116TIP3    H239764   6.548   3.842  15.805 -0.0250  0.3840  0.7687
 6117TIP3   OH239765   0.692   6.031  14.126 -0.1889 -0.6496  0.0871
 6117TIP3    H139766   0.612   6.057  14.080 -0.7265  1.9120  2.3353
 6117TIP3    H239767   0.660   5.988  14.206  0.7038 -1.4775  0.0020
 6118TIP3   OH239768   2.423   4.568   3.110 -0.3410  0.2413 -0.8901
 6118TIP3    H139769   2.422   4.483   3.153 -1.2563  0.2221 -0.9456
 6118TIP3    H239770   2.360   4.560   3.039 -0.1144  0.8286 -1.1610
 6119TIP3   OH239771   5.702   3.010   0.931 -0.0674  0.2317 -0.7545
 6119TIP3    H139772   5.679   3.055   1.012 -0.0114 -0.5630 -0.2934
 6119TIP3    H239773   5.783   3.052   0.903 -0.2839  0.7581 -0.5938
 6120TIP3   OH239774   4.508   3.702   0.280 -0.5542 -0.4794 -0.0533
 6120TIP3    H139775   4.421   3.739   0.296 -0.0054  0.2202  1.3720
 6120TIP3    H239776   4.563   3.778   0.263  0.0307 -0.8419  0.2151
 6121TIP3   OH239777   3.590   4.745   0.544  0.1909  0.4470 -1.0272
 6121TIP3    H139778   3.537   4.717   0.469 -1.1715 -0.2852  0.1733
 6121TIP3    H239779   3.627   4.664   0.578 -0.3354  0.5879 -0.0872
 6122TIP3   OH239780   2.368   4.944  15.164  0.0859  0.0859  0.7357
 6122TIP3    H139781   2.332   4.873  15.216  2.0619 -0.5700  1.2504
 6122TIP3    H239782   2.439   4.904  15.113  1.0798  1.6218  0.8627
 6123TIP3   OH239783   5.147   6.128   4.981 -0.2541  1.0906  0.2852
 6123TIP3    H139784   5.105   6.164   4.903  0.1415 -0.2256 -0.5564
 6123TIP3    H239785   5.130   6.193   5.050 -0.0139  2.6093 -1.0510
 6124TIP3   OH239786   4.263   1.103   4.397 -0.7179  0.1991 -0.0457
 6124TIP3    H139787   4.274   1.143   4.483  1.8137  2.6294 -1.4381
 6124TIP3    H239788   4.336   1.043   4.388 -0.6448  0.3838 -0.7234
 6125TIP3   OH239789   6.450   5.001  16.291  0.5384  0.4581 -0.0300
 6125TIP3    H139790   6.503   4.930  16.326  1.0091  0.4136 -0.8206
 6125TIP3    H239791   6.395   5.029  16.364  1.9344  0.7766  0.9185
 6126TIP3   OH239792   5.960   2.058  16.636 -0.2485  0.2035  0.2470
 6126TIP3    H139793   5.907   2.104  16.571 -0.4983 -0.1434  0.2000
 6126TIP3    H239794   5.899   1.996  16.677 -0.2126  0.7237  1.1180
 6127TIP3   OH239795   5.291   4.497   5.090 -0.7511 -0.5561  0.0464
 6127TIP3    H139796   5.374   4.536   5.064  0.6223 -1.8598  2.2795
 6127TIP3    H239797   5.229   4.569   5.090  0.7128  0.7235 -0.2658
 6128TIP3   OH239798   5.255   2.320   0.212 -0.3293 -0.4362 -0.0904
 6128TIP3    H139799   5.304   2.303   0.293 -0.5987 -0.3278  0.0948
 6128TIP3    H239800   5.174   2.361   0.241 -0.1876  0.1118 -0.4547
 6129TIP3   OH239801   3.328   4.359   2.023 -0.2025 -0.9488  0.1161
 6129TIP3    H139802   3.310   4.446   1.990 -2.5241 -2.2534 -2.2393
 6129TIP3    H239803   3.399   4.326   1.967  1.9389  0.0089  2.1526
 6130TIP3   OH239804   2.731   4.513   1.228 -0.1065 -0.0776 -0.3105
 6130TIP3    H139805   2.767   4.599   1.209 -2.5725  1.0767  0.1266
 6130TIP3    H239806   2.791   4.452   1.186  1.1643  1.8958 -1.3916
 6131TIP3   OH239807   2.401   5.089   4.981 -0.4414  0.6811 -0.0897
 6131TIP3    H139808   2.427   5.159   4.921  0.2471  0.4510 -0.0707
 6131TIP3    H239809   2.397   5.010   4.927  1.6987  0.1747  0.4298
 6132TIP3   OH239810   0.793   0.865  12.172 -0.1373 -0.0275  0.6570
 6132TIP3    H139811   0.710   0.821  12.150 -0.3847 -0.3239  2.1463
 6132TIP3    H239812   0.838   0.803  12.229  0.7944  0.4527  0.4386
 6133TIP3   OH239813   3.101   6.140  13.162  0.0460  0.0694  0.2324
 6133TIP3    H139814   3.167   6.083  13.122  1.0154  0.7634  0.8160
 6133TIP3    H239815   3.151   6.212  13.200 -0.9823  0.1579  1.4542
 6134TIP3   OH239816   2.310   1.035   5.120  0.1415  0.6444 -0.6044
 6134TIP3    H139817   2.332   1.085   5.199  1.0462 -0.3840 -0.1817
 6134TIP3    H239818   2.359   1.078   5.050 -1.3201  2.0713 -0.7776
 6135TIP3   OH239819   2.506   1.250   5.604  0.6387 -0.1437 -0.8462
 6135TIP3    H139820   2.488   1.172   5.657 -1.6492  0.8096 -0.1367
 6135TIP3    H239821   2.555   1.307   5.663 -1.4685  0.7096  0.1423
 6136TIP3   OH239822   3.095   3.905   5.781  0.4784  0.1150 -0.5822
 6136TIP3    H139823   3.098   3.809   5.790  1.2657  0.1975  0.1104
 6136TIP3    H239824   3.060   3.936   5.864  0.2535  0.4334 -0.7963
 6137TIP3   OH239825   3.462   5.805  10.419  0.2657  0.3028  0.2606
 6137TIP3    H139826   3.520   5.877  10.392 -1.8926  1.5078 -1.2923
 6137TIP3    H239827   3.449   5.754  10.340 -0.0691 -0.4867  0.8230
 6138TIP3   OH239828   6.212   3.649  15.539 -0.0859 -0.3484 -0.0911
 6138TIP3    H139829   6.236   3.557  15.551  2.2003  0.1143 -0.8756
 6138TIP3    H239830   6.240   3.692  15.619 -3.0373 -0.6478  1.1553
 6139TIP3   OH239831   4.026   6.381   3.172 -0.2928 -0.3203  0.4833
 6139TIP3    H139832   3.966   6.367   3.246 -2.7787  0.0524 -1.4101
 6139TIP3    H239833   4.089   6.445   3.205 -1.9783  0.6289  1.9866
 6140TIP3   OH239834   2.204   5.306   4.978  0.0249  0.7986 -0.0517
 6140TIP3    H139835   2.132   5.338   5.034  0.5361 -1.0390  1.7259
 6140TIP3    H239836   2.168   5.229   4.935  0.9990 -0.3247  1.0996
 6141TIP3   OH239837   6.119   2.728   1.336 -0.3316  0.1288 -0.6420
 6141TIP3    H139838   6.064   2.772   1.271  0.4341 -0.3537 -1.6303
 6141TIP3    H239839   6.190   2.689   1.285  0.2754 -0.2672  0.4877
 6142TIP3   OH239840   5.167   2.669  13.756  0.4265 -0.4313  0.0445
 6142TIP3    H139841   5.213   2.645  13.676  1.4094 -3.0485  1.3343
 6142TIP3    H239842   5.225   2.639  13.827 -1.5896 -0.5284  1.7109
 6143TIP3   OH239843   4.827   2.556  14.511  0.0140  0.4855 -0.0387
 6143TIP3    H139844   4.736   2.534  14.490  0.2282 -0.6509  0.1845
 6143TIP3    H239845   4.851   2.622  14.445 -0.2939 -0.7958 -1.4690
 6144TIP3   OH239846   0.971   0.392   4.504  0.3168 -0.2705  0.1855
 6144TIP3    H139847   1.053   0.375   4.550  0.3338 -0.5997  0.0351
 6144TIP3    H239848   0.909   0.416   4.573  0.9568  1.5579  0.1315
 6145TIP3   OH239849   4.393   6.575  12.792 -0.1425 -0.6201 -0.1628
 6145TIP3    H139850   4.390   6.534  12.879 -1.8257 -0.5266 -0.1735
 6145TIP3    H239851   4.302   6.592  12.770  0.5464  4.9803  0.6522
 6146TIP3   OH239852   5.453   2.858  16.059 -0.7454  0.4319 -0.2705
 6146TIP3    H139853   5.416   2.827  15.977  1.2075  1.4905 -1.5683
 6146TIP3    H239854   5.378   2.860  16.119 -1.8536 -1.9919 -1.5051
 6147TIP3   OH239855   1.177   2.647   5.207 -0.6724 -0.4461 -0.2589
 6147TIP3    H139856   1.109   2.713   5.220 -1.0633 -1.2038  1.7206
 6147TIP3    H239857   1.129   2.565   5.195 -0.1531 -0.7046 -0.5648
 6148TIP3   OH239858   5.550   3.158   0.090 -0.1689 -0.3194  0.6971
 6148TIP3    H139859   5.483   3.105   0.135 -0.3403 -1.8694 -1.3030
 6148TIP3    H239860   5.622   3.163   0.153 -0.7205 -1.7524  1.4833
 6149TIP3   OH239861   4.271   4.732  14.010  0.2671  0.3216  0.1301
 6149TIP3    H139862   4.325   4.746  14.087  1.1783  1.4853 -0.7009
 6149TIP3    H239863   4.235   4.818  13.989  0.8458  0.2286 -1.3336
 6150TIP3   OH239864   0.985   5.714  13.398  0.3129  0.2666 -0.2880
 6150TIP3    H139865   1.031   5.672  13.470  0.7132  0.4943 -0.4113
 6150TIP3    H239866   0.896   5.678  13.402 -0.1621  1.5688  1.3808
 6151TIP3   OH239867   2.067   0.495   2.142 -0.4086  0.3726 -0.2716
 6151TIP3    H139868   2.044   0.489   2.049 -1.4273  0.8052 -0.0507
 6151TIP3    H239869   2.110   0.580   2.151  0.7823 -0.1848 -0.5712
 6152TIP3   OH239870   0.538   5.591  15.869  0.5595 -0.2738  0.2473
 6152TIP3    H139871   0.572   5.504  15.886  0.0987 -0.5439 -0.2011
 6152TIP3    H239872   0.570   5.614  15.782 -0.1600 -0.4151 -0.0603
 6153TIP3   OH239873   2.661   2.547  14.525  0.6294  0.0088 -0.2250
 6153TIP3    H139874   2.709   2.596  14.592  3.1220 -1.4594 -0.8444
 6153TIP3    H239875   2.678   2.455  14.546 -0.7438 -0.5217 -1.3302
 6154TIP3   OH239876   5.351   2.470   1.808 -0.3256 -0.3676 -0.2161
 6154TIP3    H139877   5.309   2.433   1.730 -0.4527 -0.8163  0.0622
 6154TIP3    H239878   5.445   2.464   1.790 -0.3458 -0.8845 -0.1436
 6155TIP3   OH239879   6.548   5.578  12.239 -0.1751  0.0240  0.0774
 6155TIP3    H139880   6.548   5.559  12.333 -0.4838  1.2195  0.3247
 6155TIP3    H239881   6.510   5.500  12.199 -2.0840  0.3947  1.1293
 6156TIP3   OH239882   3.174   4.456  13.472  0.2061 -0.6833 -0.0893
 6156TIP3    H139883   3.117   4.437  13.398 -0.4521  0.0959  0.2183
 6156TIP3    H239884   3.174   4.551  13.480  1.7565 -0.6563 -0.2464
 6157TIP3   OH239885   4.077   1.413  15.633 -0.1545 -0.2488 -0.0193
 6157TIP3    H139886   4.157   1.457  15.603 -0.0496 -0.9686 -0.8078
 6157TIP3    H239887   4.094   1.394  15.725 -0.4029  1.8114  0.4735
 6158TIP3   OH239888   2.514   3.573  11.090  0.0514 -0.5365  0.3487
 6158TIP3    H139889   2.538   3.495  11.140  0.3174 -0.6434  0.0577
 6158TIP3    H239890   2.518   3.544  10.999  0.4635 -0.0959  0.2258
 6159TIP3   OH239891   1.598   2.232  13.034 -0.5438  0.3428  0.9765
 6159TIP3    H139892   1.579   2.284  13.113 -1.2906 -1.5666  2.0988
 6159TIP3    H239893   1.523   2.173  13.027 -0.2584  0.1806 -0.9417
 6160TIP3   OH239894   4.210   1.367  14.946 -0.5663  0.0659  0.4388
 6160TIP3    H139895   4.168   1.453  14.958  0.6635  0.8201 -0.5968
 6160TIP3    H239896   4.277   1.382  14.880 -0.7717 -1.8606 -0.2350
 6161TIP3   OH239897   4.659   0.704  12.505  0.3283 -0.2843 -0.1666
 6161TIP3    H139898   4.671   0.619  12.547  1.3770  1.1170  2.5121
 6161TIP3    H239899   4.570   0.730  12.530  0.4828 -0.0201  0.1108
 6162TIP3   OH239900   2.375   6.589   0.940 -0.3288  0.0326  0.2425
 6162TIP3    H139901   2.439   6.637   0.888  0.3494 -0.0971  0.9528
 6162TIP3    H239902   2.399   6.607   1.031 -2.1490  1.1126  0.5377
 6163TIP3   OH239903   3.176   4.191  14.292 -0.2523  0.2218  0.2372
 6163TIP3    H139904   3.134   4.241  14.362  0.3704 -0.0919  0.8484
 6163TIP3    H239905   3.113   4.123  14.269 -1.5202  1.8687 -1.2904
 6164TIP3   OH239906   1.318   0.380   0.260 -0.3382  0.2684 -0.0405
 6164TIP3    H139907   1.306   0.367   0.354 -1.0502  0.4447 -0.1031
 6164TIP3    H239908   1.393   0.325   0.238 -0.0555  0.3574  0.6614
 6165TIP3   OH239909   2.472   6.739  17.233 -0.2929  0.0767 -0.2917
 6165TIP3    H139910   2.513   6.655  17.209 -0.9775 -0.1021 -0.8831
 6165TIP3    H239911   2.505   6.801  17.168  1.0459  0.5214  0.7771
 6166TIP3   OH239912   1.886   0.044  16.891  0.4743 -0.3924  0.7233
 6166TIP3    H139913   1.846   0.078  16.971  0.8430 -0.6339  1.0125
 6166TIP3    H239914   1.815   0.043  16.827  0.1688 -0.2287  1.0550
 6167TIP3   OH239915   6.104   1.681   1.360 -0.3313 -0.5095  0.1810
 6167TIP3    H139916   6.165   1.708   1.290  0.7581  1.9446  1.9969
 6167TIP3    H239917   6.125   1.739   1.433 -1.5708 -2.9274  2.5173
 6168TIP3   OH239918   4.487   0.821  16.154  0.7194  0.0630  0.6433
 6168TIP3    H139919   4.460   0.910  16.129  1.0426  0.2502  0.9604
 6168TIP3    H239920   4.421   0.794  16.219  0.7036  0.1255  0.6524
 6169TIP3   OH239921   4.559   4.284   3.167 -0.4965 -0.3847 -0.0179
 6169TIP3    H139922   4.562   4.194   3.199 -0.5389  0.0906  1.3893
 6169TIP3    H239923   4.592   4.336   3.240 -1.4281  0.8306 -0.4447
 6170TIP3   OH239924   6.201   4.813  13.140  0.5496 -0.0757  0.1861
 6170TIP3    H139925   6.226   4.857  13.221  0.4517  1.3509 -0.5393
 6170TIP3    H239926   6.106   4.803  13.146  0.7078 -1.2436  0.8605
 6171TIP3   OH239927   0.910   1.788   3.081 -0.1588  0.3116 -0.0467
 6171TIP3    H139928   0.925   1.834   3.163  1.0786  2.7365 -1.5630
 6171TIP3    H239929   0.867   1.706   3.106  0.9153  0.6371  3.0576
 6172TIP3   OH239930   2.632   3.087  12.404 -0.2171  0.2051 -0.0981
 6172TIP3    H139931   2.605   3.177  12.423  1.4263  0.6052  0.3745
 6172TIP3    H239932   2.725   3.084  12.427 -0.3096 -1.6808  0.1021
 6173TIP3   OH239933   5.013   2.085   0.206  0.3243  0.4984  0.2731
 6173TIP3    H139934   5.099   2.065   0.170 -0.4576 -1.3572 -0.6017
 6173TIP3    H239935   5.014   2.046   0.293 -0.0335 -0.4835 -0.1660
 6174TIP3   OH239936   6.668   2.892   4.527  0.4066  0.4357  0.2489
 6174TIP3    H139937   6.682   2.905   4.433  2.2158 -0.1261  0.4247
 6174TIP3    H239938   6.577   2.919   4.542  0.1354  0.6139 -1.6410
 6175TIP3   OH239939   1.282   2.953  12.248 -0.0401  0.4346 -0.2363
 6175TIP3    H139940   1.274   2.869  12.293 -0.0417  1.0871  1.0030
 6175TIP3    H239941   1.352   2.999  12.295  0.1664  1.0007 -1.0920
 6176TIP3   OH239942   0.998   3.019   2.145  0.2215  0.2213  0.4594
 6176TIP3    H139943   1.042   2.997   2.063 -0.2168  1.2965 -0.0719
 6176TIP3    H239944   1.026   3.108   2.164  0.0660  0.0915  1.3101
 6177TIP3   OH239945   3.643   6.215   1.500  0.0176  0.0838 -0.6946
 6177TIP3    H139946   3.560   6.262   1.486 -0.7697 -1.5415 -1.7086
 6177TIP3    H239947   3.706   6.261   1.444 -0.1828  1.3481  0.0993
 6178TIP3   OH239948   1.250   6.536  13.952 -0.3202 -0.1479 -0.3581
 6178TIP3    H139949   1.335   6.513  13.913 -0.6112 -1.3244 -0.3372
 6178TIP3    H239950   1.256   6.504  14.042 -0.1933  1.2393  0.1349
 6179TIP3   OH239951   6.067   5.423  16.327 -0.0616  0.0469 -0.3115
 6179TIP3    H139952   6.149   5.387  16.293 -0.2418 -0.5282 -0.1379
 6179TIP3    H239953   6.090   5.513  16.354 -0.0295  0.6689 -2.3452
 6180TIP3   OH239954   0.807   1.508  11.103  0.1434 -0.3627 -0.5736
 6180TIP3    H139955   0.847   1.595  11.107  1.9637 -1.2762  1.9779
 6180TIP3    H239956   0.879   1.448  11.086 -1.0827 -1.4223 -2.1762
 6181TIP3   OH239957   6.047   3.484   1.789  0.5587  0.0177 -0.4261
 6181TIP3    H139958   6.089   3.527   1.863  1.5570  0.4911 -1.2653
 6181TIP3    H239959   5.988   3.550   1.752  2.7556  1.0316 -2.2693
 6182TIP3   OH239960   6.088   1.936  14.209 -0.0885 -0.4687  0.3146
 6182TIP3    H139961   6.019   1.878  14.177 -1.0247  0.9661 -0.3159
 6182TIP3    H239962   6.046   1.989  14.276 -0.5129  2.5994 -2.2598
 6183TIP3   OH239963   6.089   5.255  15.500 -0.0566 -0.5278  0.2972
 6183TIP3    H139964   6.149   5.216  15.564 -1.0396 -0.7386  1.0915
 6183TIP3    H239965   6.117   5.219  15.416 -0.4740 -2.3501  0.9198
 6184TIP3   OH239966   2.350   4.504  12.204  0.4970  0.4319 -0.8535
 6184TIP3    H139967   2.302   4.585  12.227  1.3969  0.4676  1.0261
 6184TIP3    H239968   2.289   4.434  12.225  0.7176  0.5305  0.1340
 6185TIP3   OH239969   4.106   0.599   3.666  0.2959  0.2295  0.3745
 6185TIP3    H139970   4.130   0.561   3.582 -0.3173  0.5912  0.0348
 6185TIP3    H239971   4.152   0.683   3.669  1.5263 -0.4532  1.0584
 6186TIP3   OH239972   1.805   5.243   2.225  0.2551 -0.7364  0.0627
 6186TIP3    H139973   1.795   5.321   2.171 -0.3191 -0.8386  0.0134
 6186TIP3    H239974   1.727   5.190   2.206 -0.0531 -0.6875  1.1096
 6187TIP3   OH239975   3.070   6.672   1.703 -0.3370 -1.1059 -0.2005
 6187TIP3    H139976   3.091   6.586   1.667  0.0219 -0.3812 -1.7968
 6187TIP3    H239977   3.118   6.733   1.647 -0.5969  0.1318  0.9055
 6188TIP3   OH239978   5.437   2.450   3.338 -0.1514 -0.2005  0.4077
 6188TIP3    H139979   5.493   2.527   3.327 -0.1202 -0.2203  0.4289
 6188TIP3    H239980   5.461   2.414   3.423  1.0485 -1.2209 -0.3458
 6189TIP3   OH239981   6.059   2.207  14.108  0.4017 -0.1525  0.6194
 6189TIP3    H139982   5.964   2.195  14.105  0.3326  0.7528 -1.9872
 6189TIP3    H239983   6.094   2.118  14.112 -0.5451 -0.4944  1.7122
 6190TIP3   OH239984   1.863   4.558   2.465 -0.2655 -0.1433  0.1138
 6190TIP3    H139985   1.880   4.467   2.489 -1.1005 -0.0936  0.9077
 6190TIP3    H239986   1.880   4.561   2.371 -0.5723 -1.2043  0.0157
 6191TIP3   OH239987   1.208   2.010   3.273  0.2734  0.3542 -0.0736
 6191TIP3    H139988   1.212   2.061   3.354 -0.3592 -0.4729  0.4913
 6191TIP3    H239989   1.262   1.933   3.291  0.0791  0.1419 -0.4153
 6192TIP3   OH239990   2.578   3.780   0.277 -0.3897  0.3625 -0.4503
 6192TIP3    H139991   2.641   3.719   0.317 -0.3213 -0.4814 -1.8333
 6192TIP3    H239992   2.496   3.731   0.273 -0.2414  0.2293 -1.9077
 6193TIP3   OH239993   2.541   3.038   3.241 -0.2536  0.2262  0.4406
 6193TIP3    H139994   2.602   2.988   3.294  1.5176  1.5465 -0.2952
 6193TIP3    H239995   2.487   2.972   3.196  1.8482 -1.0121 -0.3126
 6194TIP3   OH239996   5.208   2.018  15.918  0.9395  0.0533  0.4867
 6194TIP3    H139997   5.120   1.982  15.922  1.4401 -1.2228  0.2282
 6194TIP3    H239998   5.197   2.104  15.877 -0.0947 -0.4132 -0.2475
 6195TIP3   OH239999   5.239   2.810  13.194  0.4045 -0.0666  0.2120
 6195TIP3    H140000   5.332   2.790  13.202 -0.0628 -2.2444  0.5560
 6195TIP3    H240001   5.196   2.747  13.252 -1.3254  0.5256 -0.3997
 6196TIP3   OH240002   4.988   4.976   3.096  0.1087 -0.1561  0.1331
 6196TIP3    H140003   5.056   4.955   3.032 -1.3977 -0.1472 -1.5248
 6196TIP3    H240004   4.925   5.030   3.047 -0.4441  0.9117  1.9721
 6197TIP3   OH240005   5.494   6.020  15.866  0.0787 -0.1503  0.0491
 6197TIP3    H140006   5.449   6.086  15.813 -2.5252 -2.4503 -0.7306
 6197TIP3    H240007   5.433   5.946  15.869  2.3799 -2.0522  1.9353
 6198TIP3   OH240008   5.622   5.625   3.758 -0.0348 -0.3797 -0.6393
 6198TIP3    H140009   5.556   5.612   3.689  0.3198 -1.7548 -0.7387
 6198TIP3    H240010   5.623   5.542   3.805  0.5879  0.1472  0.2779
 6199TIP3   OH240011   3.391   5.141   0.641  0.1425 -0.0131 -0.0268
 6199TIP3    H140012   3.334   5.218   0.641  0.2391  0.0739 -1.2227
 6199TIP3    H240013   3.430   5.141   0.554  0.4444 -1.1983  0.1022
 6200TIP3   OH240014   2.489   1.029  15.018 -0.2226  0.0135 -0.6717
 6200TIP3    H140015   2.437   1.020  15.098 -0.3364  0.9522 -0.6402
 6200TIP3    H240016   2.486   0.942  14.978 -1.5741 -0.0284 -0.5123
 6201TIP3   OH240017   5.067   0.363  13.850 -0.1760  0.0809  0.8015
 6201TIP3    H140018   5.037   0.330  13.766 -0.1417 -1.9042  1.5567
 6201TIP3    H240019   5.010   0.322  13.915  1.0927 -0.0121  1.8938
 6202TIP3   OH240020   2.901   2.988   2.751  0.1278 -0.2769  0.4835
 6202TIP3    H140021   2.890   2.993   2.656  1.1645 -2.6439  0.2061
 6202TIP3    H240022   2.987   3.026   2.767  0.4817 -1.0053  0.3291
 6203TIP3   OH240023   0.222   5.499   5.197 -0.2905 -0.7810 -0.0763
 6203TIP3    H140024   0.157   5.434   5.222  0.2873 -1.0613  0.7282
 6203TIP3    H240025   0.171   5.576   5.173 -0.9033 -0.8269  1.0417
 6204TIP3   OH240026   3.418   4.556  16.603  0.0911 -0.1768  0.0353
 6204TIP3    H140027   3.509   4.567  16.574 -0.0360 -0.7847 -0.6159
 6204TIP3    H240028   3.384   4.487  16.546 -1.3606  1.3740 -1.0166
 6205TIP3   OH240029   0.021   3.886   5.642 -0.1411 -0.7241 -0.1040
 6205TIP3    H140030   0.012   3.832   5.721  2.0710  0.3686  0.9373
 6205TIP3    H240031   0.003   3.826   5.570 -1.7459 -1.8582  1.1746
 6206TIP3   OH240032   0.585   3.331  10.624 -0.7648 -0.2433 -0.4111
 6206TIP3    H140033   0.515   3.296  10.678 -1.9870 -0.0051 -1.8021
 6206TIP3    H240034   0.551   3.326  10.535  1.0607 -0.2783 -1.1207
 6207TIP3   OH240035   4.606   0.869   5.407 -0.1262 -0.6371  0.2575
 6207TIP3    H140036   4.613   0.867   5.503 -1.8877 -0.4571  0.4063
 6207TIP3    H240037   4.675   0.929   5.380 -0.5957  0.4940  1.5202
 6208TIP3   OH240038   5.178   1.072   4.163 -0.2510 -0.8705 -0.7937
 6208TIP3    H140039   5.226   1.011   4.107  2.9158 -0.0558  0.9105
 6208TIP3    H240040   5.211   1.158   4.138 -1.3619 -0.2265 -0.0622
 6209TIP3   OH240041   0.465   6.022  13.490  0.1161  0.0250 -0.6085
 6209TIP3    H140042   0.401   6.011  13.560  1.0835  2.3770  0.7344
 6209TIP3    H240043   0.413   6.045  13.413 -0.7146  1.2659  0.3010
 6210TIP3   OH240044   0.223   5.695  15.847 -0.6418  0.2046 -0.1631
 6210TIP3    H140045   0.164   5.621  15.837 -1.2060  0.5856  0.3188
 6210TIP3    H240046   0.166   5.769  15.870  0.1903  0.1924  2.0956
 6211TIP3   OH240047   5.543   6.776  12.335  0.4345  0.5015 -0.4703
 6211TIP3    H140048   5.591   6.828  12.400 -0.1955  1.2589 -0.5962
 6211TIP3    H240049   5.451   6.784  12.362  0.4086 -1.2101 -0.0362
 6212TIP3   OH240050   0.456   3.487   3.389  0.3282 -0.1174  0.2745
 6212TIP3    H140051   0.436   3.423   3.457  0.5010 -0.3828  0.0786
 6212TIP3    H240052   0.551   3.501   3.398  0.3376 -0.0980  0.1398
 6213TIP3   OH240053   0.449   2.180  15.395 -0.3836  0.1985 -0.1873
 6213TIP3    H140054   0.433   2.091  15.424  1.5010 -0.4405 -1.0479
 6213TIP3    H240055   0.389   2.193  15.322 -0.3365 -0.5259 -0.3527
 6214TIP3   OH240056   4.273   5.953   3.914  0.0507  0.4470 -0.5705
 6214TIP3    H140057   4.302   5.966   4.005 -1.3452 -0.0236 -0.0485
 6214TIP3    H240058   4.290   6.037   3.872  0.4545  0.7583  0.2001
 6215TIP3   OH240059   6.108   2.843   3.616 -0.1178  0.6569 -0.2686
 6215TIP3    H140060   6.191   2.822   3.574 -0.2755  2.5401 -1.5983
 6215TIP3    H240061   6.080   2.762   3.657  2.0568 -0.1699 -0.3651
 6216TIP3   OH240062   0.827   3.998   6.047  0.3193 -0.0301  0.0754
 6216TIP3    H140063   0.817   4.073   5.988  0.1495 -0.2049 -0.1193
 6216TIP3    H240064   0.907   4.017   6.096  1.1682 -0.4801 -1.0917
 6217TIP3   OH240065   0.093   1.907  12.311  0.2542  0.1822 -0.4210
 6217TIP3    H140066   0.023   1.880  12.251  0.6432 -0.9708 -0.3685
 6217TIP3    H240067   0.161   1.942  12.254  0.1262  0.1958 -0.5666
 6218TIP3   OH240068   6.009   1.685  14.139  0.5157  0.8660 -0.2599
 6218TIP3    H140069   6.028   1.647  14.225  3.1473  0.0708 -1.1608
 6218TIP3    H240070   5.920   1.655  14.120  0.4949 -0.2860  1.4983
 6219TIP3   OH240071   6.083   4.869  11.720  0.0661 -0.1951  0.3000
 6219TIP3    H140072   6.177   4.849  11.720  0.6970  2.4810  1.7845
 6219TIP3    H240073   6.057   4.861  11.812 -0.2059  3.0574  0.5550
 6220TIP3   OH240074   3.078   3.427   4.388 -0.0856  0.3224 -0.2121
 6220TIP3    H140075   2.989   3.429   4.422  0.2691  1.8649  0.7113
 6220TIP3    H240076   3.110   3.339   4.408 -0.6526  0.4793  1.5107
 6221TIP3   OH240077   1.524   2.789   2.207 -0.1263  0.1295  0.1488
 6221TIP3    H140078   1.434   2.799   2.176  0.5066  0.1640 -1.7462
 6221TIP3    H240079   1.545   2.874   2.247 -0.4744  0.5720 -0.6092
 6222TIP3   OH240080   6.172   2.419   4.825  0.3619  0.7342 -0.0529
 6222TIP3    H140081   6.103   2.378   4.876  0.3118 -0.5344 -1.1330
 6222TIP3    H240082   6.253   2.395   4.870  0.1868  1.4308  0.6606
 6223TIP3   OH240083   4.117   1.148  11.160 -0.0457 -0.5241  0.3681
 6223TIP3    H140084   4.113   1.054  11.141  0.1105 -0.6267  0.8235
 6223TIP3    H240085   4.027   1.173  11.180 -0.2595 -0.3558 -0.7511
 6224TIP3   OH240086   6.013   2.361  13.691 -0.1773 -0.6121 -0.2569
 6224TIP3    H140087   6.105   2.353  13.718 -0.2498 -1.2931 -0.1960
 6224TIP3    H240088   6.017   2.380  13.597  0.0231 -1.0080 -0.3323
 6225TIP3   OH240089   5.729   2.203  13.340 -0.5500 -0.5622 -0.4119
 6225TIP3    H140090   5.773   2.119  13.326  1.2777 -0.0535  1.8679
 6225TIP3    H240091   5.716   2.208  13.435 -2.0034  1.0599 -0.6698
 6226TIP3   OH240092   2.094   3.746   3.581 -0.2966  0.4215 -0.1641
 6226TIP3    H140093   2.072   3.768   3.672  0.1103 -1.1018  0.3215
 6226TIP3    H240094   2.101   3.651   3.581  2.1555  0.5692 -1.2425
 6227TIP3   OH240095   3.499   3.975   0.807  0.1071  0.1940 -0.0165
 6227TIP3    H140096   3.427   4.024   0.767 -0.6447 -1.6712 -1.0076
 6227TIP3    H240097   3.516   3.903   0.746  1.0081 -0.9260  1.5251
 6228TIP3   OH240098   4.600   3.472  12.230 -0.0826 -0.1034 -0.2235
 6228TIP3    H140099   4.692   3.448  12.229 -0.0963 -0.1512 -0.3347
 6228TIP3    H240100   4.563   3.422  12.302 -0.1352 -0.5175 -0.5315
 6229TIP3   OH240101   1.291   4.582  12.261  0.2444 -0.2618  0.7770
 6229TIP3    H140102   1.325   4.534  12.336 -1.8087 -2.6851  0.2155
 6229TIP3    H240103   1.199   4.600  12.284  0.7398  2.8086  0.6563
 6230TIP3   OH240104   2.857   2.830   4.784  0.0498 -0.3539 -0.3620
 6230TIP3    H140105   2.897   2.859   4.866  0.7800  0.6523 -1.0744
 6230TIP3    H240106   2.764   2.820   4.806 -0.1517  2.0890  0.0143
 6231TIP3   OH240107   2.489   4.061  16.091  0.6378  0.2002 -0.5387
 6231TIP3    H140108   2.424   4.109  16.040 -0.3697 -0.1248  0.4223
 6231TIP3    H240109   2.558   4.125  16.108 -0.3712  1.1306  0.1503
 6232TIP3   OH240110   5.345   2.633   0.845 -0.3439  0.4382 -0.1319
 6232TIP3    H140111   5.367   2.726   0.856  0.2535  0.2123  0.6007
 6232TIP3    H240112   5.301   2.609   0.926 -0.2307  0.0027 -0.2000
 6233TIP3   OH240113   1.286   5.999   4.806 -0.2317  0.5715  0.0008
 6233TIP3    H140114   1.345   6.050   4.750  0.0523  0.6011  0.3247
 6233TIP3    H240115   1.322   5.910   4.803 -0.7529  0.3808 -0.5998
 6234TIP3   OH240116   0.039   5.406   2.633 -0.1895 -0.3761  0.8266
 6234TIP3    H140117  -0.026   5.463   2.593  1.3010  1.0675  0.3889
 6234TIP3    H240118   0.077   5.357   2.559  0.0589 -0.3304  0.9226
 6235TIP3   OH240119   5.846   3.813  10.756  0.0128  0.6035 -0.5185
 6235TIP3    H140120   5.904   3.753  10.803 -0.8613  0.5976  0.5691
 6235TIP3    H240121   5.903   3.886  10.732  0.5283  0.5170  0.3865
 6236TIP3   OH240122   3.216   5.387   3.875  0.4056 -0.2609  0.6737
 6236TIP3    H140123   3.182   5.465   3.832 -1.2125 -0.2256  2.0076
 6236TIP3    H240124   3.296   5.366   3.825 -1.3867 -0.2064 -2.3546
 6237TIP3   OH240125   4.849   4.508  16.965  0.2403 -0.2964 -0.9468
 6237TIP3    H140126   4.891   4.545  16.888  1.9667  1.6090  0.8518
 6237TIP3    H240127   4.803   4.582  17.005  0.3439 -0.9890  0.4806
 6238TIP3   OH240128   3.916   2.341   2.306  0.1051  0.0378  0.2143
 6238TIP3    H140129   3.947   2.415   2.359  0.4639  0.7999 -1.0252
 6238TIP3    H240130   3.994   2.286   2.295  0.3633  0.5814 -0.6675
 6239TIP3   OH240131   4.812   5.091  13.192 -0.3855 -0.2505 -0.3399
 6239TIP3    H140132   4.818   5.113  13.099 -0.8836 -1.2608 -0.6171
 6239TIP3    H240133   4.762   5.164  13.230  1.1355  0.9398 -0.5777
 6240TIP3   OH240134   4.715   1.835   5.201  0.3499 -0.1354 -0.3240
 6240TIP3    H140135   4.668   1.916   5.179 -0.9944 -0.8628 -0.2078
 6240TIP3    H240136   4.761   1.856   5.283  1.4354  1.0548 -1.2201
 6241TIP3   OH240137   0.947   3.630   0.885  0.4059 -0.3425  0.7764
 6241TIP3    H140138   0.989   3.687   0.821 -1.3299  1.0566  0.8548
 6241TIP3    H240139   0.870   3.595   0.839  0.3974 -1.1218  1.3667
 6242TIP3   OH240140   0.529   5.183   5.109  0.6191  0.4310 -0.0121
 6242TIP3    H140141   0.460   5.126   5.142  0.3515  0.8949  0.2320
 6242TIP3    H240142   0.602   5.124   5.089  0.3833  0.0200  0.3522
 6243TIP3   OH240143   0.983   6.718  15.867  0.1263  0.3429  0.1381
 6243TIP3    H140144   0.891   6.727  15.891  0.1631  2.5945 -0.4267
 6243TIP3    H240145   1.027   6.694  15.948 -0.5396  2.2717  1.1053
 6244TIP3   OH240146   3.186   0.861  11.858 -0.5832  0.6509  0.2176
 6244TIP3    H140147   3.163   0.946  11.820  1.5066  0.1452 -2.2601
 6244TIP3    H240148   3.280   0.865  11.872 -0.7185 -0.6693  1.6473
 6245TIP3   OH240149   2.246   5.399  14.163  0.0986  0.7494  0.0901
 6245TIP3    H140150   2.319   5.347  14.130  0.0204  0.1732  0.8039
 6245TIP3    H240151   2.285   5.454  14.231 -0.1121  0.5305  0.3867
 6246TIP3   OH240152   0.972   2.515   0.349  0.3254 -0.1521  0.3429
 6246TIP3    H140153   1.058   2.490   0.314  0.2399  2.1736 -1.7066
 6246TIP3    H240154   0.985   2.605   0.380 -1.4335  0.2998 -0.2103
 6247TIP3   OH240155   2.345   4.822  15.702  0.6879  0.1281  0.1402
 6247TIP3    H140156   2.302   4.748  15.658  1.2582  1.0116 -1.9555
 6247TIP3    H240157   2.288   4.897  15.683  1.6472  0.7698 -0.2271
 6248TIP3   OH240158   2.637   6.566   2.341  0.6247 -0.0416  0.2386
 6248TIP3    H140159   2.659   6.577   2.433  1.9547  2.1329 -0.2928
 6248TIP3    H240160   2.697   6.624   2.294 -0.8568 -0.1375 -1.9041
 6249TIP3   OH240161   6.661   4.609   2.905  0.8256  0.5906 -0.5324
 6249TIP3    H140162   6.650   4.703   2.897 -1.0886  0.7126  2.7418
 6249TIP3    H240163   6.721   4.598   2.979  3.0249 -0.7587 -2.4353
 6250TIP3   OH240164   5.177   6.355   2.096 -0.2115  0.7871 -0.5248
 6250TIP3    H140165   5.172   6.296   2.171 -0.0338  1.6734  0.1844
 6250TIP3    H240166   5.246   6.417   2.118 -1.1123  1.9092 -0.8011
 6251TIP3   OH240167   3.773   4.322   1.025  0.3468  0.1632  0.3223
 6251TIP3    H140168   3.688   4.365   1.017 -1.0450 -2.4126  0.8041
 6251TIP3    H240169   3.754   4.238   1.067  2.9697 -0.9486 -0.5842
 6252TIP3   OH240170   0.168   6.747   6.331  0.3882  0.2677  0.6261
 6252TIP3    H140171   0.188   6.671   6.385  0.3259  0.8834  1.5187
 6252TIP3    H240172   0.232   6.742   6.259 -0.4024 -1.2951 -0.0034
 6253TIP3   OH240173   1.977   6.129   1.236  0.2199  0.2314  0.5038
 6253TIP3    H140174   1.945   6.041   1.217  0.3705  0.3832 -0.4598
 6253TIP3    H240175   2.058   6.115   1.285 -0.3479 -0.1571  1.3607
 6254TIP3   OH240176   0.262   0.136  13.826  0.5499 -0.5511  0.6229
 6254TIP3    H140177   0.238   0.229  13.829 -0.4728 -0.8386  1.8363
 6254TIP3    H240178   0.270   0.110  13.918 -1.2202 -2.1666  0.3527
 6255TIP3   OH240179   0.759   6.101  13.093  0.5344  0.0440  0.4165
 6255TIP3    H140180   0.724   6.116  13.180 -0.0685 -0.1736  0.2144
 6255TIP3    H240181   0.822   6.030  13.105  1.0668  0.5762  0.8156
 6256TIP3   OH240182   2.843   3.576   4.313 -0.3903  0.8477  0.0466
 6256TIP3    H140183   2.905   3.575   4.386  0.5830  3.5764 -0.6797
 6256TIP3    H240184   2.757   3.575   4.355  0.1512  0.5192  1.1624
 6257TIP3   OH240185   6.620   0.641   3.867  0.2425 -0.0707  0.1084
 6257TIP3    H140186   6.551   0.617   3.805  2.2476 -0.2496 -2.1468
 6257TIP3    H240187   6.575   0.691   3.936 -2.3449 -1.4836 -0.4846
 6258TIP3   OH240188   3.540   4.997  17.085 -0.5081  0.8260  0.4336
 6258TIP3    H140189   3.542   5.071  17.025  0.0183 -0.8495 -1.7069
 6258TIP3    H240190   3.486   4.932  17.041 -0.8978 -0.0990  2.2312
 6259TIP3   OH240191   4.698   6.321  10.503 -0.2349  0.2513 -0.0063
 6259TIP3    H140192   4.684   6.304  10.409 -0.5465  2.3048 -0.3460
 6259TIP3    H240193   4.790   6.300  10.517 -0.0449  0.4574 -0.8856
 6260TIP3   OH240194   0.551   0.334  12.405 -0.4961 -0.4994 -0.1729
 6260TIP3    H140195   0.549   0.366  12.495 -2.1015 -0.3066 -0.2656
 6260TIP3    H240196   0.483   0.268  12.401 -1.8362  0.9310 -1.7581
 6261TIP3   OH240197   6.025   4.010  15.902  0.6938 -0.6314  0.1958
 6261TIP3    H140198   5.967   4.010  15.826  1.8095  0.8003 -0.6751
 6261TIP3    H240199   6.074   4.092  15.895  2.4506 -1.5712  1.2009
 6262TIP3   OH240200   6.122   3.311   3.591 -0.3001 -0.1103  0.0405
 6262TIP3    H140201   6.035   3.331   3.556  0.4475  3.1550 -0.1345
 6262TIP3    H240202   6.122   3.350   3.678  1.5165  1.3730 -0.5957
 6263TIP3   OH240203   3.700   6.123  15.439 -0.0556 -0.5103  0.4085
 6263TIP3    H140204   3.727   6.189  15.502 -0.8677  0.0198  0.2204
 6263TIP3    H240205   3.716   6.039  15.483  1.0572 -0.1955  0.6162
 6264TIP3   OH240206   1.905   4.969   2.625  0.5951  0.4470  0.3295
 6264TIP3    H140207   1.817   4.941   2.599  0.5099  0.7198  0.3118
 6264TIP3    H240208   1.925   4.918   2.703  0.1682  0.8168  0.6910
 6265TIP3   OH240209   3.515   0.103   5.148  0.4725  0.9207  0.1331
 6265TIP3    H140210   3.556   0.185   5.174 -0.4212  1.6472 -0.7227
 6265TIP3    H240211   3.585   0.038   5.152  0.6268  1.2225  3.2456
 6266TIP3   OH240212   3.327   6.020  15.287  0.1646  0.2391  0.6532
 6266TIP3    H140213   3.407   6.039  15.238  0.8865 -0.4385  1.5743
 6266TIP3    H240214   3.268   5.982  15.221  0.8681  0.0217  0.1395
 6267TIP3   OH240215   3.267   5.851   3.286  0.1102  0.1141 -0.3479
 6267TIP3    H140216   3.199   5.784   3.278  0.9273 -1.1161  2.3928
 6267TIP3    H240217   3.241   5.919   3.225 -1.7808 -1.8498 -1.7958
 6268TIP3   OH240218   5.176   0.159   5.444  0.6179 -0.3559 -0.3185
 6268TIP3    H140219   5.139   0.238   5.484  0.5117  0.0940 -1.2828
 6268TIP3    H240220   5.136   0.087   5.493  1.3853  0.1941  1.1493
 6269TIP3   OH240221   6.054   5.043   1.018  0.3490 -0.6896  0.2382
 6269TIP3    H140222   6.099   4.966   1.053  1.8687 -0.0238 -0.1936
 6269TIP3    H240223   5.961   5.026   1.034  0.6867 -2.4385  0.4816
 6270TIP3   OH240224   3.959   3.414   0.456 -0.0668  0.3466 -0.1962
 6270TIP3    H140225   4.002   3.500   0.456 -1.3806  1.0251 -1.3930
 6270TIP3    H240226   3.894   3.420   0.386  0.2152 -1.8246 -0.6782
 6271TIP3   OH240227   4.246   1.707   0.018 -0.3627  0.0609  0.3385
 6271TIP3    H140228   4.221   1.688   0.108 -0.7164 -2.0655 -0.1696
 6271TIP3    H240229   4.163   1.705  -0.030 -0.2571  1.8756  0.0787
 6272TIP3   OH240230   4.472   5.698   4.384 -0.3604 -0.2435  0.1683
 6272TIP3    H140231   4.510   5.723   4.300  1.0620  1.6372  1.3380
 6272TIP3    H240232   4.540   5.647   4.428 -0.3147  0.5183  1.0035
 6273TIP3   OH240233   4.486   2.706  16.315  0.3232  0.0883 -0.2207
 6273TIP3    H140234   4.575   2.676  16.293  0.5530  1.6433 -1.4760
 6273TIP3    H240235   4.459   2.758  16.240 -0.6027  1.8932  1.3206
 6274TIP3   OH240236   4.104   2.191   3.692  0.0534  0.3047 -0.0515
 6274TIP3    H140237   4.172   2.169   3.755 -0.4947 -1.1073  0.0670
 6274TIP3    H240238   4.100   2.286   3.693  0.3895  0.3154  1.6775
 6275TIP3   OH240239   4.263   6.446   3.503  0.3390 -0.5251  0.4344
 6275TIP3    H140240   4.250   6.371   3.445  0.4612 -0.2159  0.0079
 6275TIP3    H240241   4.194   6.507   3.478  3.9928  2.2169 -3.5759
 6276TIP3   OH240242   1.001   2.444  13.931 -0.3037 -0.3388 -0.2724
 6276TIP3    H140243   1.050   2.520  13.900  0.0430  0.2213  1.5699
 6276TIP3    H240244   0.935   2.428  13.863 -0.0466  1.2688 -0.9223
 6277TIP3   OH240245   3.504   2.578  13.479 -0.0558  0.5194 -0.1298
 6277TIP3    H140246   3.459   2.500  13.511  0.3807  0.1429 -0.4279
 6277TIP3    H240247   3.485   2.645  13.544 -0.9549  0.3351 -0.1962
 6278TIP3   OH240248   4.603   5.227   5.430  0.0351 -1.2060 -0.2453
 6278TIP3    H140249   4.594   5.133   5.420 -0.3276 -1.1149 -0.8162
 6278TIP3    H240250   4.697   5.244   5.425  0.0705 -1.4939 -0.5046
 6279TIP3   OH240251   3.770   0.739   2.580  0.3582  0.2585  0.5061
 6279TIP3    H140252   3.856   0.763   2.546  0.9477 -0.0443  1.7639
 6279TIP3    H240253   3.724   0.702   2.504  1.6495 -0.4018  0.0288
 6280TIP3   OH240254   3.232   3.795   5.055 -0.6867  0.1236 -0.0326
 6280TIP3    H140255   3.235   3.870   4.996  2.7623  0.1831  0.1036
 6280TIP3    H240256   3.245   3.832   5.143  2.1445 -0.6749 -0.0719
 6281TIP3   OH240257   5.321   6.041   3.925 -0.1396  0.5215  0.2861
 6281TIP3    H140258   5.257   5.997   3.869 -0.0261 -0.8324  1.2011
 6281TIP3    H240259   5.406   6.011   3.893  0.0296  1.7073 -0.4181
 6282TIP3   OH240260   4.916   5.501   0.202  0.5411  0.0265 -0.2576
 6282TIP3    H140261   4.852   5.431   0.191  0.3056 -0.1194  1.8426
 6282TIP3    H240262   4.878   5.576   0.157 -0.6456 -0.3500  0.1063
 6283TIP3   OH240263   0.394   2.084  16.366  0.2922 -0.7116  0.4538
 6283TIP3    H140264   0.459   2.047  16.306 -0.0390 -1.1152  0.3399
 6283TIP3    H240265   0.440   2.092  16.449  1.2085  1.2502 -0.2069
 6284TIP3   OH240266   3.153   6.178  15.706  0.5312  0.3267  0.2459
 6284TIP3    H140267   3.085   6.118  15.736  0.8697 -0.1962 -0.0433
 6284TIP3    H240268   3.219   6.122  15.666  0.8350  0.8901 -0.0423
 6285TIP3   OH240269   3.534   3.988   0.441 -0.6142 -0.2439 -0.1961
 6285TIP3    H140270   3.574   3.930   0.506 -1.8696 -0.8824  0.0144
 6285TIP3    H240271   3.585   3.973   0.361  0.1064 -0.4103  0.2851
 6286TIP3   OH240272   5.454   4.678  14.159 -0.4820  0.2979  0.1191
 6286TIP3    H140273   5.536   4.725  14.151 -1.3039  1.6120 -0.7555
 6286TIP3    H240274   5.479   4.590  14.189  1.1417  0.9566  0.7217
 6287TIP3   OH240275   4.307   6.209  16.961  0.2236 -0.1079 -0.1996
 6287TIP3    H140276   4.249   6.242  16.892 -0.4738  0.3990  0.6136
 6287TIP3    H240277   4.248   6.193  17.035  0.9637 -0.6722  0.2613
 6288TIP3   OH240278   2.061   5.198   5.319 -0.2466  0.0941 -0.0585
 6288TIP3    H140279   2.143   5.204   5.368 -0.2418 -1.4587  0.1390
 6288TIP3    H240280   2.062   5.275   5.262  0.3937  1.1854  1.3739
 6289TIP3   OH240281   0.372   2.041   0.785 -0.2503  0.0660  0.3947
 6289TIP3    H140282   0.396   2.039   0.878 -2.6073 -0.3491  1.0245
 6289TIP3    H240283   0.420   1.967   0.747  1.0971  0.5187  1.1784
 6290TIP3   OH240284   4.631   4.927  17.198 -0.0939  0.1349  0.4568
 6290TIP3    H140285   4.688   4.936  17.275  1.4842 -0.0241 -0.6686
 6290TIP3    H240286   4.565   4.996  17.210  0.1556  0.1555  1.9164
 6291TIP3   OH240287   2.048   4.907   3.264 -0.9406 -0.1487  0.3173
 6291TIP3    H140288   2.104   4.911   3.342 -1.8145  0.3757  0.9274
 6291TIP3    H240289   2.096   4.851   3.203 -1.1616 -2.2037  1.9713
 6292TIP3   OH240290   2.823   3.128  12.649 -0.0304  0.5636  0.2839
 6292TIP3    H140291   2.847   3.048  12.603  1.8074  1.6004 -0.5873
 6292TIP3    H240292   2.877   3.196  12.610 -1.0323  2.1159  1.5217
 6293TIP3   OH240293   5.814   4.000  16.618  0.2638  0.5885 -0.6344
 6293TIP3    H140294   5.783   4.072  16.674  2.5131 -1.6697  3.7733
 6293TIP3    H240295   5.883   4.041  16.564  0.3765  2.1296  0.6217
 6294TIP3   OH240296   1.233   0.803  11.067  0.6527 -0.1263  0.3010
 6294TIP3    H140297   1.147   0.844  11.080  1.3668  1.2461  0.8640
 6294TIP3    H240298   1.289   0.875  11.038  2.0721 -0.5962  1.8283
 6295TIP3   OH240299   4.889   2.351   5.649 -0.4650  0.0092 -0.0397
 6295TIP3    H140300   4.852   2.360   5.561 -0.2811 -1.7392 -0.3095
 6295TIP3    H240301   4.984   2.352   5.635 -0.4333 -0.1349  0.1574
 6296TIP3   OH240302   0.351   1.964   0.433 -0.3785  0.0205  0.3135
 6296TIP3    H140303   0.269   1.978   0.385 -0.2247 -0.6866 -0.1760
 6296TIP3    H240304   0.411   1.930   0.366 -0.0630 -0.6615  0.9478
 6297TIP3   OH240305   4.212   6.089   1.197 -0.1250 -0.2978  0.1685
 6297TIP3    H140306   4.141   6.121   1.141 -0.3139  1.1387  1.1890
 6297TIP3    H240307   4.191   5.998   1.213 -0.1866 -0.6904 -1.9084
 6298TIP3   OH240308   3.798   3.886   4.749 -0.8432  0.1674  0.6093
 6298TIP3    H140309   3.733   3.946   4.714 -1.4746 -1.8776 -1.8065
 6298TIP3    H240310   3.844   3.852   4.672 -1.0139 -3.0201  1.8469
 6299TIP3   OH240311   0.683   3.561   1.549 -0.1192 -0.3524  0.1741
 6299TIP3    H140312   0.739   3.507   1.494 -0.3918 -0.9558  0.4841
 6299TIP3    H240313   0.657   3.634   1.492  0.2731 -0.5271 -0.2344
 6300TIP3   OH240314   1.676   3.021  11.069  0.2732  0.2752  0.0130
 6300TIP3    H140315   1.767   3.011  11.043  0.7171 -0.0304  1.6384
 6300TIP3    H240316   1.670   3.110  11.103  0.1633  0.0218  0.6674
 6301TIP3   OH240317   5.721   0.193   0.309 -0.0391 -0.3033 -0.2610
 6301TIP3    H140318   5.768   0.272   0.337 -2.1097  1.1172 -0.6980
 6301TIP3    H240319   5.754   0.176   0.220  1.2010 -0.5893  0.2388
 6302TIP3   OH240320   2.499   6.631  11.409  0.1794 -0.4808  0.3236
 6302TIP3    H140321   2.576   6.658  11.360  0.3141  0.3079  0.9699
 6302TIP3    H240322   2.467   6.554  11.362  0.6961 -0.1339 -0.6063
 6303TIP3   OH240323   1.467   5.941   0.204 -0.3078 -0.5431  0.1882
 6303TIP3    H140324   1.540   6.003   0.209 -0.0038 -0.8442 -0.3595
 6303TIP3    H240325   1.484   5.879   0.275 -0.4751 -0.1403  0.5775
 6304TIP3   OH240326   2.641   6.366   4.206  0.0417 -0.9330  0.2364
 6304TIP3    H140327   2.676   6.290   4.252  1.3161 -2.2121 -2.7766
 6304TIP3    H240328   2.714   6.428   4.204 -0.0110 -0.8814 -0.0656
 6305TIP3   OH240329   3.626   3.958   2.110 -0.5219  0.7264 -0.2558
 6305TIP3    H140330   3.709   3.920   2.080 -0.4444  0.1101  0.7174
 6305TIP3    H240331   3.579   3.979   2.029 -0.6333 -1.6127 -0.8419
 6306TIP3   OH240332   3.261   3.631  12.717  0.0543 -0.6008 -0.3577
 6306TIP3    H140333   3.251   3.696  12.647  0.9937  0.7695  0.7649
 6306TIP3    H240334   3.345   3.652  12.758 -0.7341 -1.0401  1.5428
 6307TIP3   OH240335   1.351   0.263  17.182  0.6399  0.1351 -1.2456
 6307TIP3    H140336   1.317   0.352  17.174  0.3913  0.1920  0.3221
 6307TIP3    H240337   1.286   0.208  17.139  0.1264  0.5744 -1.0322
 6308TIP3   OH240338   2.700   2.095  16.029 -0.5174  0.1864 -0.3916
 6308TIP3    H140339   2.607   2.116  16.019 -0.8362 -1.1896 -0.4477
 6308TIP3    H240340   2.739   2.119  15.945 -1.1274 -0.7179 -0.9497
 6309TIP3   OH240341   3.510   6.747   2.380  0.3161 -0.6820 -0.2069
 6309TIP3    H140342   3.515   6.785   2.467  1.0980  1.6813 -1.2517
 6309TIP3    H240343   3.555   6.662   2.389  1.8467  0.2502  1.3139
 6310TIP3   OH240344   6.448   0.516   3.694  0.4366  0.1806  0.3833
 6310TIP3    H140345   6.387   0.443   3.681  3.1981 -1.9780 -0.9866
 6310TIP3    H240346   6.457   0.556   3.608  3.2078 -1.4251 -0.1325
 6311TIP3   OH240347   5.594   4.654  12.319  0.1200 -0.6806  0.2233
 6311TIP3    H140348   5.568   4.599  12.393 -0.3659 -1.5042 -0.5433
 6311TIP3    H240349   5.535   4.730  12.324  0.4780 -0.4497  1.0167
 6312TIP3   OH240350   3.309   3.432  16.618  0.5766 -0.0063  0.0922
 6312TIP3    H140351   3.246   3.448  16.548  1.2347 -1.0387 -0.7603
 6312TIP3    H240352   3.352   3.350  16.593  0.7185 -0.4621  1.7904
 6313TIP3   OH240353   6.604   0.390  13.879 -0.1821 -0.8582 -0.3304
 6313TIP3    H140354   6.662   0.418  13.949 -0.8023 -1.7887  0.5681
 6313TIP3    H240355   6.662   0.352  13.814  0.1291 -2.7935  1.0544
 6314TIP3   OH240356   2.228   5.372  12.247 -0.1394  0.5970 -0.3436
 6314TIP3    H140357   2.246   5.445  12.188  0.7496  0.1856 -0.5863
 6314TIP3    H240358   2.169   5.315  12.197 -1.0068  1.2474 -0.0723
 6315TIP3   OH240359   1.034   3.105  16.001  0.2436 -0.0564  0.3312
 6315TIP3    H140360   1.010   3.115  15.909  0.3232  2.9785  0.5959
 6315TIP3    H240361   0.960   3.059  16.041 -0.4035 -0.1489 -0.9673
 6316TIP3   OH240362   0.639   1.076   4.890  0.3085 -0.3492 -0.3403
 6316TIP3    H140363   0.601   1.034   4.967  0.8864 -1.3172 -0.5691
 6316TIP3    H240364   0.587   1.042   4.817  1.3802 -1.4112 -0.6191
 6317TIP3   OH240365   0.080   4.390   5.233 -0.1753  0.5742  0.2256
 6317TIP3    H140366   0.054   4.452   5.164 -0.4131  1.0693  0.7480
 6317TIP3    H240367   0.153   4.433   5.278 -0.2160  0.3893  0.4712
 6318TIP3   OH240368   2.446   3.135   2.204  0.3771  0.3638  0.2436
 6318TIP3    H140369   2.479   3.221   2.176 -1.1568  1.2728  1.1445
 6318TIP3    H240370   2.428   3.146   2.297  0.1413 -0.9320  0.3501
 6319TIP3   OH240371   4.074   0.409  14.356 -0.0244  0.3626 -0.6453
 6319TIP3    H140372   3.986   0.373  14.371  0.4255 -0.1501  0.9115
 6319TIP3    H240373   4.083   0.411  14.261 -2.3185  1.9210 -0.8672
 6320TIP3   OH240374   3.742   3.539  15.631  0.3122 -0.9906 -0.0502
 6320TIP3    H140375   3.682   3.470  15.661 -1.3090  0.6885  0.6899
 6320TIP3    H240376   3.813   3.538  15.695 -0.2036 -1.3261  0.5278
 6321TIP3   OH240377   1.889   0.243  11.765 -0.1692  0.7740 -0.4581
 6321TIP3    H140378   1.924   0.220  11.679  0.6877  3.1719 -0.7984
 6321TIP3    H240379   1.827   0.314  11.747 -4.0322 -2.2129  0.3448
 6322TIP3   OH240380   4.049   3.996  14.484  0.0872  0.5257  0.4500
 6322TIP3    H140381   3.997   4.055  14.429  0.5159 -0.6250 -1.2112
 6322TIP3    H240382   4.133   3.990  14.440  0.5195 -0.2344  1.3644
 6323TIP3   OH240383   5.923   5.236   4.378 -0.0141 -0.2834 -0.0181
 6323TIP3    H140384   5.971   5.263   4.457 -0.6620  3.8541 -0.9250
 6323TIP3    H240385   5.831   5.239   4.404 -0.0881 -1.9049 -0.0831
 6324TIP3   OH240386   2.094   2.727  16.106  0.1333 -0.5516 -0.5585
 6324TIP3    H140387   2.066   2.808  16.063  1.8949  0.8000  0.7565
 6324TIP3    H240388   2.112   2.666  16.034 -0.6420  0.4160 -1.5863
 6325TIP3   OH240389   3.502   2.888  14.409 -0.0607  0.0665 -1.0089
 6325TIP3    H140390   3.479   2.852  14.323  0.6992  0.9801 -1.5978
 6325TIP3    H240391   3.470   2.823  14.471  0.0709 -0.9684 -2.0150
 6326TIP3   OH240392   6.404   0.647   2.267 -0.1686  0.1506 -0.0921
 6326TIP3    H140393   6.462   0.673   2.195  0.8503 -0.6227  0.4309
 6326TIP3    H240394   6.363   0.728   2.296 -0.7807  0.4322 -1.7078
 6327TIP3   OH240395   0.251   4.571  15.639 -0.1207 -0.2178  0.0931
 6327TIP3    H140396   0.186   4.549  15.573 -0.2358 -0.0436  0.1474
 6327TIP3    H240397   0.248   4.497  15.701 -2.7434  1.3601  1.9680
 6328TIP3   OH240398   4.938   0.501   1.527  0.1298  0.1561 -0.3110
 6328TIP3    H140399   4.852   0.533   1.500 -0.2599  0.9170  1.7394
 6328TIP3    H240400   4.978   0.575   1.572  1.2365 -0.6762  0.0890
 6329TIP3   OH240401   1.363   0.161  13.146 -0.1088  0.3329  0.2038
 6329TIP3    H140402   1.413   0.228  13.098 -0.5123 -0.6024 -1.5551
 6329TIP3    H240403   1.429   0.100  13.177 -0.0776 -0.6331 -1.6942
 6330TIP3   OH240404   4.391   4.537   5.446 -0.0267 -0.2723  0.1165
 6330TIP3    H140405   4.391   4.480   5.369 -0.9250  0.8552 -0.7512
 6330TIP3    H240406   4.325   4.500   5.504  0.7782 -1.2299  0.4317
 6331TIP3   OH240407   6.700   6.341   3.942 -0.6447  0.8449 -0.3597
 6331TIP3    H140408   6.729   6.306   3.857 -0.2779 -1.0835  0.5201
 6331TIP3    H240409   6.769   6.402   3.967  1.2878 -1.5232  0.3479
 6332TIP3   OH240410   3.263   4.716  15.004  0.0784 -0.2465  0.1795
 6332TIP3    H140411   3.302   4.641  15.048  1.6963  0.6922  0.4093
 6332TIP3    H240412   3.334   4.754  14.954 -1.3145 -0.2489 -1.8584
 6333TIP3   OH240413   5.821   2.399  11.180  0.3934 -0.6854 -0.6413
 6333TIP3    H140414   5.845   2.472  11.237  1.6016 -0.1756 -1.7733
 6333TIP3    H240415   5.742   2.428  11.136  0.0318 -0.6650  0.0211
 6334TIP3   OH240416   4.931   6.038   1.506  0.4546  0.2336  0.0443
 6334TIP3    H140417   4.907   6.094   1.433  0.3355  1.4905  1.0364
 6334TIP3    H240418   4.874   5.961   1.497 -1.6462  1.6885  0.4711
 6335TIP3   OH240419   1.648   0.167   5.171  0.4451 -0.3993 -0.2962
 6335TIP3    H140420   1.661   0.127   5.257 -1.0388  0.1079  0.1946
 6335TIP3    H240421   1.599   0.247   5.190  0.1760 -0.2443 -1.6077
 6336TIP3   OH240422   4.681   4.478  14.148 -0.1146 -0.0407  0.7224
 6336TIP3    H140423   4.597   4.479  14.103 -0.0007  0.3087  0.5177
 6336TIP3    H240424   4.705   4.385  14.152  0.6911  0.0492 -1.4724
 6337TIP3   OH240425   1.753   1.281  13.853 -0.5947  0.6160  0.3893
 6337TIP3    H140426   1.662   1.267  13.878 -0.6666 -1.3158 -0.8361
 6337TIP3    H240427   1.799   1.298  13.935 -1.7701 -0.1472  1.2033
 6338TIP3   OH240428   6.459   6.084  12.967 -0.0226  0.0469 -0.1749
 6338TIP3    H140429   6.377   6.109  12.924 -0.2385  0.0094  0.2153
 6338TIP3    H240430   6.443   6.101  13.060 -0.4467 -2.2573  0.2075
 6339TIP3   OH240431   4.824   1.378  12.571 -0.1593  0.0346  0.7044
 6339TIP3    H140432   4.820   1.455  12.515  0.5656  2.1655  3.4465
 6339TIP3    H240433   4.737   1.340  12.567  0.0560 -0.2430 -2.2974
 6340TIP3   OH240434   1.567   6.115   3.144 -0.9323  0.5387  0.1286
 6340TIP3    H140435   1.643   6.155   3.102 -0.7294  0.3352  0.3011
 6340TIP3    H240436   1.544   6.041   3.087  0.1377 -0.5288  1.0525
 6341TIP3   OH240437   3.002   0.682   2.936 -0.1069  0.2583 -0.0645
 6341TIP3    H140438   3.018   0.615   2.870  0.7875  2.6198 -2.3604
 6341TIP3    H240439   2.907   0.697   2.933  0.0127  0.8113 -1.3165
 6342TIP3   OH240440   2.094   1.974   2.220 -0.0514  0.5356 -0.2973
 6342TIP3    H140441   2.025   2.021   2.173 -0.4382  0.6260  0.3544
 6342TIP3    H240442   2.173   1.993   2.171 -0.1233  2.3015  0.2238
 6343TIP3   OH240443   0.258   0.300   3.393 -0.1406 -0.7734 -0.1286
 6343TIP3    H140444   0.230   0.386   3.424 -0.7307 -1.1378  0.3404
 6343TIP3    H240445   0.349   0.314   3.364 -0.4525  0.1649 -0.6982
 6344TIP3   OH240446   2.226   4.123   5.332  0.2458  0.1938  0.2586
 6344TIP3    H140447   2.149   4.176   5.353 -1.9695 -2.7076 -0.2648
 6344TIP3    H240448   2.213   4.041   5.379  1.2604 -1.6989 -2.6535
 6345TIP3   OH240449   5.493   5.428  14.184  0.1369 -0.4133  0.2914
 6345TIP3    H140450   5.496   5.520  14.212  0.4270 -0.8107  1.6104
 6345TIP3    H240451   5.400   5.412  14.166  0.1313  0.2334 -0.2655
 6346TIP3   OH240452   1.773   3.094   5.199  0.0666  0.1928  0.1554
 6346TIP3    H140453   1.749   3.185   5.179 -0.0348 -0.1580 -1.3799
 6346TIP3    H240454   1.800   3.057   5.115  1.0932 -0.9092  0.9516
 6347TIP3   OH240455   0.174   6.050  11.183  0.2593 -0.3945  0.1943
 6347TIP3    H140456   0.166   5.979  11.247  1.0434 -1.2699 -0.6642
 6347TIP3    H240457   0.263   6.043  11.150  1.2050  2.5578  1.8667
 6348TIP3   OH240458   4.609   5.763   4.789 -0.5864 -0.6701 -0.5303
 6348TIP3    H140459   4.518   5.735   4.790 -0.3599 -1.4112 -0.6428
 6348TIP3    H240460   4.642   5.743   4.876 -1.0016  1.1899  0.0832
 6349TIP3   OH240461   4.154   1.841   4.890 -0.4703 -0.3084  0.0396
 6349TIP3    H140462   4.191   1.804   4.971  0.7531 -1.3089 -0.9352
 6349TIP3    H240463   4.090   1.776   4.861 -1.0409  0.1368  0.3069
 6350TIP3   OH240464   3.756   4.915   2.633 -0.0523  0.2304  0.0086
 6350TIP3    H140465   3.765   4.980   2.703  0.2609 -1.0448  1.1689
 6350TIP3    H240466   3.730   4.835   2.678 -2.0147 -0.0710 -1.5819
 6351TIP3   OH240467   4.611   3.607  14.428  0.5188  0.0520 -0.3195
 6351TIP3    H140468   4.532   3.583  14.379 -0.1457  0.4799  0.5172
 6351TIP3    H240469   4.683   3.596  14.366 -0.5045  2.4194 -1.9941
 6352TIP3   OH240470   1.508   1.946   3.884 -0.1994 -0.2986 -0.3501
 6352TIP3    H140471   1.602   1.965   3.887 -0.2923  0.2028 -0.4747
 6352TIP3    H240472   1.484   1.958   3.792 -0.4970  0.1634 -0.2177
 6353TIP3   OH240473   2.761   2.823   2.917 -0.0840  0.2351 -0.5182
 6353TIP3    H140474   2.831   2.873   2.875 -0.1030 -0.9501 -1.9961
 6353TIP3    H240475   2.680   2.869   2.893 -0.2213 -1.2112 -3.0009
 6354TIP3   OH240476   6.660   3.060   1.078 -0.0084 -0.4825  0.3469
 6354TIP3    H140477   6.696   3.133   1.027 -1.7516  0.6992  0.7762
 6354TIP3    H240478   6.645   2.991   1.014 -1.3335  0.6709 -0.6106
 6355TIP3   OH240479   6.023   3.215  16.041 -0.3957  0.0789 -0.4814
 6355TIP3    H140480   6.029   3.256  16.127  1.7992  0.4867 -0.7905
 6355TIP3    H240481   5.983   3.129  16.058 -1.3019  0.7344  0.7314
 6356TIP3   OH240482   2.297   6.086  14.578 -0.0936  0.1322  0.4268
 6356TIP3    H140483   2.243   6.008  14.591  0.3849 -0.3580 -0.4365
 6356TIP3    H240484   2.237   6.152  14.543  0.2100 -0.9628 -2.2428
 6357TIP3   OH240485   2.556   3.797  17.229 -0.4675  0.8247  0.2648
 6357TIP3    H140486   2.582   3.789  17.321  0.3423 -1.7648 -0.1658
 6357TIP3    H240487   2.605   3.729  17.184 -0.4169  2.4292 -2.2083
 6358TIP3   OH240488   4.469   5.708  14.882 -0.6047 -0.3582 -0.1902
 6358TIP3    H140489   4.381   5.714  14.920 -1.4958 -0.3560 -2.2044
 6358TIP3    H240490   4.522   5.768  14.935 -2.3981  1.6583 -0.5948
 6359TIP3   OH240491   2.969   1.946   5.132 -0.1040  0.9105 -0.3194
 6359TIP3    H140492   3.049   1.909   5.168 -0.2173  0.7904 -0.1894
 6359TIP3    H240493   2.963   1.910   5.044 -0.9556 -0.5127  0.3067
 6360TIP3   OH240494   6.198   4.370   0.120  0.0084  0.1655  0.4258
 6360TIP3    H140495   6.270   4.431   0.135  0.9015 -0.7134 -0.2646
 6360TIP3    H240496   6.236   4.283   0.134 -0.7794 -0.3389 -0.4644
 6361TIP3   OH240497   4.446   5.736   0.667  0.2653 -0.2552 -0.7922
 6361TIP3    H140498   4.475   5.812   0.717 -0.3243  1.3400 -2.8220
 6361TIP3    H240499   4.380   5.694   0.722 -1.1340  2.0581 -0.6514
 6362TIP3   OH240500   3.188   4.875  14.519 -0.3902  0.3333 -0.0381
 6362TIP3    H140501   3.201   4.968  14.537  1.4423  0.0182  0.3260
 6362TIP3    H240502   3.157   4.839  14.602 -2.2163  0.8058 -0.4896
 6363TIP3   OH240503   1.516   3.258   3.045  0.4118 -0.1715 -0.7217
 6363TIP3    H140504   1.436   3.215   3.074 -0.6073 -0.2773 -3.5032
 6363TIP3    H240505   1.559   3.193   2.988  0.5819  1.1982 -2.2145
 6364TIP3   OH240506   1.096   3.118   5.063 -0.6612 -0.4196  0.3555
 6364TIP3    H140507   1.188   3.108   5.036 -0.5129  0.8963  0.3832
 6364TIP3    H240508   1.099   3.115   5.158 -0.5409  0.5364  0.3830
 6365TIP3   OH240509   1.825   6.733   4.132 -0.5445  0.0048  0.3131
 6365TIP3    H140510   1.916   6.703   4.124 -0.3472  0.4903  0.7297
 6365TIP3    H240511   1.820   6.772   4.219 -1.0042  0.4934  0.0702
 6366TIP3   OH240512   2.973   4.100   0.155 -0.9890  0.3447  0.3972
 6366TIP3    H140513   3.025   4.121   0.233 -1.5519 -0.0903  0.8960
 6366TIP3    H240514   2.887   4.075   0.190 -1.0218 -0.5621 -0.3096
 6367TIP3   OH240515   0.767   2.300  17.109 -0.4785  0.1717  0.1749
 6367TIP3    H140516   0.746   2.388  17.078 -0.2730  0.7406  1.6072
 6367TIP3    H240517   0.705   2.284  17.180 -0.3547 -0.7376  0.0751
 6368TIP3   OH240518   0.113   1.673   5.688 -0.0578  0.0971 -0.4528
 6368TIP3    H140519   0.058   1.651   5.612  1.0160 -0.7990 -0.9919
 6368TIP3    H240520   0.165   1.748   5.658 -0.1126  0.1634 -0.3792
 6369TIP3   OH240521   3.267   1.864   2.386 -0.5720 -0.6305 -0.0054
 6369TIP3    H140522   3.183   1.900   2.356 -0.3597 -1.5924 -1.8498
 6369TIP3    H240523   3.269   1.775   2.350  0.0792 -1.5676  2.2638
 6370TIP3   OH240524   1.939   0.984   2.670 -1.0046 -0.2393 -0.6861
 6370TIP3    H140525   1.871   0.940   2.619 -1.6683 -0.5437  0.4476
 6370TIP3    H240526   1.939   0.939   2.755 -2.5637  2.6582  0.9641
 6371TIP3   OH240527   4.501   1.436   1.512 -0.0085 -0.1934 -0.2942
 6371TIP3    H140528   4.439   1.501   1.544  1.0307 -0.3623  2.1937
 6371TIP3    H240529   4.467   1.352   1.545  0.8556 -0.4237  0.0254
 6372TIP3   OH240530   6.492   3.125  15.189 -0.1681 -0.3145  0.1524
 6372TIP3    H140531   6.518   3.128  15.281  0.5557 -0.4484 -0.0426
 6372TIP3    H240532   6.397   3.115  15.191 -0.1329 -0.5417  0.8844
 6373TIP3   OH240533   1.275   0.797  15.819  0.0641 -0.8565  0.3839
 6373TIP3    H140534   1.250   0.814  15.728  0.4918 -1.1166  0.2158
 6373TIP3    H240535   1.323   0.875  15.846 -0.5234 -0.5533  0.5594
 6374TIP3   OH240536   1.317   4.492   4.529  0.3201 -0.6192  0.0264
 6374TIP3    H140537   1.257   4.478   4.603 -0.5725  1.0549 -0.3655
 6374TIP3    H240538   1.404   4.477   4.566 -0.2137 -1.3329  1.0332
 6375TIP3   OH240539   3.958   2.624  12.460  0.1761  0.1023 -0.6986
 6375TIP3    H140540   3.928   2.559  12.523 -1.0222 -0.2214 -1.5777
 6375TIP3    H240541   3.889   2.689  12.459  1.8827  2.0237  1.0153
 6376TIP3   OH240542   5.324   5.948  15.007 -0.6772 -0.0199 -0.9155
 6376TIP3    H140543   5.305   5.910  14.921 -0.3875  2.0403 -1.9233
 6376TIP3    H240544   5.252   6.009  15.023  0.3627  1.1482 -0.6475
 6377TIP3   OH240545   5.401   3.707   4.473 -0.0171 -0.0977 -0.5766
 6377TIP3    H140546   5.470   3.672   4.529 -0.4379  0.0727  0.0641
 6377TIP3    H240547   5.337   3.636   4.466 -0.2301  0.0732 -0.3801
 6378TIP3   OH240548   2.377   5.901  16.489 -0.0392 -0.2371  0.0567
 6378TIP3    H140549   2.463   5.859  16.482 -0.2537 -0.7573  0.4938
 6378TIP3    H240550   2.363   5.909  16.583 -0.3988  0.0070 -0.0193
 6379TIP3   OH240551   0.257   2.283   0.716 -0.2086  0.0887  0.1625
 6379TIP3    H140552   0.313   2.215   0.754  1.4406  1.2844 -0.0834
 6379TIP3    H240553   0.227   2.246   0.633  1.6570  0.1293 -0.5432
 6380TIP3   OH240554   0.505   1.950  11.793 -0.4878 -0.6136 -0.4240
 6380TIP3    H140555   0.564   2.007  11.745  1.2197 -1.5779  0.4859
 6380TIP3    H240556   0.549   1.935  11.877 -1.3050 -2.5583 -0.3146
 6381TIP3   OH240557   2.126   0.307   0.784  0.4439 -0.3567  0.1288
 6381TIP3    H140558   2.070   0.248   0.733 -1.6883  1.2268  0.5708
 6381TIP3    H240559   2.088   0.307   0.871  0.9786  0.9299  0.3718
 6382TIP3   OH240560   0.299   3.961  11.974  0.3894  0.1957 -0.7452
 6382TIP3    H140561   0.232   3.942  11.909  1.2883 -0.7331 -1.4086
 6382TIP3    H240562   0.274   4.046  12.010 -0.6335  0.2775 -1.6341
 6383TIP3   OH240563   3.929   6.263  16.473 -0.1417  0.0382 -0.2099
 6383TIP3    H140564   3.965   6.331  16.530  2.0952 -0.3164 -1.1447
 6383TIP3    H240565   3.953   6.181  16.515 -2.6510 -0.2303  0.7973
 6384TIP3   OH240566   5.905   0.336   2.369  0.4617 -0.0109 -0.0529
 6384TIP3    H140567   5.913   0.267   2.434 -0.7834 -0.1785 -0.0663
 6384TIP3    H240568   5.995   0.366   2.355  0.9971 -1.4876  0.0984
 6385TIP3   OH240569   4.757   2.332   1.922 -0.2190 -0.4967  0.1844
 6385TIP3    H140570   4.740   2.344   1.828 -0.6781 -0.1913  0.2981
 6385TIP3    H240571   4.846   2.300   1.927  0.4730  1.2794 -0.2636
 6386TIP3   OH240572   3.715   6.627  16.231 -0.6714  0.6436  0.1416
 6386TIP3    H140573   3.693   6.540  16.264 -0.8669 -0.3021 -2.3839
 6386TIP3    H240574   3.650   6.685  16.272 -1.6003 -0.6537  0.5349
 6387TIP3   OH240575   1.333   1.480  11.563  0.6689  0.4822  0.4123
 6387TIP3    H140576   1.377   1.472  11.648  0.4957  0.6649  0.5196
 6387TIP3    H240577   1.405   1.481  11.499  0.8385  1.0967  0.6115
 6388TIP3   OH240578   6.154   4.250   1.796  0.3503  0.0402  0.2422
 6388TIP3    H140579   6.090   4.301   1.747  1.4413  0.4305 -0.8257
 6388TIP3    H240580   6.136   4.269   1.888 -0.6188  0.6641 -0.0672
 6389TIP3   OH240581   6.198   1.255   1.268  0.2463  0.7136 -0.4307
 6389TIP3    H140582   6.271   1.286   1.214  1.0370  1.7408  1.1921
 6389TIP3    H240583   6.176   1.170   1.231  0.2184  1.7258 -2.8890
 6390TIP3   OH240584   4.247   1.859   4.339 -0.0714  0.2941  0.0077
 6390TIP3    H140585   4.336   1.890   4.350  0.6921 -1.7930 -0.0687
 6390TIP3    H240586   4.202   1.886   4.419  0.6764  1.1508  0.1482
 6391TIP3   OH240587   0.406   2.513  13.380  0.2156 -0.3084  0.1493
 6391TIP3    H140588   0.448   2.596  13.403 -3.4105  1.6712  0.0216
 6391TIP3    H240589   0.351   2.492  13.455 -0.6209 -1.4230 -0.7611
 6392TIP3   OH240590   0.209   5.411  13.835 -0.4723  0.1191 -0.0828
 6392TIP3    H140591   0.238   5.480  13.895  2.0807 -1.2950  0.3781
 6392TIP3    H240592   0.190   5.458  13.753 -0.8812  1.6473  0.8602
 6393TIP3   OH240593   0.033   2.920  12.993  0.3663  0.1684  0.1313
 6393TIP3    H140594   0.027   2.914  13.088 -0.4139 -0.3151  0.0623
 6393TIP3    H240595   0.072   2.837  12.966  0.1329  0.0995 -0.0014
 6394TIP3   OH240596   6.068   4.939  12.805  0.4303 -0.6249 -0.3598
 6394TIP3    H140597   6.120   4.867  12.842  0.5687 -0.1699  0.3533
 6394TIP3    H240598   5.980   4.903  12.795 -0.3114  0.0491  3.0801
 6395TIP3   OH240599   3.526   2.113   2.190 -0.1919  0.7902  0.1535
 6395TIP3    H140600   3.547   2.108   2.096 -2.1131 -1.7504 -0.1978
 6395TIP3    H240601   3.515   2.021   2.217 -0.6217  1.5395  2.6412
 6396TIP3   OH240602   2.959   4.852  12.419  0.5905 -0.4452  0.1448
 6396TIP3    H140603   2.899   4.816  12.354 -1.4338  0.0929  1.6814
 6396TIP3    H240604   3.044   4.854  12.374 -0.8719  0.5265 -2.6963
 6397TIP3   OH240605   3.237   1.860  14.682  0.4929 -0.6729 -0.6188
 6397TIP3    H140606   3.157   1.861  14.734  0.7741 -2.7195 -0.1167
 6397TIP3    H240607   3.299   1.914  14.732 -0.0044 -0.5916 -0.0867
 6398TIP3   OH240608   6.683   4.527  15.081  0.2523  0.0368  0.5977
 6398TIP3    H140609   6.617   4.465  15.051  0.6030  0.2034 -0.5626
 6398TIP3    H240610   6.717   4.566  15.000  0.0723  1.7034  1.3010
 6399TIP3   OH240611   0.053   5.297  13.521  0.1889 -0.5549 -0.1424
 6399TIP3    H140612  -0.024   5.318  13.467  0.6896  0.9411 -0.2775
 6399TIP3    H240613   0.018   5.292  13.610 -0.0099  0.4625 -0.1569
 6400TIP3   OH240614   3.949   5.798   4.239  0.3510 -0.1047  0.2071
 6400TIP3    H140615   4.001   5.756   4.307 -0.4330 -0.5800  0.5149
 6400TIP3    H240616   3.982   5.888   4.236  0.3636 -0.0640  1.2529
 6401TIP3   OH240617   1.863   6.486  13.454 -0.6165 -0.0575 -0.3533
 6401TIP3    H140618   1.780   6.523  13.423 -1.0607  0.7216  1.6726
 6401TIP3    H240619   1.917   6.562  13.476 -0.8419 -0.5317  2.0551
 6402TIP3   OH240620   1.839   2.452   2.748  0.1773  0.5444  0.6916
 6402TIP3    H140621   1.756   2.415   2.778  0.7940  1.1930  3.2766
 6402TIP3    H240622   1.851   2.414   2.661 -1.2428 -2.1066  1.5696
 6403TIP3   OH240623   4.812   2.365  15.578  0.4184 -0.5363  0.3055
 6403TIP3    H140624   4.733   2.375  15.631  1.2477 -1.4604  1.7520
 6403TIP3    H240625   4.789   2.403  15.493 -0.8858  1.1126  1.3618
 6404TIP3   OH240626   3.330   4.954   3.539  0.5373  0.0792  0.4806
 6404TIP3    H140627   3.388   4.949   3.462  0.6239 -0.9181  0.6151
 6404TIP3    H240628   3.337   4.869   3.581 -1.3054 -0.1747  0.3176
 6405TIP3   OH240629   2.335   6.160   3.715 -0.0864 -0.5536  0.2290
 6405TIP3    H140630   2.281   6.120   3.646  1.7409 -2.9255  0.1115
 6405TIP3    H240631   2.282   6.154   3.794 -0.6004 -1.4976 -0.1828
 6406TIP3   OH240632   6.624   2.973   1.691 -0.0793  0.2875 -0.5010
 6406TIP3    H140633   6.589   2.886   1.674  0.1145 -0.4345  2.5170
 6406TIP3    H240634   6.717   2.967   1.667  0.7614 -1.4128  2.9055
 6407TIP3   OH240635   2.943   1.830  12.015 -0.1852  0.2206 -0.1828
 6407TIP3    H140636   2.858   1.788  12.001  1.0057 -1.1975 -3.8151
 6407TIP3    H240637   3.006   1.759  12.008  1.5248  1.7420 -0.6068
 6408TIP3   OH240638   6.196   5.451  12.832  0.0655 -0.3040 -0.2003
 6408TIP3    H140639   6.283   5.436  12.869  0.2275  0.4633 -0.2638
 6408TIP3    H240640   6.152   5.366  12.838  0.5913 -0.5333  0.4214
 6409TIP3   OH240641   2.403   0.367   1.930 -0.1675 -0.7755 -0.0345
 6409TIP3    H140642   2.378   0.447   1.976  0.2613 -0.9674  0.5414
 6409TIP3    H240643   2.333   0.352   1.867 -0.8542 -0.6024  0.6770
 6410TIP3   OH240644   1.885   1.387   1.438 -0.2783  0.2098  0.0187
 6410TIP3    H140645   1.870   1.305   1.391 -3.1597  1.3839 -1.2337
 6410TIP3    H240646   1.940   1.439   1.378  1.4235 -0.7225  0.7495
 6411TIP3   OH240647   3.967   6.253  10.655  0.6745  0.3889 -0.5426
 6411TIP3    H140648   3.961   6.158  10.646  1.7765  0.3780 -1.1572
 6411TIP3    H240649   4.048   6.268  10.703 -0.5555  0.9210  1.4559
 6412TIP3   OH240650   0.473   4.464   0.941  0.2865 -0.6469 -0.0298
 6412TIP3    H140651   0.528   4.454   1.019  0.7401  0.9282 -0.1359
 6412TIP3    H240652   0.527   4.512   0.879 -0.1039 -1.8089 -1.3072
 6413TIP3   OH240653   5.078   2.621   2.896  0.1930 -0.4250 -0.0487
 6413TIP3    H140654   5.105   2.686   2.962 -0.0941  0.1401 -0.4798
 6413TIP3    H240655   5.020   2.562   2.943  0.0818 -0.0928  0.2365
 6414TIP3   OH240656   0.769   0.805   6.388  0.5141  0.3023 -0.1292
 6414TIP3    H140657   0.798   0.893   6.412  0.9913 -0.1200  0.9058
 6414TIP3    H240658   0.675   0.806   6.400  0.5100  0.6928 -0.1918
 6415TIP3   OH240659   6.307   2.297   2.843  0.0659  0.1581  0.5692
 6415TIP3    H140660   6.278   2.346   2.919  0.0988  0.4843  0.3719
 6415TIP3    H240661   6.385   2.344   2.812  0.3243 -0.2389  0.6132
 6416TIP3   OH240662   6.133   3.362   0.615  0.3228 -0.7727 -0.0629
 6416TIP3    H140663   6.222   3.393   0.599  0.6604 -2.0987 -0.9430
 6416TIP3    H240664   6.127   3.351   0.710  1.2368 -1.0564 -0.0359
 6417TIP3   OH240665   6.718   0.972  13.161 -0.4305 -0.0023 -0.8393
 6417TIP3    H140666   6.650   0.933  13.215 -0.8681  1.5774 -0.2198
 6417TIP3    H240667   6.795   0.977  13.218 -0.8007  1.3792 -0.4578
 6418TIP3   OH240668   3.831   5.757   1.132  0.1392 -0.3893  0.6340
 6418TIP3    H140669   3.737   5.766   1.114  0.5157  1.7814 -0.3978
 6418TIP3    H240670   3.860   5.688   1.073 -0.5842 -0.2076  0.0585
 6419TIP3   OH240671   0.680   5.351  14.423 -0.1536  0.0271 -0.6125
 6419TIP3    H140672   0.771   5.374  14.444  0.1657 -1.4493 -0.3195
 6419TIP3    H240673   0.684   5.319  14.333 -0.6077  1.1614 -1.0465
 6420TIP3   OH240674   0.705   5.674  16.772 -0.4127  0.0103  0.5427
 6420TIP3    H140675   0.634   5.613  16.753 -1.2343  1.3479 -0.9020
 6420TIP3    H240676   0.774   5.621  16.811 -1.2033 -1.7711 -0.4461
 6421TIP3   OH240677   5.012   4.483  10.943  0.5960 -0.2469  0.1423
 6421TIP3    H140678   5.098   4.441  10.946 -0.0020 -1.6362 -1.2806
 6421TIP3    H240679   4.964   4.433  10.877 -1.5586  0.0257  1.4589
 6422TIP3   OH240680   3.664   4.197   0.581 -0.3964 -0.8181  0.5685
 6422TIP3    H140681   3.666   4.125   0.517 -0.2444 -0.1987 -0.1363
 6422TIP3    H240682   3.575   4.230   0.577  0.2205  0.7525 -1.0795
 6423TIP3   OH240683   6.116   0.108   3.222  0.3191 -0.6455 -0.0258
 6423TIP3    H140684   6.086   0.170   3.288  1.1843 -1.5350  1.2112
 6423TIP3    H240685   6.178   0.158   3.169 -1.9019  0.6772 -1.4898
 6424TIP3   OH240686   0.596   6.500  15.623  0.4876 -0.5270 -0.0776
 6424TIP3    H140687   0.503   6.518  15.613  0.8077  1.3255  0.0722
 6424TIP3    H240688   0.609   6.488  15.717  0.7031  1.0355  0.0974
 6425TIP3   OH240689   6.207   4.501   5.249  0.2231  0.9074 -0.0240
 6425TIP3    H140690   6.214   4.407   5.229 -1.1566  1.2553 -2.2921
 6425TIP3    H240691   6.156   4.504   5.330  1.6300 -0.3382  0.9584
 6426TIP3   OH240692   4.633   4.316   2.310 -0.1642 -0.2760 -0.0448
 6426TIP3    H140693   4.587   4.375   2.249 -2.5275  0.8923  2.7463
 6426TIP3    H240694   4.564   4.259   2.344  0.8003  0.0762  2.6274
 6427TIP3   OH240695   1.084   0.643   0.289 -0.0730  0.2804  0.5802
 6427TIP3    H140696   1.092   0.729   0.329 -0.0989  0.1832  0.7990
 6427TIP3    H240697   1.172   0.606   0.294 -0.0285  0.3549  0.3464
 6428TIP3   OH240698   3.730   0.430  13.729  0.1169 -0.0073 -0.4997
 6428TIP3    H140699   3.762   0.342  13.750 -2.0527 -0.6726  0.1831
 6428TIP3    H240700   3.646   0.415  13.686  0.5979  1.6921 -2.0913
 6429TIP3   OH240701   6.253   3.739   2.612 -0.4247  0.6293  0.1096
 6429TIP3    H140702   6.314   3.809   2.589 -0.8000  0.4509 -1.4906
 6429TIP3    H240703   6.307   3.675   2.658  0.1378  1.4812  0.6525
 6430TIP3   OH240704   0.556   2.569  15.605 -0.2665  0.0886 -0.3355
 6430TIP3    H140705   0.531   2.579  15.513  0.9973 -0.0297 -0.6954
 6430TIP3    H240706   0.571   2.475  15.616 -0.3028  0.1176 -0.0250
 6431TIP3   OH240707   3.211   2.865   1.676 -0.4097 -0.2467 -0.4893
 6431TIP3    H140708   3.303   2.885   1.661 -0.1895 -0.5302  0.4238
 6431TIP3    H240709   3.212   2.778   1.715 -1.0030  0.0778  0.2679
 6432TIP3   OH240710   0.978   6.351   1.402 -0.0622  0.2001  0.3848
 6432TIP3    H140711   1.073   6.348   1.413  0.1749 -0.9827 -1.6760
 6432TIP3    H240712   0.952   6.259   1.397 -0.9619  0.5496 -1.7535
 6433TIP3   OH240713   4.949   5.969   4.747  0.3744 -0.3280  0.1354
 6433TIP3    H140714   4.954   6.064   4.763 -2.5792 -0.0054 -0.5974
 6433TIP3    H240715   4.929   5.962   4.654  2.4222 -1.7711 -0.2235
 6434TIP3   OH240716   2.917   5.536   5.906  0.4808 -0.6513  0.6737
 6434TIP3    H140717   2.877   5.560   5.823  2.8383 -1.3365 -0.7140
 6434TIP3    H240718   2.979   5.607   5.925  1.1651 -1.3209  0.9879
 6435TIP3   OH240719   6.512   1.839   1.054  0.5931 -0.6716 -0.3928
 6435TIP3    H140720   6.576   1.906   1.078  1.5090 -0.9150 -2.0826
 6435TIP3    H240721   6.434   1.888   1.028  1.0678 -0.2685 -1.0671
 6436TIP3   OH240722   3.728   1.352   4.387 -0.0021 -0.1791 -0.2451
 6436TIP3    H140723   3.695   1.364   4.476  0.9626 -1.7301  0.3464
 6436TIP3    H240724   3.731   1.440   4.350 -1.5916  0.3366  0.8356
 6437TIP3   OH240725   0.737   6.451   0.973 -0.1386 -0.0085  0.0608
 6437TIP3    H140726   0.819   6.497   0.994 -0.0170  0.1890 -0.8286
 6437TIP3    H240727   0.676   6.521   0.950 -0.0872 -0.2478 -0.8471
 6438TIP3   OH240728   5.888   5.819  16.242 -0.1548  0.0678 -0.1336
 6438TIP3    H140729   5.967   5.816  16.188  1.3708 -0.3449  2.0445
 6438TIP3    H240730   5.879   5.911  16.266  0.5005 -0.0942  0.7713
 6439TIP3   OH240731   1.543   1.681   5.075  0.0205  0.0564  0.2384
 6439TIP3    H140732   1.635   1.670   5.051 -0.0691  0.2266 -0.1864
 6439TIP3    H240733   1.495   1.658   4.995 -0.4340 -3.2657  1.3738
 6440TIP3   OH240734   5.868   1.568   1.417  0.1580  0.4503  0.6105
 6440TIP3    H140735   5.890   1.570   1.510  1.3453 -2.0281  0.4377
 6440TIP3    H240736   5.942   1.609   1.374  0.5333 -0.1856  0.6376
 6441TIP3   OH240737   1.339   3.387   3.935 -0.1373 -0.3059  0.6066
 6441TIP3    H140738   1.292   3.468   3.916  1.1760  0.0565 -1.1677
 6441TIP3    H240739   1.304   3.323   3.873 -0.9223 -1.0262  1.7714
 6442TIP3   OH240740   2.624   4.420   0.205  0.1001  0.1606 -0.3570
 6442TIP3    H140741   2.585   4.342   0.165 -0.9208 -0.4903  1.8347
 6442TIP3    H240742   2.713   4.395   0.226  0.1417 -0.0216 -0.7539
 6443TIP3   OH240743   5.598   0.841   1.858 -0.8257 -0.0087 -0.0808
 6443TIP3    H140744   5.564   0.886   1.935  1.5656 -1.5547  1.9575
 6443TIP3    H240745   5.583   0.748   1.875  2.4316 -0.5880 -0.0345
 6444TIP3   OH240746   0.834   4.479   4.692  0.3026  0.5047 -0.0073
 6444TIP3    H140747   0.820   4.494   4.785  1.4833 -0.5136  0.3593
 6444TIP3    H240748   0.842   4.384   4.684  0.3185  0.5883 -1.1297
 6445TIP3   OH240749   4.970   5.035   2.184  0.2966  0.3708 -0.2594
 6445TIP3    H140750   5.017   5.096   2.127 -0.8950  1.2898 -0.2873
 6445TIP3    H240751   4.948   4.961   2.128  4.1910 -1.4183  0.4466
 6446TIP3   OH240752   6.007   0.168   1.386 -0.0970  0.0945  0.2076
 6446TIP3    H140753   6.060   0.209   1.455  0.6760 -0.6370  0.0513
 6446TIP3    H240754   6.009   0.075   1.408 -0.5616 -0.0376 -0.3253
 6447TIP3   OH240755   1.017   1.346  15.386 -0.1390  0.1198 -0.0819
 6447TIP3    H140756   1.077   1.368  15.457 -1.1579  1.4481  0.3762
 6447TIP3    H240757   1.070   1.353  15.307  0.9863 -1.3214  0.5320
 6448TIP3   OH240758   2.634   6.329  13.836 -0.2799  0.5622  0.2286
 6448TIP3    H140759   2.637   6.353  13.743  1.5205  0.9087  0.3549
 6448TIP3    H240760   2.649   6.234  13.836 -0.6401  0.5047  0.1436
 6449TIP3   OH240761   2.964   0.834   0.610 -0.5815 -0.0149  0.8004
 6449TIP3    H140762   2.922   0.771   0.669  0.1733 -2.1807 -0.9052
 6449TIP3    H240763   3.057   0.830   0.633 -0.6291  1.1218  1.2336
 6450TIP3   OH240764   0.413   2.281  13.783  0.1940 -0.2867 -0.0089
 6450TIP3    H140765   0.465   2.348  13.826  3.7228 -2.3852 -0.8158
 6450TIP3    H240766   0.448   2.276  13.694 -0.3098 -2.8605 -0.1042
 6451TIP3   OH240767   4.564   4.462  11.986 -0.4413  0.0006  0.2482
 6451TIP3    H140768   4.476   4.469  11.947 -0.1445  2.3724 -0.1206
 6451TIP3    H240769   4.555   4.396  12.054 -1.5601 -2.5561 -2.3026
 6452TIP3   OH240770   2.450   3.269  14.785  0.3622  0.6566 -0.0019
 6452TIP3    H140771   2.366   3.312  14.769 -0.0957 -0.5397 -0.8395
 6452TIP3    H240772   2.500   3.333  14.837 -1.0052  1.4250  0.3849
 6453TIP3   OH240773   3.562   6.720   4.637 -0.7759  0.3488 -0.2317
 6453TIP3    H140774   3.609   6.787   4.588  3.1689 -3.0150 -1.3279
 6453TIP3    H240775   3.613   6.709   4.718 -1.4171 -1.2537 -0.0250
 6454TIP3   OH240776   4.583   0.136   2.906 -0.1446  0.4362  0.2739
 6454TIP3    H140777   4.588   0.172   2.817  0.2746  0.7468  0.4172
 6454TIP3    H240778   4.579   0.214   2.962  0.6077  0.2646  0.5805
 6455TIP3   OH240779   4.207   2.149   5.617 -0.2099 -0.8168  0.1308
 6455TIP3    H140780   4.113   2.163   5.608 -0.0483 -0.9696 -2.0326
 6455TIP3    H240781   4.232   2.105   5.536  2.0087  0.7068 -0.0444
 6456TIP3   OH240782   0.717   0.993   3.873 -0.0331  0.2777 -0.0908
 6456TIP3    H140783   0.644   1.050   3.898  0.7325  1.0170  0.5320
 6456TIP3    H240784   0.708   0.916   3.930 -0.2669  0.4177  0.0613
 6457TIP3   OH240785   5.979   0.978  14.002 -0.1735 -0.3627 -0.1287
 6457TIP3    H140786   5.992   1.073  14.001 -1.0151 -0.2191 -2.7462
 6457TIP3    H240787   6.017   0.949  14.085 -1.4288  2.4428  1.4978
 6458TIP3   OH240788   3.925   0.215  11.950 -0.0621 -0.3602  0.3727
 6458TIP3    H140789   3.846   0.189  11.996 -0.4062  0.6684  0.3703
 6458TIP3    H240790   3.954   0.136  11.904 -0.2837 -1.1126  1.5233
 6459TIP3   OH240791   3.647   4.192  12.277  0.3805 -0.0384  0.3856
 6459TIP3    H140792   3.741   4.201  12.296  0.3168 -0.0333  0.7020
 6459TIP3    H240793   3.619   4.281  12.256  0.2669  0.1006  1.1252
 6460TIP3   OH240794   0.957   1.206  13.541 -0.0167 -0.3414 -0.0398
 6460TIP3    H140795   1.042   1.240  13.514 -0.7351 -0.1988 -2.2923
 6460TIP3    H240796   0.944   1.128  13.486 -2.3720  1.0120 -1.5008
 6461TIP3   OH240797   6.760   5.953   4.910  0.1489 -0.0643  0.3423
 6461TIP3    H140798   6.834   6.011   4.888 -0.9419  1.0968 -0.3331
 6461TIP3    H240799   6.714   5.940   4.827  0.1326 -1.5872  0.5705
 6462TIP3   OH240800   0.697   4.467   1.111  0.7718 -0.4061  0.0251
 6462TIP3    H140801   0.721   4.553   1.146  2.0783 -1.6138  2.2080
 6462TIP3    H240802   0.660   4.420   1.186  1.1575 -2.1730 -0.8576
 6463TIP3   OH240803   3.977   6.031  14.201  0.4268  0.2320 -0.0232
 6463TIP3    H140804   3.906   6.007  14.261  1.4013  2.1848  2.0165
 6463TIP3    H240805   3.933   6.055  14.120 -1.0201 -1.4183  0.2455
 6464TIP3   OH240806   3.345   0.425   2.098 -0.1630  0.7368 -0.5654
 6464TIP3    H140807   3.323   0.496   2.039 -0.2068  0.2469 -1.1455
 6464TIP3    H240808   3.422   0.383   2.058 -1.6942 -1.1355 -1.5970
 6465TIP3   OH240809   4.787   0.597  16.776 -0.4433 -0.3306  0.1128
 6465TIP3    H140810   4.751   0.610  16.864  0.4128 -0.2781  0.4610
 6465TIP3    H240811   4.777   0.682  16.733 -0.5184 -0.2473  0.2949
 6466TIP3   OH240812   0.611   2.950   3.331 -0.1069 -0.4322  0.2258
 6466TIP3    H140813   0.571   2.879   3.280 -0.3056  1.8975 -3.0108
 6466TIP3    H240814   0.539   2.985   3.383 -1.2119  0.5663 -1.9042
 6467TIP3   OH240815   1.309   1.494   4.973  0.0647 -0.1996  0.1850
 6467TIP3    H140816   1.258   1.423   4.935  2.1299 -1.3207 -0.5811
 6467TIP3    H240817   1.309   1.476   5.067  0.0980 -0.8839  0.0515
 6468TIP3   OH240818   6.320   2.056  16.634 -0.3730 -0.1311  0.4049
 6468TIP3    H140819   6.256   2.114  16.676  1.2504  1.8082  0.2773
 6468TIP3    H240820   6.293   2.055  16.542 -0.2016  0.7686  0.3327
 6469TIP3   OH240821   6.720   5.816   0.438 -0.0940 -0.8486  0.3272
 6469TIP3    H140822   6.686   5.792   0.351  1.1842  0.0777 -0.4495
 6469TIP3    H240823   6.668   5.764   0.499 -0.2990 -2.3297 -1.0597
 6470TIP3   OH240824   1.739   2.963  15.387  0.4826 -0.2548 -0.0313
 6470TIP3    H140825   1.660   2.911  15.370  0.7573 -1.2196  1.6569
 6470TIP3    H240826   1.807   2.921  15.335 -0.2056  0.9184 -1.9528
 6471TIP3   OH240827   1.093   6.163   4.331 -0.2475  0.5353 -0.2824
 6471TIP3    H140828   1.008   6.204   4.345 -1.5556 -1.9790 -0.4279
 6471TIP3    H240829   1.110   6.175   4.237 -0.6765  0.6470 -0.3467
 6472TIP3   OH240830   6.241   2.647   6.005 -0.0831  0.4744 -0.3479
 6472TIP3    H140831   6.272   2.561   6.034  0.1561  0.3974 -0.8140
 6472TIP3    H240832   6.150   2.651   6.033  0.3551  0.7100  1.0548
 6473TIP3   OH240833   0.375   0.264   2.197  0.9385  0.4424  0.5190
 6473TIP3    H140834   0.389   0.265   2.292  1.0293 -1.9038  0.5427
 6473TIP3    H240835   0.460   0.239   2.160  0.5455  0.0473 -0.1203
 6474TIP3   OH240836   4.652   6.667   2.579 -0.0740 -0.1217 -0.0133
 6474TIP3    H140837   4.732   6.714   2.601  0.8205 -1.6957  0.1869
 6474TIP3    H240838   4.659   6.584   2.626 -1.1339 -0.8800 -1.1521
 6475TIP3   OH240839   0.123   3.681   0.968 -0.2814 -0.2357  0.0842
 6475TIP3    H140840   0.033   3.710   0.957  0.1368  0.9271 -0.4526
 6475TIP3    H240841   0.133   3.665   1.061 -2.0969 -4.0126 -0.2817
 6476TIP3   OH240842   1.046   1.439   3.849 -0.1640  0.7568 -0.6679
 6476TIP3    H140843   0.996   1.448   3.768 -1.6516 -1.1880  0.0148
 6476TIP3    H240844   1.026   1.518   3.899 -2.4908  0.0536 -0.4492
 6477TIP3   OH240845   5.781   6.601  15.281 -0.0185  0.2912 -0.3573
 6477TIP3    H140846   5.708   6.664  15.277  0.5934  0.9523 -1.5277
 6477TIP3    H240847   5.832   6.628  15.358 -1.0043 -0.1817  0.4721
 6478TIP3   OH240848   5.273   2.833   1.550  0.7804 -0.0896  0.2311
 6478TIP3    H140849   5.204   2.792   1.496  1.3811 -2.0668  0.9168
 6478TIP3    H240850   5.287   2.918   1.509 -0.2823 -0.6827 -1.4628
 6479TIP3   OH240851   4.830   6.755  14.460  0.4725 -0.3437  0.1033
 6479TIP3    H140852   4.769   6.806  14.512  1.2947 -1.2530  2.0118
 6479TIP3    H240853   4.916   6.792  14.480  0.9558 -1.6776  0.5950
 6480TIP3   OH240854   2.703   0.782   2.265  0.4601 -0.2393  0.3183
 6480TIP3    H140855   2.712   0.718   2.194 -0.2680 -1.1940  1.0587
 6480TIP3    H240856   2.762   0.853   2.241 -0.6329 -0.0118 -1.8255
 6481TIP3   OH240857   2.837   5.093   4.399 -0.2817  0.0224 -0.4869
 6481TIP3    H140858   2.871   5.007   4.424  0.4406  0.6933  0.9503
 6481TIP3    H240859   2.845   5.096   4.304 -0.7787 -1.6879 -0.5925
 6482TIP3   OH240860   2.554   5.541  15.805 -0.0073 -0.4404  0.3859
 6482TIP3    H140861   2.521   5.512  15.720  0.0343 -0.8347  0.5002
 6482TIP3    H240862   2.573   5.460  15.852 -1.1777 -0.2533  1.2171
 6483TIP3   OH240863   1.708   1.210   3.338 -0.4887  0.3614  0.2745
 6483TIP3    H140864   1.636   1.150   3.359  1.2690 -0.6996  3.5720
 6483TIP3    H240865   1.675   1.296   3.365 -1.7352  0.4045 -1.3152
 6484TIP3   OH240866   1.632   2.543   0.383  0.2984  0.2343 -0.2246
 6484TIP3    H140867   1.705   2.605   0.392  0.5575 -0.0787 -0.1614
 6484TIP3    H240868   1.668   2.472   0.330  0.2286 -0.2205  0.3376
 6485TIP3   OH240869   0.862   1.178   4.736  0.2263 -0.0044 -0.0509
 6485TIP3    H140870   0.808   1.226   4.798  1.1592  1.5287 -0.3784
 6485TIP3    H240871   0.802   1.152   4.666 -0.5181 -0.3436  0.7070
 6486TIP3   OH240872   6.678   0.005  14.811  0.8035  0.1670  0.3083
 6486TIP3    H140873   6.711   0.088  14.846 -0.5109 -0.2695  2.7127
 6486TIP3    H240874   6.708  -0.061  14.874  0.3786 -0.9516 -0.6528
 6487TIP3   OH240875   1.825   0.863   1.977 -0.0728  0.3435  0.1089
 6487TIP3    H140876   1.814   0.847   1.884  1.5667  3.4814 -0.7135
 6487TIP3    H240877   1.919   0.856   1.992 -0.1787  1.1071  1.2540
 6488TIP3   OH240878   3.588   6.575   1.126  0.5148 -0.2014  0.6149
 6488TIP3    H140879   3.663   6.586   1.068 -0.2705  0.3767 -0.3162
 6488TIP3    H240880   3.624   6.533   1.205  1.8300  0.2150  0.2505
 6489TIP3   OH240881   4.468   1.371  14.313 -0.3428 -0.3659  0.0163
 6489TIP3    H140882   4.392   1.428  14.303  1.9153  2.5860 -1.2556
 6489TIP3    H240883   4.498   1.385  14.403 -2.2999 -2.9444  1.1352
 6490TIP3   OH240884   4.109   4.789   5.475 -0.6844 -0.1675 -0.1950
 6490TIP3    H140885   4.078   4.876   5.502 -0.6308 -0.1206 -0.2855
 6490TIP3    H240886   4.029   4.741   5.454 -0.7169 -0.1510 -0.1111
 6491TIP3   OH240887   0.578   3.229   2.767 -0.0025 -0.3412 -0.2107
 6491TIP3    H140888   0.589   3.178   2.687 -0.5713 -0.1920 -0.3844
 6491TIP3    H240889   0.644   3.194   2.826  0.1412 -0.7407 -0.6008
 6492TIP3   OH240890   6.346   4.841   1.723  0.2621 -0.6240 -0.5275
 6492TIP3    H140891   6.283   4.907   1.752 -1.8333 -1.7961 -2.1903
 6492TIP3    H240892   6.343   4.773   1.790  0.2960 -0.3574 -0.2534
 6493TIP3   OH240893   1.396   2.816   3.035 -0.3026  0.2110 -0.1120
 6493TIP3    H140894   1.387   2.907   3.064  2.4146  0.8413 -1.1403
 6493TIP3    H240895   1.323   2.804   2.974 -1.6378  1.1909  1.2640
 6494TIP3   OH240896   1.885   1.406  11.072 -0.5826 -0.4317 -0.3505
 6494TIP3    H140897   1.948   1.476  11.055 -1.1736 -0.6812 -3.8695
 6494TIP3    H240898   1.935   1.341  11.121  1.4949  0.0139 -1.8107
 6495TIP3   OH240899   3.582   3.146  11.505  0.4325  0.2853 -0.0946
 6495TIP3    H140900   3.565   3.081  11.574 -0.2588  1.8095  1.2142
 6495TIP3    H240901   3.664   3.187  11.532  0.9151 -0.0961 -0.9723
 6496TIP3   OH240902   0.483   6.048  15.372  0.0061  0.2549  0.5488
 6496TIP3    H140903   0.454   6.112  15.436 -0.4683  1.1490 -0.5440
 6496TIP3    H240904   0.575   6.031  15.395 -0.1572  0.5810  1.4451
 6497TIP3   OH240905   4.970   4.091  14.813  0.3957 -0.4316 -0.1640
 6497TIP3    H140906   4.891   4.115  14.862  0.0420 -2.1933  0.1671
 6497TIP3    H240907   4.984   4.163  14.752 -0.3249  0.8396  1.1512
 6498TIP3   OH240908   1.826   1.007   3.188 -0.0300 -0.2380  0.4644
 6498TIP3    H140909   1.875   0.958   3.254  0.4946  0.1880  0.3938
 6498TIP3    H240910   1.789   1.081   3.235  0.4283  0.1220  0.2582
 6499TIP3   OH240911   0.332   4.832   3.567  0.7024 -0.3637 -0.3708
 6499TIP3    H140912   0.246   4.812   3.602  0.5045  0.3561 -0.4362
 6499TIP3    H240913   0.383   4.860   3.642  0.5888  0.1574 -0.4854
 6500TIP3   OH240914   0.581   5.512  12.439  0.0315  0.7952  0.0084
 6500TIP3    H140915   0.663   5.560  12.451 -0.2820  1.6655 -1.2156
 6500TIP3    H240916   0.515   5.580  12.425 -0.6338  0.0590 -0.4836
 6501TIP3   OH240917   2.504   6.180   4.738  0.2129  0.5674 -0.5415
 6501TIP3    H140918   2.417   6.154   4.767  1.2446 -2.6188 -0.0173
 6501TIP3    H240919   2.547   6.212   4.817  0.5333 -0.9462 -0.0710
 6502TIP3   OH240920   3.489   0.956   5.134 -0.7794  0.2787  0.2027
 6502TIP3    H140921   3.526   0.875   5.168  0.7072  1.2959  1.0980
 6502TIP3    H240922   3.518   0.959   5.043 -0.7870 -0.1647  0.1851
 6503TIP3   OH240923   4.133   6.661   1.224  0.0246 -0.1914  0.6342
 6503TIP3    H140924   4.124   6.567   1.244  1.3828  0.0886  2.6425
 6503TIP3    H240925   4.226   6.674   1.211 -0.2340  0.7783 -0.3295
 6504TIP3   OH240926   3.739   6.410   3.121  0.0770  0.1895  0.3020
 6504TIP3    H140927   3.743   6.503   3.142  2.5482 -0.0241  0.8882
 6504TIP3    H240928   3.774   6.366   3.198  0.4107 -1.1343 -0.5814
 6505TIP3   OH240929   6.026   4.216   3.111  0.0326 -0.4697  0.1544
 6505TIP3    H140930   5.942   4.175   3.090 -0.9733  0.8580  1.4682
 6505TIP3    H240931   6.068   4.156   3.172  0.1507 -1.2542 -0.6941
 6506TIP3   OH240932   6.428   0.502  12.999  0.2542  0.0723 -0.3402
 6506TIP3    H140933   6.453   0.586  13.038  1.1896 -0.3258 -0.0667
 6506TIP3    H240934   6.510   0.454  12.993 -0.2997 -0.8571 -0.4196
 6507TIP3   OH240935   1.542   6.641  12.619 -0.7708 -0.6164  0.1465
 6507TIP3    H140936   1.470   6.699  12.595  0.9519  1.2106 -0.7615
 6507TIP3    H240937   1.604   6.697  12.666 -0.0273 -2.1941  1.0956
 6508TIP3   OH240938   4.135   3.665   2.724 -0.4621 -0.2597 -0.2648
 6508TIP3    H140939   4.128   3.572   2.746 -0.2309 -0.0468  0.7171
 6508TIP3    H240940   4.220   3.673   2.680 -1.2291 -0.8029 -1.9142
 6509TIP3   OH240941   1.766   6.214  11.875  0.2260 -0.0894  0.3912
 6509TIP3    H140942   1.788   6.128  11.911 -1.2525 -0.8147 -0.4105
 6509TIP3    H240943   1.789   6.207  11.782  1.6520  0.9415  0.6502
 6510TIP3   OH240944   0.858   6.297   3.620 -0.3221 -0.2376  1.4754
 6510TIP3    H140945   0.774   6.318   3.578  0.7388  2.0609  0.4042
 6510TIP3    H240946   0.869   6.203   3.606 -1.7498 -0.1897 -0.1861
 6511TIP3   OH240947   6.203   6.531   2.232 -0.5168  0.7533 -0.3515
 6511TIP3    H140948   6.182   6.485   2.151 -1.2973 -0.1437  0.3413
 6511TIP3    H240949   6.152   6.613   2.227 -4.2088 -1.3244  1.2286
 6512TIP3   OH240950   4.591   5.825   3.562 -0.2707  0.3959 -0.3287
 6512TIP3    H140951   4.666   5.884   3.561  0.8159 -0.9531 -2.6647
 6512TIP3    H240952   4.629   5.737   3.561 -1.8860 -0.3557  0.6501
 6513TIP3   OH240953   0.697   1.116  14.263  0.1171  0.4210  0.5868
 6513TIP3    H140954   0.759   1.047  14.287 -0.1987  0.8496  2.6636
 6513TIP3    H240955   0.750   1.178  14.211  1.1519  0.1794  1.3322
 6514TIP3   OH240956   6.366   1.955   1.698 -0.1296 -0.1394 -0.5387
 6514TIP3    H140957   6.376   1.873   1.747 -1.7296 -0.8254 -1.3166
 6514TIP3    H240958   6.302   1.934   1.630 -0.1698  1.6234 -1.0594
 6515TIP3   OH240959   0.089   5.945  13.314 -0.2302  0.8321 -0.1599
 6515TIP3    H140960   0.051   5.873  13.364 -0.3757  0.3973 -0.8899
 6515TIP3    H240961   0.014   5.992  13.277 -0.0674  0.0016 -1.5610
 6516TIP3   OH240962   2.258   1.603  12.073  0.2516 -0.3835  0.4483
 6516TIP3    H140963   2.217   1.582  12.157 -0.4368 -2.4670 -0.3956
 6516TIP3    H240964   2.351   1.612  12.094  0.4214 -3.2040  1.0422
 6517TIP3   OH240965   3.758   4.407   5.639 -0.0568  0.0825  0.3102
 6517TIP3    H140966   3.730   4.489   5.682 -0.0915 -0.4593  1.3487
 6517TIP3    H240967   3.680   4.377   5.592 -0.5200 -0.1445  1.1943
 6518TIP3   OH240968   6.563   5.358   5.364 -0.3862 -0.0522  0.0959
 6518TIP3    H140969   6.496   5.365   5.431 -0.3479  0.0247  0.1264
 6518TIP3    H240970   6.514   5.342   5.283 -0.3967 -0.7047  0.2291
 6519TIP3   OH240971   4.165   0.896   1.513 -0.0174  0.8736 -0.1471
 6519TIP3    H140972   4.117   0.952   1.451 -0.1167  0.4359 -0.4678
 6519TIP3    H240973   4.251   0.883   1.473  0.1454  1.1219  0.1178
 6520TIP3   OH240974   2.534   0.506  12.425 -0.2352 -0.0119  0.0436
 6520TIP3    H140975   2.546   0.441  12.355  2.4683  0.0119  0.4392
 6520TIP3    H240976   2.596   0.576  12.403 -1.3114  1.2620  1.0091
 6521TIP3   OH240977   5.387   4.177   0.803  0.3482  0.3496 -0.3414
 6521TIP3    H140978   5.458   4.175   0.867 -0.3462 -2.8126  0.4368
 6521TIP3    H240979   5.315   4.222   0.848 -0.6492 -3.1450  1.7936
 6522TIP3   OH240980   5.055   1.193   4.592 -0.7114 -0.1265 -0.4007
 6522TIP3    H140981   5.035   1.282   4.619  0.1107  0.5909 -2.0748
 6522TIP3    H240982   5.041   1.140   4.671 -0.0433  1.6306  0.9229
 6523TIP3   OH240983   0.277   3.608  15.607 -0.1101 -0.0571  0.1868
 6523TIP3    H140984   0.213   3.675  15.629 -0.4895 -0.9327  1.8740
 6523TIP3    H240985   0.251   3.532  15.659 -0.1326 -1.7720 -2.2101
 6524TIP3   OH240986   4.003   6.539  12.183 -0.3625  0.2383 -0.7025
 6524TIP3    H140987   3.929   6.597  12.172 -0.8057 -0.1542  0.2148
 6524TIP3    H240988   4.077   6.587  12.146 -0.9267  0.9304 -0.9334
 6525TIP3   OH240989   1.027   1.758   2.195 -0.5521  0.1478 -0.3481
 6525TIP3    H140990   1.051   1.832   2.250  3.5459 -1.3047 -0.0676
 6525TIP3    H240991   1.072   1.774   2.112 -0.5380 -1.4971 -0.6652
 6526TIP3   OH240992   4.035   5.304   0.098 -0.6353 -0.0418  0.1182
 6526TIP3    H140993   3.950   5.264   0.083 -0.4912 -0.4659  0.4061
 6526TIP3    H240994   4.015   5.392   0.131 -0.9840 -0.7045  1.7460
 6527TIP3   OH240995   5.730   5.468  12.203  0.1709  0.0487 -0.1940
 6527TIP3    H140996   5.695   5.542  12.253  0.7509 -0.6657  1.2921
 6527TIP3    H240997   5.695   5.480  12.115 -1.1744  1.1336  0.4721
 6528TIP3   OH240998   5.391   4.697  15.067  0.9120 -0.0045 -0.5796
 6528TIP3    H140999   5.483   4.671  15.061  1.3663  0.9820  1.5669
 6528TIP3    H241000   5.371   4.693  15.160 -0.9741  0.6487 -0.9341
 6529TIP3   OH241001   6.524   6.214  12.557 -0.2393  0.1011 -0.1033
 6529TIP3    H141002   6.473   6.264  12.621  1.1577  1.0309  0.3047
 6529TIP3    H241003   6.554   6.137  12.606 -0.3031  0.1299 -0.0169
 6530TIP3   OH241004   2.813   1.264  12.031  0.0119  0.2445  0.0306
 6530TIP3    H141005   2.811   1.190  12.091  1.5648  0.4238  0.3328
 6530TIP3    H241006   2.721   1.290  12.021 -0.6868 -2.6464 -1.2856
 6531TIP3   OH241007   3.261   1.929  16.653 -0.4942 -0.0891 -0.3587
 6531TIP3    H141008   3.334   1.942  16.593 -0.2514 -1.7212 -0.4239
 6531TIP3    H241009   3.200   2.000  16.633  1.2517  1.5484 -0.0111
 6532TIP3   OH241010   5.345   5.794   2.745 -0.4414  0.0951  0.0384
 6532TIP3    H141011   5.269   5.800   2.687 -1.9017 -1.4356  1.7424
 6532TIP3    H241012   5.320   5.845   2.822 -0.1433 -1.2464  1.0347
 6533TIP3   OH241013   6.441   4.330   2.742 -0.1344  0.5971 -0.3865
 6533TIP3    H141014   6.387   4.392   2.791 -0.4702 -0.7338  0.9843
 6533TIP3    H241015   6.398   4.246   2.755  0.9362 -0.1034 -1.2745
 6534TIP3   OH241016   1.658   2.493  14.350 -0.0905 -0.2833 -0.4063
 6534TIP3    H141017   1.619   2.570  14.308  0.2739 -0.8244 -1.7481
 6534TIP3    H241018   1.693   2.527  14.432 -0.6113  0.8356 -0.6286
 6535TIP3   OH241019   5.165   3.027  16.905 -0.4830 -0.0068  0.1093
 6535TIP3    H141020   5.114   2.999  16.981 -0.6146 -1.4893 -0.4986
 6535TIP3    H241021   5.245   2.975  16.909 -1.1641 -1.2591 -1.5914
 6536TIP3   OH241022   0.591   0.083   2.307  0.1537 -0.4624 -0.1751
 6536TIP3    H141023   0.651   0.116   2.240  0.2981  0.9876  0.6420
 6536TIP3    H241024   0.586   0.154   2.371 -0.9729 -1.3271  0.7087
 6537TIP3   OH241025   4.842   1.047   2.348  0.1329  0.0190 -0.2662
 6537TIP3    H141026   4.846   1.069   2.441 -1.6087 -0.6930 -0.0036
 6537TIP3    H241027   4.749   1.057   2.325 -0.1358 -3.4629 -0.9991
 6538TIP3   OH241028   6.516   6.530  15.270 -0.5912  0.2285  0.3414
 6538TIP3    H141029   6.489   6.594  15.204  1.7496  0.4547 -0.4665
 6538TIP3    H241030   6.611   6.541  15.276 -0.2117 -2.7952  0.5904
 6539TIP3   OH241031   5.640   3.375  12.482  0.3590 -0.1494 -0.6594
 6539TIP3    H141032   5.599   3.380  12.396 -0.1822  1.6279 -0.3201
 6539TIP3    H241033   5.734   3.385  12.464  0.1035  2.1138 -0.9171
 6540TIP3   OH241034   3.907   1.704  13.940 -0.3779 -0.6885  0.6874
 6540TIP3    H141035   3.833   1.652  13.971 -0.7178 -0.7532 -0.2226
 6540TIP3    H241036   3.899   1.703  13.844  1.1101 -1.1589  0.5589
 6541TIP3   OH241037   3.111   5.992  12.181 -0.0608 -0.4082  0.0418
 6541TIP3    H141038   3.019   5.974  12.202  0.1509  0.9432  2.3895
 6541TIP3    H241039   3.159   5.957  12.256  1.1121  0.9842 -0.0456
 6542TIP3   OH241040   3.919   3.637  15.464  0.0635  0.5710 -0.4348
 6542TIP3    H141041   3.875   3.602  15.542  2.7368  0.3303  1.0343
 6542TIP3    H241042   3.905   3.732  15.469 -3.3559  0.1973 -1.9821
 6543TIP3   OH241043   6.012   4.727   3.531  0.0467  0.5368 -0.0817
 6543TIP3    H141044   5.957   4.740   3.608  0.8257 -0.2776  0.6280
 6543TIP3    H241045   5.968   4.658   3.482 -0.9554  1.7060 -0.8654
 6544TIP3   OH241046   5.326   1.092   2.447 -0.0536 -0.3653  0.3418
 6544TIP3    H141047   5.409   1.072   2.405  0.5082  2.8602 -0.1731
 6544TIP3    H241048   5.270   1.016   2.428  3.1378 -3.2643  1.9255
 6545TIP3   OH241049   5.033   3.618  14.647  0.7716  0.2041  0.3646
 6545TIP3    H141050   4.958   3.672  14.675 -1.3996 -1.9650 -1.1090
 6545TIP3    H241051   5.091   3.680  14.602 -1.4475  1.4356 -0.8875
 6546TIP3   OH241052   0.723   6.743   4.385 -0.5204  0.4497 -0.2395
 6546TIP3    H141053   0.806   6.753   4.431 -0.1754  1.9424 -1.1510
 6546TIP3    H241054   0.665   6.808   4.425 -0.0703  2.1068 -2.2104
 6547TIP3   OH241055   1.022   5.587   4.339  0.4401  0.4674 -0.3715
 6547TIP3    H141056   1.068   5.668   4.362 -0.3135  1.2101 -1.4610
 6547TIP3    H241057   0.929   5.612   4.338  0.1446 -0.5918  0.0023
 6548TIP3   OH241058   5.798   3.673   3.392 -0.3031 -0.5477 -0.2770
 6548TIP3    H141059   5.878   3.619   3.395 -0.6818 -1.0701  0.8051
 6548TIP3    H241060   5.757   3.649   3.310 -0.3269 -1.7407  0.0651
 6549TIP3   OH241061   4.746   6.025   4.301  0.3012 -0.3344  0.4392
 6549TIP3    H141062   4.781   6.100   4.252 -1.2023  0.7894  1.0615
 6549TIP3    H241063   4.683   5.984   4.241 -0.2972  0.0418  0.8131
 6550TIP3   OH241064   2.679   1.575  15.813 -0.3702 -0.5511  0.2930
 6550TIP3    H141065   2.733   1.508  15.855  1.4312  1.2302  0.8776
 6550TIP3    H241066   2.740   1.628  15.762 -2.0058 -0.3471 -1.5125
 6551TIP3   OH241067   6.211   0.643   0.991 -0.1686  0.5018  0.6060
 6551TIP3    H141068   6.253   0.676   1.071 -0.7758  0.9457  0.7441
 6551TIP3    H241069   6.283   0.604   0.942  0.6127  2.1496  0.3855
 6552TIP3   OH241070   5.065   5.244  15.868 -0.6057 -0.4793  0.3342
 6552TIP3    H141071   5.003   5.254  15.941 -1.6834 -1.0949 -0.4806
 6552TIP3    H241072   5.151   5.260  15.907 -1.3702  1.7260  1.2226
 6553TIP3   OH241073   5.356   0.380   2.569 -0.2578  0.0698  0.5690
 6553TIP3    H141074   5.373   0.290   2.541  0.7125  0.2941  0.4315
 6553TIP3    H241075   5.442   0.416   2.591 -0.8038  0.4837  2.0921
 6554TIP3   OH241076   5.522   0.300  11.289 -0.3923  0.1781  0.0492
 6554TIP3    H141077   5.514   0.396  11.286 -1.0811  0.0939 -1.9311
 6554TIP3    H241078   5.615   0.284  11.304 -0.4171  1.1582  1.3645
 6555TIP3   OH241079   1.172   1.292  16.028  0.0782 -0.4131 -0.2294
 6555TIP3    H141080   1.119   1.214  16.044 -0.3670  0.5415  3.3580
 6555TIP3    H241081   1.108   1.361  16.009  0.3526 -0.3654 -1.0160
 6556TIP3   OH241082   0.695   6.201  12.075 -0.4496  0.2083 -0.0129
 6556TIP3    H141083   0.726   6.201  12.165 -3.1534  1.0543  0.9591
 6556TIP3    H241084   0.697   6.293  12.049 -1.0512  0.1372 -0.3244
 6557TIP3   OH241085   4.891   5.848   0.982  0.0765 -0.2878 -0.7657
 6557TIP3    H141086   4.879   5.935   0.944  1.6539  0.3461  0.1164
 6557TIP3    H241087   4.805   5.824   1.016 -0.4128  0.8342 -1.2003
 6558TIP3   OH241088   6.700   4.494  16.116  0.6158 -0.2660  0.0932
 6558TIP3    H141089   6.753   4.427  16.158 -0.1781 -1.6885 -1.0889
 6558TIP3    H241090   6.727   4.491  16.024  0.8817  1.3655  0.0944
 6559TIP3   OH241091   3.552   1.792  14.562 -0.4972 -0.3337 -0.5187
 6559TIP3    H141092   3.475   1.826  14.608 -1.1962 -2.0679 -0.3652
 6559TIP3    H241093   3.623   1.851  14.587 -0.6396 -1.7473  3.5462
 6560TIP3   OH241094   6.704   1.447  13.807 -0.2214  0.3005  0.3736
 6560TIP3    H141095   6.675   1.356  13.798  1.4221 -0.3729  1.6280
 6560TIP3    H241096   6.627   1.493  13.843 -0.5860 -0.9060  1.1755
 6561TIP3   OH241097   3.474   6.288  10.699 -0.0994  0.4465  0.2052
 6561TIP3    H141098   3.429   6.356  10.750  1.1033  1.0279  0.5050
 6561TIP3    H241099   3.448   6.306  10.608 -1.8201 -0.2671  0.5363
 6562TIP3   OH241100   0.028   2.849  13.617  0.3970 -0.4032  0.7522
 6562TIP3    H141101   0.065   2.903  13.687  1.3460 -1.0537  0.7603
 6562TIP3    H241102   0.098   2.843  13.552 -0.3266 -0.1525 -0.0691
 6563TIP3   OH241103   3.986   4.451  14.294  0.6516 -0.8136 -0.0892
 6563TIP3    H141104   4.030   4.513  14.352 -4.1627  1.3463  1.4947
 6563TIP3    H241105   4.021   4.471  14.207  0.5409  2.9885  0.6419
 6564TIP3   OH241106   6.219   6.721  17.116  0.0361  0.1296 -0.1101
 6564TIP3    H141107   6.267   6.758  17.043  2.2191 -1.6250  0.3745
 6564TIP3    H241108   6.158   6.659  17.076  0.2689  0.1663 -0.5207
 6565TIP3   OH241109   5.806   6.061   0.255 -0.0847 -0.5131 -0.3338
 6565TIP3    H141110   5.831   5.986   0.307 -0.9869 -0.6919 -0.1542
 6565TIP3    H241111   5.802   6.134   0.317 -1.8511 -0.8671 -0.0041
 6566TIP3   OH241112   1.439   5.129   1.479 -0.0378  0.4430  0.0371
 6566TIP3    H141113   1.503   5.076   1.431 -0.2635 -0.0565  0.2829
 6566TIP3    H241114   1.477   5.138   1.567 -1.4389 -1.9044  0.9057
 6567TIP3   OH241115   6.067   6.040   4.094 -0.1767 -0.1387  0.3492
 6567TIP3    H141116   6.105   6.108   4.149  1.2915 -1.0167  0.4353
 6567TIP3    H241117   6.023   5.981   4.155  0.2213 -0.3258  0.4577
 6568TIP3   OH241118   5.251   6.170  12.649 -0.0011  0.3029 -0.0704
 6568TIP3    H141119   5.162   6.158  12.617 -0.0696 -0.3682  0.3605
 6568TIP3    H241120   5.302   6.100  12.606  0.5687  1.4147 -1.2579
 6569TIP3   OH241121   3.233   1.982   2.911  0.1122  0.0449 -0.0751
 6569TIP3    H141122   3.318   1.939   2.919  0.4222  0.4497 -1.0127
 6569TIP3    H241123   3.171   1.921   2.950  0.9118  0.0291  1.1963
 6570TIP3   OH241124   2.261   6.574   4.466 -0.7712 -0.1126 -0.3266
 6570TIP3    H141125   2.276   6.529   4.550 -0.3392 -0.4064 -0.5572
 6570TIP3    H241126   2.193   6.522   4.423  0.2550 -0.9913 -0.9164
 6571TIP3   OH241127   4.123   5.754   4.443  0.9339 -0.1634 -0.1805
 6571TIP3    H141128   4.090   5.728   4.530  0.0435  3.0735  0.5166
 6571TIP3    H241129   4.176   5.680   4.415  1.8690 -0.9945  3.4643
 6572TIP3   OH241130   1.457   6.486   0.287 -0.1244 -0.1579 -0.3357
 6572TIP3    H141131   1.525   6.482   0.354  0.5107 -0.8196 -1.0209
 6572TIP3    H241132   1.441   6.580   0.276  0.5547 -0.0058 -0.0526
 6573TIP3   OH241133   6.651   1.665  13.516 -0.8044  0.0947  0.2201
 6573TIP3    H141134   6.737   1.655  13.476 -1.7794  2.7169 -2.7169
 6573TIP3    H241135   6.591   1.616  13.459 -1.7015  0.7553  0.5734
 6574TIP3   OH241136   4.348   2.124  14.739 -0.4205 -0.2445  0.3895
 6574TIP3    H141137   4.254   2.134  14.724 -0.4450 -0.5294  0.3553
 6574TIP3    H241138   4.360   2.148  14.831 -0.1720  2.1480 -0.2319
 6575TIP3   OH241139   1.704   3.528   2.852  0.5480 -0.6370  0.1663
 6575TIP3    H141140   1.645   3.545   2.926  2.3501  0.3140  1.4320
 6575TIP3    H241141   1.657   3.465   2.798 -0.6044 -1.7761  2.3975
 6576TIP3   OH241142   0.692   1.655  13.782 -0.3733  0.3465 -0.3366
 6576TIP3    H141143   0.767   1.606  13.750 -0.5268 -0.3313  0.3372
 6576TIP3    H241144   0.620   1.592  13.783 -0.2055  0.1441  2.0275
 6577TIP3   OH241145   4.688   0.076   1.211  0.2393 -0.4372  0.2268
 6577TIP3    H141146   4.682   0.082   1.115 -0.0905 -1.4170  0.1828
 6577TIP3    H241147   4.731   0.157   1.237 -1.7731  0.9097 -0.5460
 6578TIP3   OH241148   1.245   2.801   5.722 -0.3029 -0.0032 -0.4445
 6578TIP3    H141149   1.249   2.849   5.805 -0.1305  2.4228 -1.7895
 6578TIP3    H241150   1.163   2.831   5.682  0.3753  0.0313 -1.8247
 6579TIP3   OH241151   4.475   4.744  14.520  1.1130  0.1708  0.2828
 6579TIP3    H141152   4.459   4.823  14.468  0.1361  0.6656  1.3082
 6579TIP3    H241153   4.443   4.672  14.466  0.7291  0.6098 -0.0768
 6580TIP3   OH241154   6.616   0.587  14.257 -0.1427  0.2856  0.0865
 6580TIP3    H141155   6.710   0.597  14.270 -0.0218 -0.7322  0.0087
 6580TIP3    H241156   6.591   0.516  14.316 -0.6343 -0.3004 -0.8209
 6581TIP3   OH241157   1.239   6.343   0.368 -0.1176  0.2472 -0.2502
 6581TIP3    H141158   1.323   6.385   0.351 -0.1992 -0.1911 -1.7756
 6581TIP3    H241159   1.177   6.417   0.375 -0.0724  0.4599 -1.8546
 6582TIP3   OH241160   3.083   0.042  13.500 -0.4039 -0.1069  0.3276
 6582TIP3    H141161   3.127  -0.023  13.446  0.4688  1.4617 -0.8848
 6582TIP3    H241162   3.013   0.077  13.444  0.0881  1.0583  0.4356
 6583TIP3   OH241163   6.320   1.393   0.967 -0.0999 -0.2232  0.2586
 6583TIP3    H141164   6.324   1.477   0.921 -2.3216 -0.8138 -1.0522
 6583TIP3    H241165   6.231   1.362   0.954  0.0081 -1.7038  2.7103
 6584TIP3   OH241166   3.215   1.161  11.789 -0.0150 -0.4666 -0.3184
 6584TIP3    H141167   3.240   1.187  11.878 -2.0619  2.2733 -0.4821
 6584TIP3    H241168   3.121   1.175  11.786 -0.0016 -0.7912 -2.8560
 6585TIP3   OH241169   2.408   6.156  11.510 -0.0382  0.0797 -0.5197
 6585TIP3    H141170   2.422   6.099  11.586  0.0269 -0.3555 -0.8523
 6585TIP3    H241171   2.332   6.118  11.466  0.3822 -0.1223 -1.0828
 6586TIP3   OH241172   1.437   6.171   0.501  0.0846 -0.2441 -0.1818
 6586TIP3    H141173   1.360   6.199   0.451 -0.4421 -1.0800  0.1630
 6586TIP3    H241174   1.411   6.090   0.543  0.7887  0.0403  0.8330
 6587TIP3   OH241175   0.652   0.427   5.407  0.0725 -0.4970  0.1102
 6587TIP3    H141176   0.671   0.497   5.469  2.4247 -1.4296  0.4709
 6587TIP3    H241177   0.590   0.370   5.453  1.1466 -0.7284  1.2659
 6588TIP3   OH241178   5.640   1.317  16.130  0.6480  0.2065 -0.3075
 6588TIP3    H141179   5.570   1.258  16.100  2.3242 -1.2471 -1.4909
 6588TIP3    H241180   5.603   1.361  16.207 -1.1731 -1.3160 -0.2634
 6589TIP3   OH241181   4.563   3.611  15.981  0.2780  0.2000 -0.2568
 6589TIP3    H141182   4.485   3.558  15.960 -0.7633  1.2898  0.7455
 6589TIP3    H241183   4.590   3.648  15.898 -0.3821 -0.0526 -0.5874
 6590TIP3   OH241184   4.068   5.275   5.454  0.0535 -0.3303  0.1739
 6590TIP3    H141185   4.010   5.312   5.520 -0.5378  1.7568 -1.4331
 6590TIP3    H241186   4.155   5.277   5.493  0.0322  2.8569  0.1400
 6591TIP3   OH241187   6.684   5.981  17.194  0.0804  0.4027 -0.2985
 6591TIP3    H141188   6.751   6.041  17.159  0.3729  1.3798  1.8528
 6591TIP3    H241189   6.637   6.033  17.259 -0.8826 -1.1770  0.2996
 6592TIP3   OH241190   2.478   3.472  16.860  0.2885 -0.5242 -0.3238
 6592TIP3    H141191   2.537   3.545  16.843  1.3830 -1.9715 -2.9364
 6592TIP3    H241192   2.390   3.509  16.851  0.8283  0.7114 -0.5169
 6593TIP3   OH241193   3.226   6.400  11.445 -0.6824  0.4946 -0.1643
 6593TIP3    H141194   3.224   6.375  11.537 -2.3981  0.9705 -0.0522
 6593TIP3    H241195   3.274   6.483  11.444 -2.3211  1.4870  0.5796
 6594TIP3   OH241196   1.716   5.217  13.417 -0.4630 -0.0763  0.2071
 6594TIP3    H141197   1.621   5.226  13.417 -0.3334  1.4788  1.5441
 6594TIP3    H241198   1.733   5.147  13.480 -0.6595  0.5191  0.9276
 6595TIP3   OH241199   0.850   2.616   3.394  0.0229  0.3237 -0.3878
 6595TIP3    H141200   0.838   2.693   3.450  2.2079 -0.6168  1.4262
 6595TIP3    H241201   0.799   2.548   3.438 -0.8639  0.3988 -1.2971
 6596TIP3   OH241202   1.562   3.416  13.564  0.3056  0.2708  0.2023
 6596TIP3    H141203   1.582   3.325  13.583  0.6034  0.2667 -0.1318
 6596TIP3    H241204   1.608   3.435  13.482  1.4386  1.1385  1.0194
 6597TIP3   OH241205   0.084   6.539  13.978  0.6077 -0.3523  0.5293
 6597TIP3    H141206   0.047   6.611  14.029  1.5802  0.9134 -0.4949
 6597TIP3    H241207   0.166   6.517  14.022  0.6659 -0.3328  0.4322
 6598TIP3   OH241208   0.089   4.697   5.851 -0.7267 -0.1747 -0.0019
 6598TIP3    H141209   0.051   4.663   5.932 -0.8715  1.0132  0.4422
 6598TIP3    H241210   0.013   4.728   5.800 -0.2997  3.4965  1.4878
 6599TIP3   OH241211   5.738   0.050  11.135 -0.0318  0.1263 -0.3255
 6599TIP3    H141212   5.740   0.107  11.058 -1.4368 -0.7845 -1.0362
 6599TIP3    H241213   5.679  -0.021  11.112 -1.0624  0.2281  1.8742
 6600TIP3   OH241214   2.198   2.337   2.100 -0.8239  0.0037 -0.0227
 6600TIP3    H141215   2.172   2.308   2.188 -0.6642 -1.2221 -0.3635
 6600TIP3    H241216   2.129   2.305   2.043  0.3437 -1.4638 -0.6612
 6601TIP3   OH241217   4.949   5.636   5.692  0.4583  0.4887 -0.4639
 6601TIP3    H141218   4.974   5.655   5.601  2.0158 -0.1323 -0.1815
 6601TIP3    H241219   4.963   5.719   5.738  1.2576  0.3480 -0.4589
 6602TIP3   OH241220   1.211   5.107  13.709  0.5092  0.2604  0.2784
 6602TIP3    H141221   1.188   5.027  13.757  1.8015 -0.5368 -0.3938
 6602TIP3    H241222   1.208   5.082  13.617 -0.6906  1.4386 -0.0107
 6603TIP3   OH241223   4.849   0.036   2.910  0.2085 -0.0524 -0.1364
 6603TIP3    H141224   4.759   0.066   2.920 -0.0153 -0.7962  0.1521
 6603TIP3    H241225   4.874   0.063   2.821 -0.6683 -0.7844 -0.6189
 6604TIP3   OH241226   2.170   2.433  14.821 -0.0230  0.4244 -0.2624
 6604TIP3    H141227   2.124   2.349  14.808 -1.3761  0.6661  2.5815
 6604TIP3    H241228   2.263   2.410  14.815 -0.2761 -1.8074  2.7780
 6605TIP3   OH241229   2.279   1.981  14.339 -0.1430  0.0314  0.0500
 6605TIP3    H141230   2.293   1.907  14.399 -1.4207 -0.3102 -0.0568
 6605TIP3    H241231   2.186   2.000  14.347  0.1400  1.4781 -0.1234
 6606TIP3   OH241232   4.075   2.044   5.870  0.7194  0.4036 -0.2077
 6606TIP3    H141233   4.095   2.055   5.777  0.0629  0.5488 -0.3339
 6606TIP3    H241234   4.044   2.130   5.899  2.5281  0.8120  0.5542
 6607TIP3   OH241235   0.219   6.762  13.630  0.1778 -0.6303  0.0398
 6607TIP3    H141236   0.245   6.793  13.543 -2.2901  0.1021 -0.4645
 6607TIP3    H241237   0.255   6.826  13.691  2.7425 -1.6596 -0.3286
 6608TIP3   OH241238   3.315   4.261   2.950  0.6428  0.0537 -0.1523
 6608TIP3    H141239   3.222   4.241   2.939  0.9181 -0.3581 -1.7329
 6608TIP3    H241240   3.324   4.351   2.921  0.6493  0.2911  0.5571
 6609TIP3   OH241241   2.822   4.769  14.620 -0.8618  0.1264 -0.3722
 6609TIP3    H141242   2.822   4.832  14.692 -0.8046 -0.1754 -0.1053
 6609TIP3    H241243   2.749   4.710  14.640  0.5769 -1.3537  0.6745
 6610TIP3   OH241244   4.134   1.896   4.583  0.5762 -1.1948  0.5846
 6610TIP3    H141245   4.185   1.874   4.661 -0.2479 -0.2520  1.4013
 6610TIP3    H241246   4.102   1.985   4.599  1.4072 -0.5003 -1.3623
 6611TIP3   OH241247   0.158   4.955  10.876  0.3269  0.5902  0.0378
 6611TIP3    H141248   0.169   4.882  10.816 -0.1039  0.3041  0.3061
 6611TIP3    H241249   0.064   4.971  10.879  0.4276  1.2368 -0.1146
 6612TIP3   OH241250   3.394   3.522   2.875 -0.0985  0.3853 -0.5283
 6612TIP3    H141251   3.313   3.504   2.923  0.4859  0.8528  0.6468
 6612TIP3    H241252   3.366   3.574   2.800 -0.6290  2.4454  1.0437
 6613TIP3   OH241253   5.940   3.062   0.498  0.3489  0.0135  0.0465
 6613TIP3    H141254   5.894   3.137   0.535 -0.6581 -0.7527  0.3972
 6613TIP3    H241255   5.982   3.095   0.419  2.5412  1.6986  1.8361
 6614TIP3   OH241256   5.735   0.205   1.456 -0.1795  0.1153 -0.2297
 6614TIP3    H141257   5.675   0.258   1.404 -0.8873 -0.2804  0.1813
 6614TIP3    H241258   5.817   0.205   1.406 -0.7859 -0.0799 -1.2346
 6615TIP3   OH241259   6.175   5.363  16.791  0.5672 -0.1437  0.0161
 6615TIP3    H141260   6.109   5.294  16.800 -0.3189  0.5288 -1.0646
 6615TIP3    H241261   6.253   5.318  16.758  0.1313 -0.6955 -0.2718
 6616TIP3   OH241262   0.913   5.661  15.785 -0.1977 -0.2920 -0.0485
 6616TIP3    H141263   0.973   5.726  15.823  2.0729 -1.2445 -1.8851
 6616TIP3    H241264   0.888   5.605  15.858  2.0702 -0.5463  0.5558
 6617TIP3   OH241265   4.612   3.522  13.447 -0.3536 -0.0750 -0.1556
 6617TIP3    H141266   4.668   3.570  13.386  0.4563 -1.1645 -0.2783
 6617TIP3    H241267   4.524   3.529  13.409 -0.0615  0.3554 -0.7606
 6618TIP3   OH241268   4.111   1.150   6.780  0.4099 -0.3928 -0.2423
 6618TIP3    H141269   4.199   1.161   6.744 -0.0175 -0.6550 -1.4081
 6618TIP3    H241270   4.059   1.216   6.735 -0.3102 -1.2817 -0.7152
 6619TIP3   OH241271   6.693   4.525  17.146  0.4464  0.5031 -0.5736
 6619TIP3    H141272   6.611   4.483  17.120  0.1093 -0.3117  1.6611
 6619TIP3    H241273   6.758   4.492  17.084 -0.4046 -0.9739 -0.7006
 6620TIP3   OH241274   3.336   6.038  16.267 -0.0318  0.3717  0.8025
 6620TIP3    H141275   3.299   6.046  16.355 -1.0270  4.7164  0.1245
 6620TIP3    H241276   3.428   6.061  16.278 -0.2260  1.2222  0.6815
 6621TIP3   OH241277   2.362   0.862   5.562 -0.6026 -0.4247  0.0116
 6621TIP3    H141278   2.276   0.864   5.522 -0.2374 -0.0538 -0.7550
 6621TIP3    H241279   2.418   0.819   5.498  0.0764  0.5776 -0.0798
 6622TIP3   OH241280   5.315   5.204   5.178 -0.3635  0.0399 -0.1050
 6622TIP3    H141281   5.240   5.247   5.219  0.9071 -0.2794  2.6431
 6622TIP3    H241282   5.338   5.133   5.238  3.8565  1.8214  0.5562
 6623TIP3   OH241283   6.709   1.991   5.611  0.1897  0.0065 -0.3180
 6623TIP3    H141284   6.632   1.966   5.560  1.4198 -0.0067 -2.2054
 6623TIP3    H241285   6.780   1.995   5.547  1.7434  0.1165  1.3796
 6624TIP3   OH241286   0.612   3.791  15.050 -0.1968  0.4379  0.2979
 6624TIP3    H141287   0.616   3.726  15.119 -1.8690  1.7686  1.6996
 6624TIP3    H241288   0.644   3.872  15.091 -1.0171  1.1988 -0.5404
 6625TIP3   OH241289   0.137   3.443   4.743 -0.0538 -0.0648  0.4797
 6625TIP3    H141290   0.169   3.354   4.758 -1.5204 -0.4198  1.5534
 6625TIP3    H241291   0.050   3.431   4.705  0.8728  0.9068 -2.0391
 6626TIP3   OH241292   4.588   6.156   2.278  0.1699  0.1063 -0.5454
 6626TIP3    H141293   4.668   6.208   2.268 -0.1098  0.8214  0.8307
 6626TIP3    H241294   4.517   6.219   2.263 -0.1427 -0.2800 -0.6723
 6627TIP3   OH241295   5.483   0.548  14.054 -0.1282 -0.1606 -0.1621
 6627TIP3    H141296   5.410   0.589  14.100  0.8192  0.9687  0.3346
 6627TIP3    H241297   5.455   0.457  14.043 -1.6050  0.2458  0.0407
 6628TIP3   OH241298   3.366   2.636   2.446  0.1849  0.6260 -0.2857
 6628TIP3    H141299   3.374   2.731   2.448  1.8102  0.4833  0.6449
 6628TIP3    H241300   3.271   2.620   2.449 -0.0781  2.1822  0.1919
 6629TIP3   OH241301   3.759   3.782  11.737  0.3228  0.2129 -0.8230
 6629TIP3    H141302   3.833   3.733  11.700  0.8298  0.9058 -0.7408
 6629TIP3    H241303   3.769   3.871  11.702  0.4161  0.7000  0.4121
 6630TIP3   OH241304   6.322   3.208  11.598 -0.0403  0.6404 -0.1318
 6630TIP3    H141305   6.247   3.178  11.649  0.1030 -0.9996 -0.8529
 6630TIP3    H241306   6.383   3.242  11.663  0.5813 -2.3786  0.9087
 6631TIP3   OH241307   0.450   3.275  12.847  0.0213  0.2397  0.6361
 6631TIP3    H141308   0.532   3.277  12.895 -0.3977 -0.0716  1.3749
 6631TIP3    H241309   0.383   3.258  12.914 -0.6082  0.1847  0.0022
 6632TIP3   OH241310   5.084   0.399   5.039  0.0576 -0.2725 -0.2345
 6632TIP3    H141311   5.047   0.487   5.050 -1.0828 -0.6054 -1.2288
 6632TIP3    H241312   5.019   0.341   5.077  1.3591 -0.6353  1.5043
 6633TIP3   OH241313   1.699   1.981  15.129 -0.0799  0.5201 -0.4637
 6633TIP3    H141314   1.740   2.028  15.056 -0.0987 -1.1350 -1.5610
 6633TIP3    H241315   1.759   1.995  15.202  0.0631  1.9882 -0.8370
 6634TIP3   OH241316   2.346   0.104   2.492 -0.0402  0.1328  0.0802
 6634TIP3    H141317   2.297   0.115   2.410 -0.1521  0.4461  0.1879
 6634TIP3    H241318   2.430   0.147   2.475 -0.2880  0.7285  0.3294
 6635TIP3   OH241319   3.785   2.020  15.264 -0.1354 -0.1746 -0.6603
 6635TIP3    H141320   3.710   2.048  15.211 -1.3615 -0.6374  0.8047
 6635TIP3    H241321   3.783   1.924  15.260  0.0672 -0.1991 -0.1922
 6636TIP3   OH241322   0.419   6.204  11.021 -0.1627  0.0893 -0.2528
 6636TIP3    H141323   0.351   6.242  10.964  2.8059  2.3832 -2.4224
 6636TIP3    H241324   0.446   6.125  10.975 -1.0788 -0.6333  0.4331
 6637TIP3   OH241325   3.320   4.330  12.479  0.2967  0.0824  0.1088
 6637TIP3    H141326   3.259   4.376  12.421  0.3566 -1.4448 -1.1850
 6637TIP3    H241327   3.375   4.400  12.515  0.1752  1.0815 -1.5715
 6638TIP3   OH241328   5.119   1.703   1.339 -0.0791  0.3467  0.4901
 6638TIP3    H141329   5.171   1.623   1.336  1.6441  1.4680 -0.1242
 6638TIP3    H241330   5.183   1.774   1.333 -1.7236  1.7501 -0.9288
 6639TIP3   OH241331   0.928   0.110  13.253 -0.1685  0.1535  0.5512
 6639TIP3    H141332   0.906   0.073  13.168  0.0511  1.3426 -0.0418
 6639TIP3    H241333   0.993   0.178  13.233 -0.6502  0.9302  1.5785
 6640TIP3   OH241334   0.008   4.764   1.977 -0.0042 -0.0900 -0.2892
 6640TIP3    H141335  -0.056   4.803   2.036 -0.2328 -1.0573  0.1036
 6640TIP3    H241336  -0.037   4.689   1.939 -0.0095  0.7656 -2.0287
 6641TIP3   OH241337   1.714   1.071  15.385 -0.1509 -0.6359 -0.6105
 6641TIP3    H141338   1.734   0.978  15.401  1.5750 -0.7657 -3.2703
 6641TIP3    H241339   1.798   1.115  15.394 -0.5577  0.3481 -1.6086
 6642TIP3   OH241340   4.653   5.523   1.332 -0.0355 -0.2553  0.1349
 6642TIP3    H141341   4.620   5.464   1.399  0.1476  0.4378  0.8538
 6642TIP3    H241342   4.575   5.561   1.292 -0.1489  1.3868  1.8342
 6643TIP3   OH241343   6.303   1.406  14.034 -0.4405  0.1482 -0.1475
 6643TIP3    H141344   6.323   1.498  14.016 -0.6618  0.6719  2.1205
 6643TIP3    H241345   6.348   1.358  13.965  0.3876  1.9123 -0.8671
 6644TIP3   OH241346   2.048   2.095   2.460 -0.4893  0.2866  0.5888
 6644TIP3    H141347   2.081   2.033   2.526 -1.4125 -0.6480  0.1869
 6644TIP3    H241348   2.062   2.051   2.377  1.3586  1.7804  0.0774
 6645TIP3   OH241349   6.692   3.375   1.541  0.2691  0.3225 -0.1005
 6645TIP3    H141350   6.726   3.413   1.460 -0.4102  0.1357 -0.4817
 6645TIP3    H241351   6.662   3.451   1.592 -0.1963  0.3760 -0.4460
 6646TIP3   OH241352   5.954   0.558   1.296  0.7790  0.6540  0.1801
 6646TIP3    H141353   5.940   0.617   1.370 -0.4366  0.7790 -0.1415
 6646TIP3    H241354   5.970   0.616   1.222  0.3675  0.5573  0.0173
 6647TIP3   OH241355   2.270   5.500   5.786  0.4152  0.4274  0.3396
 6647TIP3    H141356   2.241   5.515   5.876 -0.0237 -0.2997  0.3179
 6647TIP3    H241357   2.207   5.547   5.732 -0.1576 -0.3566  0.3367
 6648TIP3   OH241358   0.842   6.214   3.283 -0.1741  0.2267  0.3845
 6648TIP3    H141359   0.770   6.236   3.342  0.4611  3.5043  0.0206
 6648TIP3    H241360   0.799   6.179   3.204 -1.5012  3.3345 -0.3375
 6649TIP3   OH241361   3.707   0.949   1.715  0.1080 -0.2860  0.4740
 6649TIP3    H141362   3.760   1.024   1.740  1.5860 -0.4362 -2.0376
 6649TIP3    H241363   3.767   0.875   1.718 -0.7996 -1.0129  0.8420
 6650TIP3   OH241364   2.443   0.022  16.935 -0.4124  0.1542 -0.3693
 6650TIP3    H141365   2.408   0.102  16.896 -2.8380 -1.3361 -1.3055
 6650TIP3    H241366   2.537   0.041  16.947 -0.5981  2.4749 -2.1905
 6651TIP3   OH241367   2.007   0.875  14.087 -0.2971 -0.2813  0.0024
 6651TIP3    H141368   1.931   0.911  14.042  0.3238  1.0226 -0.0054
 6651TIP3    H241369   1.981   0.869  14.179 -0.3710  0.2429  0.0130
 6652TIP3   OH241370   4.715   6.459  14.719 -0.2409  0.0292 -0.0767
 6652TIP3    H141371   4.800   6.469  14.760 -0.5611 -0.2497  0.6766
 6652TIP3    H241372   4.732   6.408  14.640  0.4002  0.6521 -0.3389
 6653TIP3   OH241373   5.844   3.629   2.050 -0.1663 -0.3612 -0.3460
 6653TIP3    H141374   5.793   3.620   1.969 -2.0344 -1.0448  0.8602
 6653TIP3    H241375   5.827   3.719   2.079 -0.8192 -0.6223  0.1117
 6654TIP3   OH241376   2.190   3.612   4.596 -0.2604 -0.8391  0.0105
 6654TIP3    H141377   2.250   3.676   4.557 -1.6926  0.6572  0.2151
 6654TIP3    H241378   2.234   3.528   4.584  0.3043 -0.1910 -2.9249
 6655TIP3   OH241379   0.766   4.930   3.213 -0.3345 -0.2342  0.1839
 6655TIP3    H141380   0.695   4.950   3.152  0.0427 -0.8441 -0.4690
 6655TIP3    H241381   0.738   4.850   3.257 -0.3151 -0.1517  0.3452
 6656TIP3   OH241382   0.428   0.304   5.768 -0.3464  0.1215 -0.2845
 6656TIP3    H141383   0.409   0.224   5.817  1.3340 -0.9229 -1.2489
 6656TIP3    H241384   0.361   0.307   5.700  0.4830 -1.3134 -1.1840
 6657TIP3   OH241385   6.528   2.330   5.876 -0.3365  0.2115  0.0944
 6657TIP3    H141386   6.582   2.378   5.938 -0.7969 -0.5183  1.0924
 6657TIP3    H241387   6.438   2.352   5.901 -0.5192  0.5245 -0.8194
 6658TIP3   OH241388   0.062   4.800   3.653 -0.3660 -0.1183  0.5078
 6658TIP3    H141389   0.039   4.808   3.560 -2.8574 -0.4647  1.0582
 6658TIP3    H241390  -0.019   4.822   3.699  0.8464  0.0373  2.6074
 6659TIP3   OH241391   2.777   3.785  13.388 -0.3045  0.2182  0.4414
 6659TIP3    H141392   2.760   3.741  13.305  0.5543  0.0062  0.3650
 6659TIP3    H241393   2.751   3.876  13.373 -1.8341 -0.1911  0.5136
 6660TIP3   OH241394   5.641   3.444   1.917  0.5254 -0.3271  0.5698
 6660TIP3    H141395   5.593   3.514   1.962  0.8644 -0.7023  1.5188
 6660TIP3    H241396   5.594   3.364   1.942 -0.7308 -0.3239 -1.6471
 6661TIP3   OH241397   2.952   4.288   3.151  0.2320  0.6899  0.1138
 6661TIP3    H141398   2.903   4.248   3.079  1.3664 -2.4451  1.0030
 6661TIP3    H241399   2.986   4.370   3.114  0.0696 -0.4302 -2.6431
 6662TIP3   OH241400   0.418   3.328  15.890 -0.0373  0.0104 -0.0392
 6662TIP3    H141401   0.488   3.266  15.873  0.2498  0.1274  0.7050
 6662TIP3    H241402   0.355   3.314  15.818  0.1249 -0.9827  0.0110
 6663TIP3   OH241403   5.626   2.633  14.261 -0.5071  0.3913  0.1388
 6663TIP3    H141404   5.548   2.614  14.209  0.9382 -0.8274 -1.6489
 6663TIP3    H241405   5.699   2.604  14.206  1.0565 -1.7236  3.2311
 6664TIP3   OH241406   2.171   6.322   2.990  0.1477  0.2145  0.0268
 6664TIP3    H141407   2.202   6.366   3.068 -0.7552 -0.9459  1.0530
 6664TIP3    H241408   2.079   6.303   3.007 -0.5137  1.4372 -1.9936
 6665TIP3   OH241409   5.016   2.678   4.461  0.6464  0.8119 -0.0214
 6665TIP3    H141410   4.934   2.650   4.500  1.3756  1.2361  1.8562
 6665TIP3    H241411   5.043   2.754   4.512  1.6506  1.3367 -1.3093
 6666TIP3   OH241412   5.675   6.140   0.014  0.1284  0.3770  0.7498
 6666TIP3    H141413   5.739   6.127   0.084 -0.0552  2.9548  1.4223
 6666TIP3    H241414   5.590   6.131   0.057  0.0175  0.4381  0.5415
 6667TIP3   OH241415   2.920   1.760   2.705  0.6442 -0.6379  0.7305
 6667TIP3    H141416   2.868   1.680   2.715  0.1127 -0.8349 -3.0300
 6667TIP3    H241417   2.864   1.830   2.741 -0.4307 -1.4377  0.6166
 6668TIP3   OH241418   6.754   4.791  13.299  0.1983 -0.1969  0.0746
 6668TIP3    H141419   6.830   4.732  13.305  1.0467  0.7119 -1.5008
 6668TIP3    H241420   6.688   4.739  13.253 -0.6863 -1.4999  2.6994
 6669TIP3   OH241421   1.737   4.806  11.252 -0.5051  0.6477  0.5732
 6669TIP3    H141422   1.760   4.728  11.201 -0.2275  0.8361  0.4091
 6669TIP3    H241423   1.789   4.799  11.332 -2.2197 -0.5361  1.6320
 6670TIP3   OH241424   4.893   2.718   2.703  0.0816  0.1106 -0.5525
 6670TIP3    H141425   4.942   2.678   2.631 -0.2595 -0.4565 -0.4769
 6670TIP3    H241426   4.953   2.714   2.778 -0.6205 -2.0230 -0.0574
 6671TIP3   OH241427   5.906   4.180   2.402 -0.4707 -0.2148 -0.2256
 6671TIP3    H141428   5.880   4.183   2.310 -1.9783 -1.3424  0.1431
 6671TIP3    H241429   5.911   4.272   2.429  0.1541  0.1166 -1.4867
 6672TIP3   OH241430   6.437   0.513  17.008  0.0007 -0.2557  0.1276
 6672TIP3    H141431   6.478   0.597  16.989  1.8832 -0.7515  1.8201
 6672TIP3    H241432   6.362   0.535  17.064 -0.6869  0.4358 -1.0308
 6673TIP3   OH241433   1.033   6.485  13.714  0.7829  0.1274 -0.0833
 6673TIP3    H141434   1.103   6.510  13.653 -0.3476  0.3756 -1.2824
 6673TIP3    H241435   0.957   6.468  13.659  0.2393 -1.4238  1.1116
 6674TIP3   OH241436   4.911   4.219  14.480 -0.4982 -0.1530  0.2620
 6674TIP3    H141437   4.956   4.186  14.402  0.2461  0.3363  0.4720
 6674TIP3    H241438   4.963   4.294  14.507 -0.0498 -1.0411  1.9421
 6675TIP3   OH241439   5.000   6.753   0.802  0.3264  0.4239 -0.5610
 6675TIP3    H141440   5.080   6.731   0.755 -1.1649  2.0446 -4.0753
 6675TIP3    H241441   5.012   6.844   0.829  0.2170  0.2369  0.1342
 6676TIP3   OH241442   3.978   0.291   0.299 -0.3972  0.2145  0.0155
 6676TIP3    H141443   3.976   0.236   0.378 -0.7446 -0.5026 -0.4915
 6676TIP3    H241444   3.978   0.229   0.226  0.1141  0.8716 -0.5556
 6677TIP3   OH241445   0.296   1.974   5.167 -0.2305 -0.8021 -0.2950
 6677TIP3    H141446   0.336   1.888   5.182  2.6056  0.4247 -0.4903
 6677TIP3    H241447   0.265   1.971   5.076  0.0865 -1.5332 -0.3822
 6678TIP3   OH241448   1.562   2.793  16.570  0.1926 -0.7258  0.3451
 6678TIP3    H141449   1.518   2.796  16.485 -1.2131 -0.3122  1.0846
 6678TIP3    H241450   1.567   2.884  16.598  0.7784 -0.8488  0.6625
 6679TIP3   OH241451   1.796   1.672   4.977 -0.0758  0.3891 -0.1810
 6679TIP3    H141452   1.865   1.606   4.962  0.6140  1.1363 -0.3192
 6679TIP3    H241453   1.826   1.749   4.928 -0.0589  1.3582  1.3263
 6680TIP3   OH241454   4.966   6.300  10.568 -0.2926 -0.1959  0.7376
 6680TIP3    H141455   4.984   6.246  10.645  0.4989  0.1715  0.8172
 6680TIP3    H241456   5.049   6.304  10.521 -1.1031 -1.4687 -0.8252
 6681TIP3   OH241457   4.681   5.003  13.634 -0.1621  0.5795  0.3933
 6681TIP3    H141458   4.769   5.039  13.649 -0.3149  1.1954 -0.1829
 6681TIP3    H241459   4.660   5.027  13.544 -0.7688  0.0940  0.4001
 6682TIP3   OH241460   2.443   3.991  12.255  0.0116  0.0759 -0.5616
 6682TIP3    H141461   2.420   4.071  12.208  2.0229 -0.2381 -2.1447
 6682TIP3    H241462   2.454   3.925  12.187 -0.7985 -1.3806  0.6641
 6683TIP3   OH241463   2.038   4.003  14.592  0.1376 -0.0263 -0.2821
 6683TIP3    H141464   1.967   3.969  14.537  0.1897 -1.6938  0.6529
 6683TIP3    H241465   1.993   4.051  14.662  0.0012  0.4293 -0.6793
 6684TIP3   OH241466   1.534   4.940   5.631 -0.2358 -0.2622 -0.3011
 6684TIP3    H141467   1.598   4.925   5.561 -0.8962  0.9079 -1.1744
 6684TIP3    H241468   1.461   4.881   5.611 -0.2580 -0.2079 -0.3789
 6685TIP3   OH241469   4.632   4.676  17.067  0.1856 -0.0113 -0.4524
 6685TIP3    H141470   4.664   4.660  17.155  0.9208 -0.4602 -0.7907
 6685TIP3    H241471   4.653   4.768  17.050  0.4116 -0.0342 -0.3013
 6686TIP3   OH241472   5.741   5.652   1.823 -0.5976 -0.2166  0.1787
 6686TIP3    H141473   5.692   5.603   1.756 -0.4007  1.7524 -1.4672
 6686TIP3    H241474   5.816   5.597   1.843 -1.9400 -1.9428  0.5795
 6687TIP3   OH241475   6.287   3.889  13.208 -0.0416  0.0203 -0.4206
 6687TIP3    H141476   6.237   3.933  13.277 -0.7919  1.2707 -1.7337
 6687TIP3    H241477   6.272   3.796  13.223 -0.6485  0.2948  0.7592
 6688TIP3   OH241478   2.245   5.559  11.469 -0.2188 -0.0323 -0.5840
 6688TIP3    H141479   2.256   5.610  11.388 -2.1830  1.5264  0.0972
 6688TIP3    H241480   2.298   5.606  11.534 -0.8325  0.2937 -0.3163
 6689TIP3   OH241481   6.290   2.383   5.475 -0.4571 -0.3813 -0.3698
 6689TIP3    H141482   6.345   2.320   5.428  1.5585  1.2510 -0.2545
 6689TIP3    H241483   6.345   2.413   5.548 -2.7462 -1.2471  1.7816
 6690TIP3   OH241484   1.946   2.516   0.721 -0.2384 -0.3992 -0.1409
 6690TIP3    H141485   1.934   2.476   0.807 -0.5863  2.1750  1.0435
 6690TIP3    H241486   1.865   2.498   0.674 -1.9216  1.9911  1.6959
 6691TIP3   OH241487   1.116   4.704  12.539 -0.6366 -0.7243 -0.2684
 6691TIP3    H141488   1.035   4.749  12.561 -0.5185 -0.1965 -0.8951
 6691TIP3    H241489   1.101   4.667  12.453 -0.6773 -1.7668  0.1803
 6692TIP3   OH241490   0.871   3.908  16.828  0.1361  0.2442 -0.5179
 6692TIP3    H141491   0.907   3.943  16.909  1.2659  0.4116 -1.0847
 6692TIP3    H241492   0.936   3.847  16.796 -1.3384 -1.5704 -0.1259
 6693TIP3   OH241493   4.859   0.073   2.637  0.5206 -0.2559 -0.2985
 6693TIP3    H141494   4.917   0.023   2.580  3.0265 -0.3071  2.1683
 6693TIP3    H241495   4.820   0.139   2.580  0.1467 -2.5439 -2.7777
 6694TIP3   OH241496   2.914   5.577  15.458 -0.8665  0.3429  0.4506
 6694TIP3    H141497   2.955   5.490  15.455  0.4651  0.9414  0.8636
 6694TIP3    H241498   2.883   5.586  15.548  0.1654  0.8091  0.7682
 6695TIP3   OH241499   4.550   0.033  13.273  0.4726 -0.6866 -0.1326
 6695TIP3    H141500   4.615   0.020  13.204  1.5660 -1.7612  1.0754
 6695TIP3    H241501   4.477  -0.023  13.247  0.3940 -0.1810 -1.0191
 6696TIP3   OH241502   4.190   6.086  13.768  0.5942  0.0400  0.0818
 6696TIP3    H141503   4.153   6.114  13.685  1.8747 -0.2199 -0.5860
 6696TIP3    H241504   4.191   6.165  13.822 -1.5675 -0.1001  0.3689
 6697TIP3   OH241505   3.693   5.954   4.292  0.0641  0.0628 -0.6677
 6697TIP3    H141506   3.755   5.881   4.290  1.1514  0.9664 -0.7847
 6697TIP3    H241507   3.624   5.927   4.353  1.0929 -0.5509  0.2294
 6698TIP3   OH241508   4.662   6.403   5.991 -0.5067  0.0509 -0.4652
 6698TIP3    H141509   4.584   6.413   6.046 -1.2324  2.1669 -1.8281
 6698TIP3    H241510   4.733   6.444   6.041 -0.3252 -1.5601  0.6184
 6699TIP3   OH241511   0.819   3.721  13.398 -0.4898  0.2299  0.0009
 6699TIP3    H141512   0.863   3.802  13.372  0.4901 -0.4978 -0.6725
 6699TIP3    H241513   0.890   3.664  13.426 -1.1674 -0.4209  0.3831
 6700TIP3   OH241514   3.199   1.923  14.200 -0.3118  0.1846  0.0032
 6700TIP3    H141515   3.167   2.005  14.162  0.3420  0.2268 -0.4656
 6700TIP3    H241516   3.275   1.947  14.253 -1.0878  0.0919  1.1774
 6701TIP3   OH241517   0.784   2.297   4.572 -0.2902  0.4588 -0.0915
 6701TIP3    H141518   0.775   2.320   4.665 -0.3960 -0.1845  0.0546
 6701TIP3    H241519   0.777   2.202   4.569 -2.4028  0.6231 -1.0127
 6702TIP3   OH241520   6.654   4.328  16.787  0.4115  0.0114 -0.1750
 6702TIP3    H141521   6.685   4.237  16.780 -0.0868 -0.3548  1.9078
 6702TIP3    H241522   6.690   4.359  16.870  2.0991  2.3589 -1.7157
 6703TIP3   OH241523   2.918   6.584   2.181  0.1896  0.5938  0.1412
 6703TIP3    H141524   2.911   6.559   2.273  1.2904  1.1240  0.3804
 6703TIP3    H241525   2.973   6.516   2.141 -2.7990 -1.3417 -0.8283
 6704TIP3   OH241526   1.577   1.263   1.310  0.5603  0.4439  0.2455
 6704TIP3    H141527   1.597   1.347   1.352  0.2487  0.2819  0.7267
 6704TIP3    H241528   1.522   1.217   1.374  0.1337  0.1649 -0.3219
 6705TIP3   OH241529   6.495   0.388   1.772 -0.2047  0.9530  0.5383
 6705TIP3    H141530   6.490   0.469   1.823  2.1525  0.7141  1.2037
 6705TIP3    H241531   6.470   0.319   1.833  2.5118  0.6795  1.4250
 6706TIP3   OH241532   6.349   5.771   2.606  0.3818  0.0341 -0.2117
 6706TIP3    H141533   6.386   5.684   2.593 -1.4569 -1.0648  1.6739
 6706TIP3    H241534   6.307   5.791   2.523 -0.1695 -1.3661 -0.2813
 6707TIP3   OH241535   3.624   1.643   5.915  0.0963  0.4030  0.2698
 6707TIP3    H141536   3.530   1.656   5.928 -0.1374 -0.1765 -0.7567
 6707TIP3    H241537   3.664   1.721   5.953 -0.7899  0.5908  0.8406
 6708TIP3   OH241538   4.295   4.340  12.828  0.1377 -0.2033 -0.0836
 6708TIP3    H141539   4.213   4.299  12.799  0.7817 -0.8791 -0.9750
 6708TIP3    H241540   4.326   4.283  12.898  1.7536 -2.1061 -2.2563
 6709TIP3   OH241541   0.736   5.770   0.903 -0.7099 -0.3446  0.3872
 6709TIP3    H141542   0.724   5.748   0.995  0.2126 -0.2788  0.5232
 6709TIP3    H241543   0.649   5.758   0.864 -0.9627 -0.9787  1.1361
 6710TIP3   OH241544   5.672   1.354   2.083 -0.1167 -0.5974 -0.2519
 6710TIP3    H141545   5.678   1.425   2.147  1.4932 -0.2602 -0.7494
 6710TIP3    H241546   5.739   1.292   2.110  0.9453 -0.1950 -1.9003
 6711TIP3   OH241547   2.358   2.827   4.939  0.3178 -0.1528  0.1196
 6711TIP3    H141548   2.281   2.854   4.990  0.4737  2.3422 -0.8960
 6711TIP3    H241549   2.352   2.876   4.858  4.0544  1.7234  0.8334
 6712TIP3   OH241550   3.049   4.434  17.226  0.2595  0.0434 -0.0278
 6712TIP3    H141551   3.079   4.346  17.208 -0.1171  0.4326 -2.7979
 6712TIP3    H241552   3.124   4.478  17.266  1.3515 -0.7690 -1.1413
 6713TIP3   OH241553   1.694   4.560  14.658 -0.0557 -0.5264 -0.2692
 6713TIP3    H141554   1.621   4.524  14.708 -0.1036  0.3945  0.3334
 6713TIP3    H241555   1.676   4.536  14.568 -1.2214 -0.1301 -0.1481
 6714TIP3   OH241556   6.018   1.982  13.191  0.5457 -0.2112 -0.1605
 6714TIP3    H141557   6.039   2.073  13.210 -0.4990 -0.2609  1.3259
 6714TIP3    H241558   5.929   1.985  13.155  0.7121 -0.5992 -0.6201
 6715TIP3   OH241559   4.694   4.794  15.468 -0.1713 -0.1420  0.0657
 6715TIP3    H141560   4.632   4.863  15.492 -0.0047  0.0055  0.0677
 6715TIP3    H241561   4.692   4.794  15.372 -1.7732 -1.5692  0.0636
 6716TIP3   OH241562   2.619   2.457  17.052  0.0189  0.2544  0.1190
 6716TIP3    H141563   2.579   2.477  16.968 -0.6967 -0.7205  0.2175
 6716TIP3    H241564   2.709   2.434  17.031 -0.2468 -0.2998 -0.4199
 6717TIP3   OH241565   2.956   0.360  14.343 -0.2430  0.1082 -0.4625
 6717TIP3    H141566   2.963   0.382  14.250  1.0518 -2.5179 -1.0464
 6717TIP3    H241567   2.862   0.360  14.361 -0.7009 -2.1538 -2.5438
 6718TIP3   OH241568   0.397   1.048  16.472 -0.1888  0.4449 -0.0645
 6718TIP3    H141569   0.420   1.140  16.486 -0.2168  0.7260 -1.8003
 6718TIP3    H241570   0.477   1.000  16.494  0.0711  0.9392  0.0907
 6719TIP3   OH241571   2.006   0.128  14.602 -0.0217 -0.4501  0.0122
 6719TIP3    H141572   1.924   0.142  14.651  0.2433 -2.4949  1.0769
 6719TIP3    H241573   2.012   0.204  14.544 -1.2545  1.1389  1.9080
 6720TIP3   OH241574   6.219   2.785   2.879 -0.2454  0.4685  0.1657
 6720TIP3    H141575   6.140   2.730   2.883 -0.7665  1.3042  1.4406
 6720TIP3    H241576   6.222   2.815   2.788 -2.2967  1.7202  0.4684
 6721TIP3   OH241577   0.434   4.926  15.928 -0.3045 -0.0527 -0.2903
 6721TIP3    H141578   0.463   4.864  15.994 -0.6390 -2.0699 -2.0056
 6721TIP3    H241579   0.339   4.931  15.941 -0.2795  0.1051 -0.1620
 6722TIP3   OH241580   1.230   2.336  14.778 -0.2902 -0.2213  0.2039
 6722TIP3    H141581   1.238   2.318  14.872 -1.1442 -1.2607  0.0873
 6722TIP3    H241582   1.197   2.425  14.773  1.8977  0.6513  0.8439
 6723TIP3   OH241583   6.075   4.009  11.289 -0.0148 -0.2311  0.0390
 6723TIP3    H141584   6.156   4.022  11.239  0.3063  1.6941  1.0369
 6723TIP3    H241585   6.028   4.092  11.281 -0.3688 -0.2060  2.2196
 6724TIP3   OH241586   0.831   4.661  16.190  0.0388  0.0941  0.2834
 6724TIP3    H141587   0.735   4.661  16.198 -0.0428 -2.4445 -0.2281
 6724TIP3    H241588   0.862   4.636  16.277  0.0720 -2.6497 -0.4786
 6725TIP3   OH241589   1.526   4.296   2.774 -0.5432 -0.0109 -0.5674
 6725TIP3    H141590   1.460   4.236   2.808 -0.9332 -0.1613 -1.5893
 6725TIP3    H241591   1.591   4.239   2.732  0.9979  0.0196  1.6514
 6726TIP3   OH241592   6.038   2.080  15.044  0.0214 -0.6084  0.2256
 6726TIP3    H141593   6.076   2.167  15.049 -2.7262  0.6466  0.5375
 6726TIP3    H241594   6.050   2.043  15.131 -0.6381  0.2972  0.7119
 6727TIP3   OH241595   0.782   5.937  10.738 -0.0495 -0.3527  0.2858
 6727TIP3    H141596   0.742   5.850  10.733  0.4750 -0.5714 -0.2190
 6727TIP3    H241597   0.875   5.921  10.719  0.5497 -0.0584  2.7653
 6728TIP3   OH241598   0.280   4.099  13.409  1.3907 -0.1590  0.3854
 6728TIP3    H141599   0.209   4.067  13.354 -0.1361  2.3270  0.8258
 6728TIP3    H241600   0.354   4.110  13.350  0.9870 -1.3676 -0.3559
 6729TIP3   OH241601   2.150   6.767   2.221  0.1776  0.1581 -0.2512
 6729TIP3    H141602   2.198   6.842   2.185  1.3512 -0.2258  0.4794
 6729TIP3    H241603   2.075   6.806   2.265 -0.3430  0.7563 -1.6231
 6730TIP3   OH241604   3.835   3.868   1.575  0.0473  0.2828 -0.3696
 6730TIP3    H141605   3.881   3.785   1.583 -0.0278  0.0503 -2.1694
 6730TIP3    H241606   3.743   3.844   1.564 -0.3169  0.6957  1.6382
 6731TIP3   OH241607   2.522   2.782   5.159  0.1277  0.6338  0.1124
 6731TIP3    H141608   2.455   2.769   5.092 -0.0304 -0.8912  0.5447
 6731TIP3    H241609   2.485   2.743   5.238  0.6503  1.6909  0.8848
 6732TIP3   OH241610   0.108   1.232   2.125  0.3835  0.8011  0.8276
 6732TIP3    H141611   0.036   1.193   2.175 -0.0981 -0.7975 -1.0775
 6732TIP3    H241612   0.074   1.241   2.036  2.2937  0.6644  0.0605
 6733TIP3   OH241613   0.437   4.434  15.989  0.5952  0.4001 -0.4249
 6733TIP3    H141614   0.465   4.350  15.954  0.8767  1.0405 -1.7466
 6733TIP3    H241615   0.370   4.464  15.929  1.2611  1.6270 -0.5603
 6734TIP3   OH241616   1.033   5.262   4.045 -0.3037  0.0794 -0.0010
 6734TIP3    H141617   0.990   5.291   4.126 -0.1307  1.0358 -0.2403
 6734TIP3    H241618   0.963   5.259   3.980 -0.2803  0.1924 -0.0318
 6735TIP3   OH241619   5.837   0.362  11.282  0.1245  0.3922 -0.2204
 6735TIP3    H141620   5.828   0.457  11.283 -0.4821  0.3259  2.1754
 6735TIP3    H241621   5.923   0.347  11.241  1.5381  2.0885  2.0088
 6736TIP3   OH241622   5.409   4.577  15.711 -0.2025  0.2723  0.0161
 6736TIP3    H141623   5.482   4.549  15.767 -0.2144 -1.6846 -0.8852
 6736TIP3    H241624   5.446   4.645  15.655  0.5700  0.2470  0.4933
 6737TIP3   OH241625   2.631   5.165   5.343  0.4462 -0.3225 -0.4767
 6737TIP3    H141626   2.689   5.240   5.357 -0.4981 -0.0136  2.1514
 6737TIP3    H241627   2.558   5.200   5.292  1.7023 -0.2999 -2.2818
 6738TIP3   OH241628   1.669   2.421   4.461  0.5227 -0.4523  0.5352
 6738TIP3    H141629   1.671   2.353   4.393  0.4177 -0.7151  0.7941
 6738TIP3    H241630   1.747   2.473   4.444  0.3004 -0.2887 -0.0214
 6739TIP3   OH241631   0.570   3.151   5.141 -0.2544  0.0275  0.1029
 6739TIP3    H141632   0.539   3.132   5.230 -0.1604  0.0415  0.1393
 6739TIP3    H241633   0.534   3.080   5.087  0.5915 -0.5929  0.3414
 6740TIP3   OH241634   4.255   4.416  13.332  0.4897  0.1013  0.0755
 6740TIP3    H141635   4.193   4.418  13.405 -0.5965  0.9363 -0.8515
 6740TIP3    H241636   4.290   4.505  13.328  0.7907 -0.0317 -0.2022
 6741TIP3   OH241637   5.738   3.725  14.569  0.6772  0.3457 -0.2114
 6741TIP3    H141638   5.787   3.789  14.516  0.0636  0.3721 -0.7612
 6741TIP3    H241639   5.657   3.711  14.519 -0.2191  0.8823  1.0670
 6742TIP3   OH241640   4.016   4.563   4.409  0.3233 -0.0500 -0.5418
 6742TIP3    H141641   3.981   4.474   4.402  1.0839 -0.3215 -0.8955
 6742TIP3    H241642   3.948   4.618   4.371 -0.1456 -0.4786 -0.3373
 6743TIP3   OH241643   4.381   2.109  15.681  0.0923 -0.7171  0.2547
 6743TIP3    H141644   4.293   2.145  15.694  0.2425 -0.8388  1.6266
 6743TIP3    H241645   4.389   2.099  15.586 -1.5427 -1.1126  0.1452
 6744TIP3   OH241646   5.341   3.819   2.588  0.7741 -0.3838 -0.2696
 6744TIP3    H141647   5.431   3.786   2.593  1.5124  1.5545 -0.2303
 6744TIP3    H241648   5.345   3.906   2.628 -1.0614 -0.1490 -0.5424
 6745TIP3   OH241649   5.440   1.495  15.895  0.2168 -0.3111  0.5428
 6745TIP3    H141650   5.536   1.502  15.895  0.3148 -1.6343  0.3920
 6745TIP3    H241651   5.413   1.549  15.969  1.0810 -0.0347  0.6727
 6746TIP3   OH241652   2.260   2.696  12.199 -0.1125 -0.5245 -0.1948
 6746TIP3    H141653   2.217   2.701  12.285 -0.2277  1.3618 -0.3516
 6746TIP3    H241654   2.299   2.782  12.187 -1.8269 -0.1006 -2.9598
 6747TIP3   OH241655   6.552   3.023  13.009  0.3957 -0.3353  0.7704
 6747TIP3    H141656   6.476   3.005  13.064 -0.1273  0.4201  0.3001
 6747TIP3    H241657   6.620   2.964  13.042  0.2562  0.4897  2.5644
 6748TIP3   OH241658   2.286   4.714  14.161 -0.1642 -0.7533  0.0496
 6748TIP3    H141659   2.379   4.716  14.181 -0.1076 -0.6245 -0.2184
 6748TIP3    H241660   2.276   4.774  14.087 -0.3976 -1.0725 -0.1826
 6749TIP3   OH241661   2.367   0.432   0.738  0.0176 -0.2328 -0.7078
 6749TIP3    H141662   2.287   0.391   0.707  0.3504  0.1526 -2.1073
 6749TIP3    H241663   2.345   0.463   0.826 -0.9847 -1.2016 -0.6066
 6750TIP3   OH241664   5.728   2.776  16.356 -0.4258 -0.1404 -0.4129
 6750TIP3    H141665   5.724   2.691  16.400  0.5045  0.2870  0.5128
 6750TIP3    H241666   5.779   2.831  16.415 -0.3604  0.8417 -1.3741
 6751TIP3   OH241667   2.524   3.184  10.712 -0.5228  0.5644  0.1449
 6751TIP3    H141668   2.565   3.203  10.796  2.2733 -0.5519 -0.8996
 6751TIP3    H241669   2.591   3.207  10.647 -1.8210 -0.6560 -1.6722
 6752TIP3   OH241670   3.141   2.691  12.052  0.1328  0.1886 -0.2094
 6752TIP3    H141671   3.074   2.669  12.117  1.4026  0.0604  1.0784
 6752TIP3    H241672   3.198   2.753  12.097  0.3407  1.0347 -1.6230
 6753TIP3   OH241673   4.512   0.349  15.690 -0.1523  0.1057  0.0931
 6753TIP3    H141674   4.583   0.292  15.719 -1.8180 -1.6013  0.9343
 6753TIP3    H241675   4.498   0.410  15.763 -0.8635 -0.8403  0.7590
 6754TIP3   OH241676   4.802   4.030  10.804 -0.2170  0.4005 -0.0373
 6754TIP3    H141677   4.794   3.950  10.751  1.1186  1.3358 -1.6790
 6754TIP3    H241678   4.790   4.101  10.741  2.5146  1.5566  0.6977
 6755TIP3   OH241679   0.093   0.248   6.263  0.4377 -0.0062 -0.1149
 6755TIP3    H141680   0.146   0.312   6.311  3.2066 -0.9319 -1.7898
 6755TIP3    H241681   0.135   0.242   6.177 -3.4617  0.4476 -2.1362
 6756TIP3   OH241682   0.726   0.599  16.351 -0.2700 -0.0156 -0.3832
 6756TIP3    H141683   0.821   0.610  16.362 -0.5968  2.1125  0.4376
 6756TIP3    H241684   0.695   0.571  16.437 -0.4634 -0.3166 -0.5458
 6757TIP3   OH241685   4.811   1.196  16.583  0.1539  0.4613  0.0942
 6757TIP3    H141686   4.725   1.175  16.547  0.1097 -0.0111  0.4725
 6757TIP3    H241687   4.811   1.158  16.671  0.6736  0.6355  0.1748
 6758TIP3   OH241688   0.350   4.409  15.028 -0.0896  0.0847 -0.2908
 6758TIP3    H141689   0.402   4.419  15.108 -0.2918  0.2750 -0.1824
 6758TIP3    H241690   0.404   4.355  14.971  0.6792  1.1193 -0.5739
 6759TIP3   OH241691   3.890   0.074   1.626  0.7423  0.0274  0.4603
 6759TIP3    H141692   3.889   0.160   1.668  1.2060  0.8686 -1.1960
 6759TIP3    H241693   3.980   0.043   1.638  0.9470  0.3869 -0.1593
 6760TIP3   OH241694   3.850   4.850   4.717  0.1530 -0.2358 -0.2020
 6760TIP3    H141695   3.932   4.891   4.745 -0.1745  0.2731  0.0284
 6760TIP3    H241696   3.876   4.765   4.681  0.8319  0.1615 -0.6491
 6761TIP3   OH241697   1.238   4.468   2.901 -0.2830  0.0219 -0.3514
 6761TIP3    H141698   1.236   4.507   2.813 -1.0339 -1.5426 -1.0399
 6761TIP3    H241699   1.151   4.430   2.912  0.6816 -2.1936 -0.0513
 6762TIP3   OH241700   4.522   2.632  17.128 -0.0317  0.4516  0.2718
 6762TIP3    H141701   4.607   2.591  17.111  0.5507  2.6571 -2.6054
 6762TIP3    H241702   4.541   2.697  17.196  0.7628  1.4103 -0.8455
 6763TIP3   OH241703   4.030   2.265  12.983  0.4322  0.8046 -0.0512
 6763TIP3    H141704   4.019   2.337  12.922 -0.5915  0.1334 -0.6713
 6763TIP3    H241705   3.953   2.270  13.040  1.1164  1.1109  0.8558
 6764TIP3   OH241706   5.199   5.487   0.873 -0.1723 -0.6646  0.2254
 6764TIP3    H141707   5.122   5.519   0.827  0.6072  1.7025  0.4873
 6764TIP3    H241708   5.271   5.499   0.810  0.6803  1.3398  1.5185
 6765TIP3   OH241709   4.133   0.096   4.566 -0.2482 -0.0381 -0.1945
 6765TIP3    H141710   4.149   0.035   4.639  1.2631  0.0471 -0.4378
 6765TIP3    H241711   4.169   0.179   4.596  1.7189 -0.3549 -1.5976
 6766TIP3   OH241712   0.621   5.198  15.385  0.2522  0.0401 -0.1746
 6766TIP3    H141713   0.571   5.175  15.308  0.6483  0.3795 -0.5362
 6766TIP3    H241714   0.661   5.282  15.364  0.7032 -0.0666  0.2318
 6767TIP3   OH241715   1.390   6.607   5.521  0.6256  0.1629 -0.1310
 6767TIP3    H141716   1.337   6.531   5.545  1.2338 -0.5390 -0.9635
 6767TIP3    H241717   1.385   6.665   5.597  0.6705 -0.9988  0.7729
 6768TIP3   OH241718   5.688   6.140  12.891  0.5509  0.7588 -0.3897
 6768TIP3    H141719   5.624   6.171  12.828 -1.6819 -1.2961  0.7570
 6768TIP3    H241720   5.762   6.110  12.838 -0.8654 -0.0277 -1.9675
 6769TIP3   OH241721   0.162   1.027  11.687 -0.5721 -0.0150  0.0304
 6769TIP3    H141722   0.213   0.946  11.690 -0.5552  0.0298  1.2796
 6769TIP3    H241723   0.070   0.999  11.691 -0.5710  0.0143  0.2865
 6770TIP3   OH241724   0.499   1.658  12.132  0.7227 -0.2361 -1.0940
 6770TIP3    H141725   0.453   1.660  12.216  3.8514 -2.5147  0.7965
 6770TIP3    H241726   0.531   1.748  12.121  0.8377 -0.0606  0.4999
 6771TIP3   OH241727   6.001   0.115  17.197  0.1568 -0.2452 -0.6345
 6771TIP3    H141728   6.021   0.031  17.156 -0.7228  0.0811 -1.7731
 6771TIP3    H241729   5.916   0.101  17.239  0.9948 -0.5430  1.0283
 6772TIP3   OH241730   4.774   2.802  10.638  0.1660 -0.0952  0.0242
 6772TIP3    H141731   4.761   2.888  10.598 -2.5394 -0.0284  0.8664
 6772TIP3    H241732   4.735   2.740  10.577  0.7986 -0.5657  0.0911
 6773TIP3   OH241733   0.931   0.020   5.047  0.3078  0.7244  0.2661
 6773TIP3    H141734   0.893   0.027   5.135  1.0028  0.8692  0.5614
 6773TIP3    H241735   0.892  -0.059   5.010  0.7070  0.1467  1.0517
 6774TIP3   OH241736   3.216   1.683  11.943  0.7077  0.5772 -0.0178
 6774TIP3    H141737   3.251   1.673  12.031 -0.4306 -2.2542  0.1670
 6774TIP3    H241738   3.163   1.604  11.929 -2.6064  2.9490 -1.6263
 6775TIP3   OH241739   4.735   0.503  16.081 -0.2229  0.1672  0.1951
 6775TIP3    H141740   4.747   0.574  16.144 -1.0028 -0.4359  1.0394
 6775TIP3    H241741   4.818   0.455  16.083 -0.0497  0.4696  0.3551
 6776TIP3   OH241742   5.362   3.379   1.400  0.2274  0.2395 -0.2654
 6776TIP3    H141743   5.331   3.352   1.487 -1.3222  0.1945 -0.8336
 6776TIP3    H241744   5.407   3.462   1.416 -0.4664  0.4737  0.5035
 6777TIP3   OH241745   2.925   2.749   6.124  0.2808  0.2099 -0.2238
 6777TIP3    H141746   2.943   2.656   6.140 -1.5105 -0.0019  0.6393
 6777TIP3    H241747   2.840   2.765   6.165  0.8559  2.3928  0.1927
 6778TIP3   OH241748   6.105   5.099   2.291  0.2414 -0.0346 -0.0166
 6778TIP3    H141749   6.063   5.089   2.377  1.8404 -2.4285  0.5394
 6778TIP3    H241750   6.158   5.178   2.300  1.5111 -1.0327  1.7263
 6779TIP3   OH241751   4.739   4.343   0.613  0.0459 -0.2556 -0.0915
 6779TIP3    H141752   4.665   4.351   0.673  1.2066  1.3573  1.1738
 6779TIP3    H241753   4.703   4.359   0.527 -0.9261  1.4239  0.6163
 6780TIP3   OH241754   0.846   2.432   1.268  0.7303 -0.0560 -0.6231
 6780TIP3    H141755   0.768   2.377   1.261  0.6804  0.0931 -1.2611
 6780TIP3    H241756   0.914   2.385   1.219  0.4972  0.7851 -1.7633
 6781TIP3   OH241757   6.028   2.474   0.667  0.8675 -0.2121  0.5081
 6781TIP3    H141758   5.989   2.408   0.723 -0.6221  1.5886  1.6342
 6781TIP3    H241759   5.954   2.516   0.623  1.7975  0.5557 -0.3685
 6782TIP3   OH241760   6.542   4.078  14.912  0.1696  0.2096  0.9181
 6782TIP3    H141761   6.522   4.033  14.995 -1.0691  0.3088  0.6895
 6782TIP3    H241762   6.470   4.053  14.854 -0.1091  1.8587  0.5351
 6783TIP3   OH241763   3.898   0.387  12.352  0.3669  0.4971  0.7786
 6783TIP3    H141764   3.807   0.368  12.327  0.8888  0.5928 -1.2527
 6783TIP3    H241765   3.923   0.461  12.296  2.5480 -1.2160 -0.5659
 6784TIP3   OH241766   3.845   3.574  16.513 -0.0207  0.1726 -0.3446
 6784TIP3    H141767   3.783   3.546  16.580  0.3123  0.0512 -0.0806
 6784TIP3    H241768   3.914   3.507  16.516 -0.8706 -0.8086 -2.0370
 6785TIP3   OH241769   2.855   0.975   3.978  1.2610  0.0511 -0.3277
 6785TIP3    H141770   2.869   0.882   3.959 -1.4725 -0.0120 -2.4212
 6785TIP3    H241771   2.799   0.975   4.055  1.8220 -0.0117  0.0817
 6786TIP3   OH241772   5.821   3.706  11.263 -0.5290  0.5689 -0.2873
 6786TIP3    H141773   5.807   3.741  11.351 -1.3644  0.2368 -0.2864
 6786TIP3    H241774   5.893   3.644  11.273  0.2203  1.4713 -0.0823
 6787TIP3   OH241775   4.276   2.212  13.555  0.2329  0.0561 -0.2486
 6787TIP3    H141776   4.208   2.242  13.494  0.4073 -0.5441 -0.7385
 6787TIP3    H241777   4.325   2.292  13.576 -0.4644  0.4488 -0.0904
 6788TIP3   OH241778   3.901   6.133  11.970  0.0406  0.5688  0.3076
 6788TIP3    H141779   3.919   6.089  11.887  0.8991  2.6255 -0.6167
 6788TIP3    H241780   3.807   6.117  11.985 -0.4109  1.1915 -1.6743
 6789TIP3   OH241781   5.428   3.719  16.949 -0.4461 -0.2317 -0.4006
 6789TIP3    H141782   5.439   3.758  16.862 -0.0905  1.8731  0.5681
 6789TIP3    H241783   5.488   3.644  16.948  0.4506  0.4605 -1.5735
 6790TIP3   OH241784   2.550   2.724  12.809  0.4204 -0.1171  0.3232
 6790TIP3    H141785   2.550   2.643  12.860 -0.5609 -0.0056  0.4974
 6790TIP3    H241786   2.592   2.788  12.866 -1.7569  0.3173  1.5047
 6791TIP3   OH241787   3.033   0.371   4.286  0.0294  0.1313  0.0235
 6791TIP3    H141788   3.000   0.285   4.261  3.0329 -0.7233 -1.2731
 6791TIP3    H241789   2.968   0.406   4.346 -2.0716 -2.3327 -0.7543
 6792TIP3   OH241790   3.539   2.621   5.513 -0.6796  0.1432 -0.6995
 6792TIP3    H141791   3.444   2.611   5.507 -0.4168 -3.1554 -0.4255
 6792TIP3    H241792   3.573   2.533   5.500  2.3594  1.2415 -0.6121
 6793TIP3   OH241793   2.524   0.650  13.657  0.1299 -0.5247  0.2608
 6793TIP3    H141794   2.428   0.644  13.660  0.1519 -1.5123 -0.6536
 6793TIP3    H241795   2.549   0.588  13.589  1.2255  1.8589 -1.5994
 6794TIP3   OH241796   0.967   5.006   4.600 -0.5259  0.1967  0.6104
 6794TIP3    H141797   0.890   4.967   4.641 -0.9944  0.2846 -0.1930
 6794TIP3    H241798   0.980   4.956   4.520 -2.0699  2.6383 -1.2481
 6795TIP3   OH241799   0.055   5.299   5.363  0.1175  0.5504 -0.0755
 6795TIP3    H141800   0.012   5.341   5.437 -0.1808  0.9960 -0.5011
 6795TIP3    H241801  -0.010   5.302   5.293 -0.1547 -1.2004  0.0808
 6796TIP3   OH241802   5.185   2.198   2.306 -0.2403 -0.0189  0.7488
 6796TIP3    H141803   5.116   2.246   2.352  0.0627  1.4273 -0.2712
 6796TIP3    H241804   5.177   2.226   2.215 -0.5864 -2.5545 -0.0249
 6797TIP3   OH241805   1.026   4.808   3.969  0.0507  0.2199 -0.5665
 6797TIP3    H141806   1.012   4.766   4.054 -0.2530 -0.8675 -1.1412
 6797TIP3    H241807   0.945   4.790   3.921 -0.0175  1.3532 -0.8697
 6798TIP3   OH241808   2.370   3.607   0.241 -0.3992  0.1708 -0.8804
 6798TIP3    H141809   2.370   3.546   0.167  4.1126  0.0952 -0.9092
 6798TIP3    H241810   2.374   3.551   0.319  3.1545  0.3526 -0.8892
 6799TIP3   OH241811   4.970   3.963  15.772 -0.2990  0.1101 -0.1089
 6799TIP3    H141812   4.956   4.053  15.802  0.0047  0.5042 -1.1600
 6799TIP3    H241813   4.987   3.970  15.678 -1.2444 -1.1352 -0.3877
 6800TIP3   OH241814   6.514   0.422   2.063  0.7331 -0.1577 -0.0049
 6800TIP3    H141815   6.543   0.397   2.151  3.4953 -0.3373 -0.9253
 6800TIP3    H241816   6.549   0.510   2.050 -0.9896  0.4948 -0.3550
 6801TIP3   OH241817   2.568   4.668  14.271  0.0228  0.5267 -0.0216
 6801TIP3    H141818   2.609   4.583  14.286  0.2561  0.5575 -0.4527
 6801TIP3    H241819   2.614   4.727  14.330 -0.8248  0.1660  1.0086
 6802TIP3   OH241820   3.071   6.487   5.922  0.0142 -0.0003 -0.1214
 6802TIP3    H141821   3.120   6.452   5.996 -1.3682 -0.4909  0.5856
 6802TIP3    H241822   3.125   6.560   5.889  0.3968  0.5395  1.6741
 6803TIP3   OH241823   5.424   0.129   2.472  0.0441 -0.5496 -0.0994
 6803TIP3    H141824   5.391   0.057   2.525  1.0962 -0.1507  1.1173
 6803TIP3    H241825   5.501   0.093   2.427 -0.7656 -0.8473 -1.2686
 6804TIP3   OH241826   5.792   5.192  14.008 -0.2455  0.2793 -0.7439
 6804TIP3    H141827   5.875   5.239  14.021  0.2912 -0.9025  0.2186
 6804TIP3    H241828   5.794   5.164  13.917  1.2931 -1.3702 -0.2245
 6805TIP3   OH241829   2.685   4.712  10.590 -0.5825 -0.0799 -0.2642
 6805TIP3    H141830   2.773   4.746  10.575 -0.1450 -1.0447  0.0499
 6805TIP3    H241831   2.700   4.623  10.624 -1.6891 -0.4563 -0.7672
 6806TIP3   OH241832   5.764   2.125   1.319  0.5462  0.3681  0.4544
 6806TIP3    H141833   5.781   2.035   1.290 -0.8441  0.2973 -0.2068
 6806TIP3    H241834   5.739   2.171   1.239 -0.1179  1.0013  1.0236
 6807TIP3   OH241835   6.222   1.570   3.181  0.2033 -0.3356  0.1654
 6807TIP3    H141836   6.238   1.537   3.092  1.5286 -1.7627  0.9084
 6807TIP3    H241837   6.133   1.542   3.201  0.1009 -0.5005 -0.5059
 6808TIP3   OH241838   3.511   0.993  15.859  0.2162 -0.3855 -0.1606
 6808TIP3    H141839   3.547   0.905  15.847  2.9791  0.7496 -0.5789
 6808TIP3    H241840   3.538   1.019  15.947 -0.1429  0.2406 -0.2276
 6809TIP3   OH241841   3.144   3.407   2.378 -0.1535  0.1465  0.1574
 6809TIP3    H141842   3.067   3.454   2.411 -0.4032 -0.0624 -0.1343
 6809TIP3    H241843   3.212   3.474   2.372  0.0239  0.1049  1.5343
 6810TIP3   OH241844   1.607   1.686  13.958 -0.0467  0.0847  0.0480
 6810TIP3    H141845   1.591   1.721  14.045 -0.0432  2.8852 -1.0036
 6810TIP3    H241846   1.696   1.650  13.962 -0.2848 -0.3760  1.3543
 6811TIP3   OH241847   5.727   5.447  16.843  0.1702  0.6131  0.2499
 6811TIP3    H141848   5.680   5.502  16.780 -0.2329 -1.7752 -1.6160
 6811TIP3    H241849   5.659   5.417  16.904 -0.0858  0.0806 -0.2920
 6812TIP3   OH241850   2.376   0.972  16.281  0.0849  0.1893  0.1559
 6812TIP3    H141851   2.371   0.908  16.210  0.2185  1.1219 -0.7039
 6812TIP3    H241852   2.409   0.922  16.356 -0.4715 -0.8979 -0.3118
 6813TIP3   OH241853   5.777   1.131  11.280  0.2690  0.1146 -0.7982
 6813TIP3    H141854   5.847   1.067  11.270  0.7520  0.5314 -0.1037
 6813TIP3    H241855   5.708   1.084  11.327  0.5259  0.0359 -0.5026
 6814TIP3   OH241856   3.843   2.172   6.216  0.4077 -0.0923  0.6528
 6814TIP3    H141857   3.925   2.221   6.206  0.4894  0.0245  1.7577
 6814TIP3    H241858   3.868   2.093   6.264  0.0758 -0.6617 -0.1027
 6815TIP3   OH241859   3.150   0.957  11.475 -0.0391 -0.1265 -0.3468
 6815TIP3    H141860   3.172   0.868  11.448  1.3520 -0.8478  2.8849
 6815TIP3    H241861   3.235   1.000  11.486 -0.3401 -0.6288  4.9886
 6816TIP3   OH241862   6.550   0.404   0.679 -0.8129 -0.3762 -0.2806
 6816TIP3    H141863   6.485   0.335   0.668  0.3026 -1.4377 -0.2303
 6816TIP3    H241864   6.626   0.375   0.630 -0.2360  0.6988 -0.0475
 6817TIP3   OH241865   5.772   4.819   5.331  0.0155  0.2427  0.2539
 6817TIP3    H141866   5.818   4.898   5.359  1.4634 -0.8407  0.9967
 6817TIP3    H241867   5.792   4.813   5.237 -0.2009  0.8301  0.1697
 6818TIP3   OH241868   1.605   6.591  14.619  0.6561 -0.0429  0.3439
 6818TIP3    H141869   1.634   6.501  14.637  1.5112 -0.1059 -1.2289
 6818TIP3    H241870   1.619   6.638  14.702  2.2751 -0.8541  0.5576
 6819TIP3   OH241871   6.423   3.133  11.963  0.1082 -0.3457  0.6570
 6819TIP3    H141872   6.460   3.212  11.923 -0.6230 -1.1110 -1.5974
 6819TIP3    H241873   6.347   3.165  12.011  0.2776  0.4328  0.4293
 6820TIP3   OH241874   4.407   2.337   6.561 -0.4629 -0.4953  0.3634
 6820TIP3    H141875   4.360   2.399   6.616  4.1099  2.7502  0.8982
 6820TIP3    H241876   4.431   2.387   6.483  0.5211 -2.5726 -0.7208
 6821TIP3   OH241877   1.506   0.837  12.366  0.4403  0.0281 -0.3368
 6821TIP3    H141878   1.515   0.744  12.391 -1.3681 -0.1221 -0.1960
 6821TIP3    H241879   1.477   0.834  12.275 -0.6551  0.4440  0.0029
 6822TIP3   OH241880   6.073   3.959  15.193 -0.6717  0.6121 -0.1655
 6822TIP3    H141881   6.037   4.043  15.165  1.4225  1.8507  0.7827
 6822TIP3    H241882   6.088   3.969  15.287  0.6831 -0.4099 -0.2560
 6823TIP3   OH241883   6.309   3.792   4.173  0.3846  0.5655 -0.2773
 6823TIP3    H141884   6.319   3.761   4.263 -1.0262 -0.9415 -0.6121
 6823TIP3    H241885   6.277   3.882   4.183  1.6862  0.9373  0.7159
 6824TIP3   OH241886   2.501   1.319  17.013 -0.4744 -0.4229 -0.0387
 6824TIP3    H141887   2.593   1.309  16.989 -0.5007  1.0580 -0.8005
 6824TIP3    H241888   2.503   1.346  17.105 -0.1757 -1.0386  0.1390
 6825TIP3   OH241889   0.282   4.261   0.929  0.2732 -0.1454  0.2902
 6825TIP3    H141890   0.295   4.225   1.016 -3.3814 -0.3234  0.8249
 6825TIP3    H241891   0.313   4.352   0.935 -0.9000  0.1489  2.0737
 6826TIP3   OH241892   0.326   4.163   2.582 -0.3537  0.4030  0.5748
 6826TIP3    H141893   0.358   4.253   2.572 -1.6282  0.6452 -1.3654
 6826TIP3    H241894   0.232   4.172   2.592 -0.4001 -0.6864  1.1794
 6827TIP3   OH241895   6.443   3.888  15.086 -0.0550  0.1491  0.7828
 6827TIP3    H141896   6.359   3.842  15.082 -0.2970  0.6750 -0.4859
 6827TIP3    H241897   6.459   3.900  15.180 -0.0008 -2.4452  1.1379
 6828TIP3   OH241898   4.603   5.230   6.232  0.0676  0.1726 -0.2191
 6828TIP3    H141899   4.540   5.177   6.280  2.3583 -1.6149  0.9355
 6828TIP3    H241900   4.573   5.320   6.243 -0.5603 -0.3655  2.9173
 6829TIP3   OH241901   1.866   3.681  17.015 -0.2571 -0.4648  0.0946
 6829TIP3    H141902   1.945   3.730  16.992 -1.0361  0.0820 -1.5579
 6829TIP3    H241903   1.837   3.720  17.098  1.0067 -0.4402  0.5366
 6830TIP3   OH241904   1.554   4.385  11.623  0.0763 -0.3434 -0.1586
 6830TIP3    H141905   1.586   4.376  11.533 -0.2057 -0.8838 -0.2113
 6830TIP3    H241906   1.569   4.299  11.662 -0.6885 -0.4019  0.0170
 6831TIP3   OH241907   0.060   1.316  14.107  0.5274  0.3352  0.1362
 6831TIP3    H141908   0.104   1.354  14.030  0.1149 -2.6505 -1.6313
 6831TIP3    H241909  -0.008   1.260  14.070 -0.9479  0.3658  2.7600
 6832TIP3   OH241910   4.810   6.366  10.871  0.3793  0.0016 -0.7948
 6832TIP3    H141911   4.769   6.451  10.854  2.7319  1.0115 -1.6612
 6832TIP3    H241912   4.752   6.303  10.828  0.0858  1.4526 -2.6233
 6833TIP3   OH241913   1.303   2.556   4.643 -0.2507  0.0143  0.4047
 6833TIP3    H141914   1.391   2.564   4.607 -1.2939  1.6632 -1.8662
 6833TIP3    H241915   1.288   2.639   4.688 -0.4664 -0.4976  1.3087
 6834TIP3   OH241916   5.460   0.716  16.342 -0.2467  0.0364  0.1416
 6834TIP3    H141917   5.392   0.780  16.366 -1.5733 -0.8236 -1.2075
 6834TIP3    H241918   5.448   0.702  16.248  2.9976  1.1817 -0.5075
 6835TIP3   OH241919   3.103   5.524   0.327  0.0205 -0.4320  0.1146
 6835TIP3    H141920   3.019   5.510   0.283  0.3487  0.7615 -0.9418
 6835TIP3    H241921   3.081   5.574   0.405 -0.3409 -0.7710  0.2294
 6836TIP3   OH241922   5.846   2.414  14.986 -0.3994  1.1003 -0.4065
 6836TIP3    H141923   5.800   2.331  14.983  1.2028  0.2299 -1.8182
 6836TIP3    H241924   5.820   2.460  14.906  0.3741  1.0319 -0.7060
 6837TIP3   OH241925   6.396   6.264   2.070 -0.4036 -0.5021 -0.0115
 6837TIP3    H141926   6.460   6.333   2.049  0.1803 -0.7545  0.9366
 6837TIP3    H241927   6.320   6.286   2.016 -0.5465  1.3881  0.8799
 6838TIP3   OH241928   3.570   1.564  16.611 -0.0507 -0.3265 -0.1069
 6838TIP3    H141929   3.661   1.583  16.591 -0.7389  1.2558 -1.8715
 6838TIP3    H241930   3.557   1.602  16.699  0.1756  2.2956 -1.1528
 6839TIP3   OH241931   4.105   0.053   6.343 -0.2500  0.0692 -0.4657
 6839TIP3    H141932   4.160   0.080   6.270  0.2211  0.8586  0.1903
 6839TIP3    H241933   4.166   0.027   6.412 -0.6931  0.6924  0.1654
 6840TIP3   OH241934   1.126   5.239  12.161  0.1272 -0.1218 -0.2344
 6840TIP3    H141935   1.177   5.159  12.160  1.4429  0.7057  0.2681
 6840TIP3    H241936   1.081   5.238  12.246  1.2185  0.3291  0.3652
 6841TIP3   OH241937   5.891   2.576   1.766  0.0418 -0.1998 -0.6577
 6841TIP3    H141938   5.799   2.603   1.763  0.6801  2.0918 -1.0656
 6841TIP3    H241939   5.930   2.618   1.689  1.3746 -1.4127 -0.6662
 6842TIP3   OH241940   6.202   3.508   3.911 -0.5485 -0.3115  0.2502
 6842TIP3    H141941   6.175   3.550   3.994  1.1697  0.4039  0.4704
 6842TIP3    H241942   6.120   3.487   3.868 -1.5241 -2.2919  2.9280
 6843TIP3   OH241943   0.337   6.435   2.056  0.1365 -0.2112  0.1271
 6843TIP3    H141944   0.317   6.384   2.135  1.9531 -1.5568 -0.2466
 6843TIP3    H241945   0.359   6.522   2.089  0.0768 -0.5312  1.0423
 6844TIP3   OH241946   5.803   5.214   1.494  0.0446  0.0022 -0.2577
 6844TIP3    H141947   5.818   5.278   1.425  0.9169 -0.0813 -0.1435
 6844TIP3    H241948   5.872   5.230   1.558  0.3071 -1.0970 -0.2597
 6845TIP3   OH241949   2.551   0.030  14.246  1.0167  0.4012  0.3058
 6845TIP3    H141950   2.475   0.048  14.301  0.8444  1.0711 -0.1506
 6845TIP3    H241951   2.614  -0.011  14.305 -0.1146 -1.1988  0.4449
 6846TIP3   OH241952   6.611   4.371  11.585 -0.0443 -0.3612  0.1231
 6846TIP3    H141953   6.671   4.321  11.641  0.9903 -0.8404 -1.3800
 6846TIP3    H241954   6.563   4.305  11.536 -1.1368  0.0533  0.5954
 6847TIP3   OH241955   2.362   4.124  14.435 -0.0404 -0.2081  0.7738
 6847TIP3    H141956   2.382   4.094  14.347 -2.1730  2.8776 -0.8550
 6847TIP3    H241957   2.430   4.190  14.453 -1.3286  1.3177  0.1875
 6848TIP3   OH241958   4.832   6.196   0.066  0.6045  0.1040 -0.2868
 6848TIP3    H141959   4.897   6.174   0.133  0.2525 -0.1737 -0.0332
 6848TIP3    H241960   4.767   6.250   0.113  0.3429 -0.1151 -0.3957
 6849TIP3   OH241961   0.620   5.675   4.865  0.0645  0.1580  0.8032
 6849TIP3    H141962   0.620   5.598   4.808 -1.5055 -0.6651  1.8854
 6849TIP3    H241963   0.572   5.741   4.815  2.7640  1.0167 -0.8076
 6850TIP3   OH241964   5.078   0.248  15.707  0.8019  0.4278  0.0821
 6850TIP3    H141965   5.061   0.162  15.747 -1.5587  0.8020 -0.0427
 6850TIP3    H241966   5.047   0.311  15.773  0.8480  1.1360 -0.5673
 6851TIP3   OH241967   1.741   2.477   4.204 -0.1087  0.3757  0.2632
 6851TIP3    H141968   1.654   2.517   4.200  0.2698  1.4151  1.9012
 6851TIP3    H241969   1.727   2.389   4.238 -0.5569  0.4222  0.1902
 6852TIP3   OH241970   1.406   1.028   1.702 -0.5130 -0.0847 -0.0285
 6852TIP3    H141971   1.461   1.011   1.626  1.2171 -0.1797  1.2189
 6852TIP3    H241972   1.375   1.118   1.688 -1.5502 -0.6624 -1.6346
 6853TIP3   OH241973   4.428   4.965   5.603  0.3411  0.0611  0.5719
 6853TIP3    H141974   4.464   4.923   5.524  1.0145  0.9209  0.4099
 6853TIP3    H241975   4.505   4.992   5.652 -0.0490 -1.8369  2.2946
 6854TIP3   OH241976   5.575   4.501   3.813  0.0844  0.5635  0.0223
 6854TIP3    H141977   5.660   4.497   3.770 -0.9868  1.3084 -2.2241
 6854TIP3    H241978   5.514   4.467   3.748 -1.2070 -1.1031  2.0476
 6855TIP3   OH241979   5.652   5.202   5.279 -0.3523  0.0878 -0.4704
 6855TIP3    H141980   5.613   5.287   5.299 -1.3624 -0.7975  1.5354
 6855TIP3    H241981   5.578   5.141   5.279  0.7489 -1.3066  1.4317
 6856TIP3   OH241982   4.598   1.271  12.048  0.4537  0.1456 -0.0624
 6856TIP3    H141983   4.656   1.284  12.123  1.6954  1.2625 -1.1801
 6856TIP3    H241984   4.515   1.311  12.074  0.6354 -0.1350  0.9802
 6857TIP3   OH241985   3.646   1.750   1.586  0.1403  0.0787 -0.6148
 6857TIP3    H141986   3.579   1.816   1.567  0.7320  0.7128 -0.5482
 6857TIP3    H241987   3.670   1.765   1.677  1.6177  1.0245 -1.1322
 6858TIP3   OH241988   5.061   6.202  14.845  0.0741  0.0063 -0.1096
 6858TIP3    H141989   5.099   6.150  14.916 -1.3929  1.8965  2.1191
 6858TIP3    H241990   5.137   6.242  14.802  0.9268 -0.2692  1.1148
 6859TIP3   OH241991   0.959   3.987  17.088  0.6381  0.5710  0.5284
 6859TIP3    H141992   0.936   3.976  17.180 -0.9425 -0.6039  0.0111
 6859TIP3    H241993   1.045   3.947  17.079  0.6897  0.4729  1.4435
 6860TIP3   OH241994   3.195   3.016  10.911 -1.0648 -0.0024  0.2632
 6860TIP3    H141995   3.271   2.969  10.876 -1.8275  0.5913 -2.2825
 6860TIP3    H241996   3.198   2.999  11.005 -0.4510 -3.9110 -0.3632
 6861TIP3   OH241997   3.338   3.267   5.686  0.0635  0.2887 -0.0458
 6861TIP3    H141998   3.400   3.234   5.752 -0.0524 -1.4265 -0.7611
 6861TIP3    H241999   3.356   3.361   5.681  2.8048 -0.2196 -0.4512
 6862TIP3   OH242000   4.396   0.089   5.611 -0.2895 -0.6666  0.2625
 6862TIP3    H142001   4.351   0.147   5.672 -0.3802 -1.1327  0.6461
 6862TIP3    H242002   4.466   0.049   5.663  1.1174  0.6777 -0.5365
 6863TIP3   OH242003   6.495   3.648  13.404 -1.0707 -0.4184  0.3613
 6863TIP3    H142004   6.561   3.716  13.423 -2.4450  1.5709 -1.7223
 6863TIP3    H242005   6.425   3.665  13.467 -0.2556 -1.6558  1.6415
 6864TIP3   OH242006   0.560   5.500  10.925 -0.2119 -0.5519  0.4935
 6864TIP3    H142007   0.609   5.476  11.003 -0.0422  1.0419  0.8981
 6864TIP3    H242008   0.606   5.577  10.890 -2.6948  1.3172  1.2002
 6865TIP3   OH242009   3.081   2.417   5.603 -0.3058 -0.5229 -0.3011
 6865TIP3    H142010   3.128   2.345   5.645  0.3654  0.5943  0.9029
 6865TIP3    H242011   3.146   2.487   5.596 -1.2994  0.4150 -0.2894
 6866TIP3   OH242012   5.111   6.638  16.669  0.0328 -0.5259 -0.5794
 6866TIP3    H142013   5.200   6.626  16.700 -0.6356  0.1250  1.7252
 6866TIP3    H242014   5.077   6.712  16.720 -1.8042 -0.7289 -1.4381
 6867TIP3   OH242015   2.201   1.948   0.286 -0.2248  0.1141  0.2994
 6867TIP3    H142016   2.190   2.040   0.309 -0.4818 -0.3904  2.3197
 6867TIP3    H242017   2.264   1.915   0.350  0.0407 -1.0595 -0.5526
 6868TIP3   OH242018   0.954   3.363  15.928 -0.1760 -0.5862 -0.2310
 6868TIP3    H142019   1.035   3.414  15.928  0.7958 -1.9833 -3.5679
 6868TIP3    H242020   0.980   3.277  15.963 -0.4133 -0.7393 -0.4272
 6869TIP3   OH242021   2.095   6.149  12.859  0.0811  0.4219 -0.6890
 6869TIP3    H142022   2.027   6.213  12.881 -0.9117 -1.0892  0.7671
 6869TIP3    H242023   2.177   6.193  12.879 -0.6134  1.0567  0.7965
 6870TIP3   OH242024   1.888   0.075   4.381  0.2031 -0.3718 -0.1066
 6870TIP3    H142025   1.917  -0.004   4.427  0.4379 -0.4058 -0.3144
 6870TIP3    H242026   1.816   0.109   4.435 -0.0216 -0.8262 -0.1167
 6871TIP3   OH242027   6.404   3.613   0.058 -0.3882  0.3035 -0.0090
 6871TIP3    H142028   6.463   3.680   0.026  0.8224 -0.7872 -0.0842
 6871TIP3    H242029   6.318   3.639   0.025  0.0390  1.9054  0.1216
 6872TIP3   OH242030   5.976   4.248  16.471  0.4457 -0.3041  0.1896
 6872TIP3    H142031   6.020   4.279  16.393 -0.0951 -0.1898 -0.0722
 6872TIP3    H242032   5.946   4.327  16.515  0.3583 -0.3883  0.2823
 6873TIP3   OH242033   6.366   0.257  15.812 -0.1695 -0.0748  0.3476
 6873TIP3    H142034   6.362   0.212  15.896 -0.2007 -0.2314  0.2611
 6873TIP3    H242035   6.459   0.267  15.794 -0.1298 -2.1156 -0.7091
 6874TIP3   OH242036   1.142   1.045  14.659  0.3654 -0.3013  0.2226
 6874TIP3    H142037   1.064   0.989  14.653  0.4915 -0.5221  0.6598
 6874TIP3    H242038   1.214   0.984  14.673  0.5643 -0.0632  0.2294
 6875TIP3   OH242039   1.135   0.414  14.359  0.1206 -0.4588 -1.1904
 6875TIP3    H142040   1.078   0.487  14.334  0.9552  0.1213 -1.4158
 6875TIP3    H242041   1.113   0.397  14.450  3.1500  3.1545  0.3461
 6876TIP3   OH242042   1.172   5.552   4.584  0.0348  0.0546 -0.4052
 6876TIP3    H142043   1.263   5.546   4.557  0.2228  3.0903 -0.6704
 6876TIP3    H242044   1.122   5.542   4.503  0.2309  0.4947 -0.5830
 6877TIP3   OH242045   5.136   3.618  11.647  0.2800  0.3901  0.1776
 6877TIP3    H142046   5.177   3.567  11.577 -0.3344 -1.7026  1.3044
 6877TIP3    H242047   5.046   3.630  11.618  0.3827  0.7026 -0.0151
 6878TIP3   OH242048   0.042   2.641  15.704 -0.7639 -0.1720 -0.0061
 6878TIP3    H142049   0.128   2.681  15.711 -1.0364  0.4136  0.1079
 6878TIP3    H242050  -0.012   2.709  15.661 -0.7607 -1.1475 -1.5972
 6879TIP3   OH242051   1.963   4.865  15.102  0.3167 -0.6728 -0.3764
 6879TIP3    H142052   2.044   4.880  15.151 -1.5706  1.7957  2.1992
 6879TIP3    H242053   1.974   4.916  15.022  0.9864  0.2758  0.3082
 6880TIP3   OH242054   0.413   5.220  16.154  0.4127  0.1270 -0.3058
 6880TIP3    H142055   0.348   5.209  16.223  1.0493 -0.2319  0.2388
 6880TIP3    H242056   0.370   5.186  16.075 -0.1828  0.2062 -0.0232
 6881TIP3   OH242057   1.003   3.846  16.354  0.3956 -0.2324 -0.1815
 6881TIP3    H142058   0.953   3.782  16.403 -0.1936  0.3910  0.0347
 6881TIP3    H242059   1.090   3.844  16.394  0.6794 -1.6033 -0.8270
 6882TIP3   OH242060   5.809   1.056  13.706 -0.5660  0.2898  0.6418
 6882TIP3    H142061   5.895   1.088  13.733 -0.8031  0.7522  0.8627
 6882TIP3    H242062   5.761   1.041  13.788 -1.0296  0.9837  0.5079
 6883TIP3   OH242063   3.601   3.203   4.727  0.3079 -0.0046  0.5262
 6883TIP3    H142064   3.697   3.203   4.718  0.6362 -1.5358  3.3859
 6883TIP3    H242065   3.586   3.208   4.822 -2.4271 -1.4698  0.2098
 6884TIP3   OH242066   2.165   1.506  13.308 -0.5175 -0.4700 -0.0812
 6884TIP3    H142067   2.258   1.503  13.285 -0.9334 -0.5594 -1.8155
 6884TIP3    H242068   2.133   1.417  13.289 -1.0486 -0.3182  0.1007
 6885TIP3   OH242069   2.788   0.042   6.513  0.4387  0.0191 -0.4322
 6885TIP3    H142070   2.848   0.055   6.586  1.2889  1.7981 -1.4013
 6885TIP3    H242071   2.807  -0.047   6.482  1.1587 -0.1667  0.5164
 6886TIP3   OH242072   3.204   4.477  11.622 -0.2588 -0.0193 -0.1540
 6886TIP3    H142073   3.133   4.428  11.662  0.4275  0.7475  2.0977
 6886TIP3    H242074   3.194   4.462  11.528 -1.7993 -2.0417  0.2975
 6887TIP3   OH242075   6.198   4.780   1.153 -0.4906  0.3440  0.1788
 6887TIP3    H142076   6.270   4.763   1.093  0.2366  0.8264  0.9141
 6887TIP3    H242077   6.121   4.743   1.109  0.2154 -0.2691 -0.5501
 6888TIP3   OH242078   2.528   2.444   6.249 -0.6603 -0.2909  0.4978
 6888TIP3    H142079   2.436   2.445   6.222 -0.4422 -3.4728 -0.6590
 6888TIP3    H242080   2.526   2.407   6.337 -0.5276 -0.0633  0.5940
 6889TIP3   OH242081   5.150   3.812   5.225 -0.2335 -0.2160  0.3111
 6889TIP3    H142082   5.227   3.755   5.229 -0.0628 -0.0866 -0.9043
 6889TIP3    H242083   5.182   3.897   5.257 -0.0728 -0.3634  0.5478
 6890TIP3   OH242084   1.813   4.731  17.218 -0.6113  0.0421  0.0698
 6890TIP3    H142085   1.797   4.641  17.244 -2.0203  0.2397 -0.1074
 6890TIP3    H242086   1.746   4.750  17.153  0.1464  0.9808 -0.4491
 6891TIP3   OH242087   5.586   1.127   2.923  0.2442  0.2050  0.1249
 6891TIP3    H142088   5.557   1.046   2.965 -2.3417  0.8373 -0.3149
 6891TIP3    H242089   5.595   1.105   2.831 -0.7149  0.4417 -0.0380
 6892TIP3   OH242090   2.895   1.877  15.972  0.1992  0.4112  0.0238
 6892TIP3    H142091   2.811   1.886  16.017  0.2559  0.2359  0.1625
 6892TIP3    H242092   2.940   1.959  15.989  0.1013  0.4604  0.0443
 6893TIP3   OH242093   2.768   0.349   0.584  0.0076 -0.3749  0.5902
 6893TIP3    H142094   2.707   0.368   0.656 -0.3989 -1.5448  0.5612
 6893TIP3    H242095   2.748   0.259   0.558  0.0760  0.0726 -1.0742
 6894TIP3   OH242096   4.709   4.729   5.346 -0.0046  0.0691  0.3277
 6894TIP3    H142097   4.691   4.645   5.389  0.9073 -0.5307 -0.4333
 6894TIP3    H242098   4.800   4.722   5.319  0.6215  2.0109  1.8022
 6895TIP3   OH242099   2.661   6.086   4.298  0.0951 -0.7229  0.0224
 6895TIP3    H142100   2.717   6.084   4.375  0.5303 -0.2842 -0.2758
 6895TIP3    H242101   2.681   6.006   4.250 -0.8740 -1.4583  0.8551
 6896TIP3   OH242102   2.473   4.227  15.848 -0.3683 -0.1635  0.1689
 6896TIP3    H142103   2.489   4.306  15.900 -0.5770 -0.9193  1.3872
 6896TIP3    H242104   2.398   4.185  15.889  1.4147 -2.4226  1.2247
 6897TIP3   OH242105   2.613   5.222   6.003  0.6178  0.4069 -0.0467
 6897TIP3    H142106   2.554   5.269   5.944 -0.8832  0.7919  1.6959
 6897TIP3    H242107   2.668   5.291   6.041 -0.5360  0.5804  1.3401
 6898TIP3   OH242108   4.041   5.850   0.365 -0.0610 -0.4729  0.4240
 6898TIP3    H142109   4.004   5.806   0.288  1.2284 -2.6752  1.0232
 6898TIP3    H242110   4.133   5.864   0.342 -0.4107  1.8462  0.3054
 6899TIP3   OH242111   4.214   6.718   2.413 -0.7847 -0.2236 -0.5977
 6899TIP3    H142112   4.303   6.751   2.417 -0.2682 -1.6497  0.1747
 6899TIP3    H242113   4.162   6.782   2.463  0.1663 -0.5220  0.7819
 6900TIP3   OH242114   0.829   3.810  14.611 -0.0058  0.1882 -0.3620
 6900TIP3    H142115   0.864   3.842  14.694  0.0677  0.0270 -0.3305
 6900TIP3    H242116   0.894   3.746  14.581  1.1717  1.9760 -1.6985
 6901TIP3   OH242117   1.777   1.107  11.982  0.1910 -0.0239  0.2855
 6901TIP3    H142118   1.756   1.028  12.032  2.4240  0.1102  1.5223
 6901TIP3    H242119   1.772   1.178  12.045 -2.3022  0.9324 -0.9368
 6902TIP3   OH242120   6.199   0.690  15.219  0.2475  0.3571  0.3045
 6902TIP3    H142121   6.176   0.694  15.126 -1.7921  0.0014  0.7752
 6902TIP3    H242122   6.150   0.761  15.259  1.4985  0.8208  1.0649
 6903TIP3   OH242123   5.066   1.730   4.835 -0.6701 -0.3045 -0.0830
 6903TIP3    H142124   5.048   1.810   4.786 -0.2761 -1.2491 -1.7737
 6903TIP3    H242125   5.061   1.758   4.927 -0.9300  1.5710 -0.6358
 6904TIP3   OH242126   5.716   5.426   3.952 -0.1375  0.2319 -0.3733
 6904TIP3    H142127   5.731   5.467   4.037 -1.1345  2.9540 -1.4564
 6904TIP3    H242128   5.801   5.390   3.927  0.6901  1.3583  0.7742
 6905TIP3   OH242129   5.059   0.230   0.497  1.0804 -0.0385 -0.2212
 6905TIP3    H142130   5.147   0.262   0.474  1.3466 -2.0135 -2.0870
 6905TIP3    H242131   5.065   0.135   0.489 -0.9744 -0.2695  0.6529
 6906TIP3   OH242132   4.214   6.255   2.930 -1.0281 -0.5604 -0.2238
 6906TIP3    H142133   4.143   6.270   2.868 -0.0400  0.2708 -1.1804
 6906TIP3    H242134   4.284   6.217   2.876 -0.4667 -0.6295  0.5565
 6907TIP3   OH242135   2.550   0.325  14.160 -0.2935  0.1964 -0.1060
 6907TIP3    H142136   2.607   0.292  14.091 -0.2199  2.6819 -1.2882
 6907TIP3    H242137   2.468   0.347  14.115 -0.7057  0.5920  0.8254
 6908TIP3   OH242138   3.190   0.850   2.214 -0.6390  0.2404  0.1471
 6908TIP3    H142139   3.275   0.881   2.182 -0.1470  0.3725  1.5213
 6908TIP3    H242140   3.212   0.803   2.295 -1.6806 -1.2860 -0.4352
 6909TIP3   OH242141   2.414   3.854  11.785 -0.4785 -0.2502  0.7395
 6909TIP3    H142142   2.501   3.858  11.746 -1.4584  1.0811 -1.3606
 6909TIP3    H242143   2.420   3.910  11.863  0.2399  0.7667 -0.0363
 6910TIP3   OH242144   5.565   1.495   6.418  0.3769 -0.0201 -0.0881
 6910TIP3    H142145   5.604   1.439   6.486 -1.5730 -0.9207  0.3312
 6910TIP3    H242146   5.483   1.525   6.457  0.3447  1.3323 -1.1850
 6911TIP3   OH242147   0.726   0.591   0.864 -0.3572 -0.3235  0.0953
 6911TIP3    H142148   0.696   0.617   0.951 -1.9319 -0.3165 -0.4251
 6911TIP3    H242149   0.676   0.648   0.804  0.1665 -0.8342 -0.8371
 6912TIP3   OH242150   0.851   4.217  11.355  0.4395 -0.8998  0.2587
 6912TIP3    H142151   0.838   4.129  11.392 -0.9310 -0.4746  0.8184
 6912TIP3    H242152   0.816   4.211  11.266  0.4069 -0.9353  0.2738
 6913TIP3   OH242153   5.810   0.941  13.188 -0.7240  0.0853 -0.3365
 6913TIP3    H142154   5.824   0.954  13.282  0.7722  0.8176 -0.6562
 6913TIP3    H242155   5.722   0.975  13.173 -0.8290  0.3126  0.7294
 6914TIP3   OH242156   0.530   0.980  15.592  0.0263  0.7973 -0.1063
 6914TIP3    H142157   0.578   1.028  15.524 -0.2717  1.0586 -0.1328
 6914TIP3    H242158   0.484   1.048  15.641  0.4942  0.6370  0.5585
 6915TIP3   OH242159   6.525   3.522  16.980 -0.3264  0.2433  0.1116
 6915TIP3    H142160   6.575   3.604  16.972 -1.3634  0.7669 -1.1096
 6915TIP3    H242161   6.587   3.454  16.953  0.2971  0.6938  0.3828
 6916TIP3   OH242162   4.951   5.372   4.610 -0.3336 -0.0821  0.5839
 6916TIP3    H142163   4.953   5.345   4.519  0.9170  1.1545  0.2328
 6916TIP3    H242164   4.960   5.468   4.608  0.4894 -0.1060  2.0271
 6917TIP3   OH242165   0.296   4.185   1.428 -0.0706 -0.0896  0.0808
 6917TIP3    H142166   0.255   4.260   1.470 -2.5862 -1.2909 -0.1386
 6917TIP3    H242167   0.304   4.120   1.497 -1.8317 -1.1353 -0.6669
 6918TIP3   OH242168   0.966   3.510  12.254  0.1257  0.0902 -0.4723
 6918TIP3    H142169   0.949   3.554  12.171 -0.6226  1.3289  0.3251
 6918TIP3    H242170   0.888   3.526  12.307  0.1424 -1.5841  0.1051
 6919TIP3   OH242171   0.095   6.708   3.092  0.0090 -0.2501  0.6594
 6919TIP3    H142172   0.184   6.711   3.128  0.4144  2.5775 -0.4071
 6919TIP3    H242173   0.061   6.797   3.106 -2.6240 -1.2712  0.9747
 6920TIP3   OH242174   5.974   3.527  13.664  0.3968 -0.2652 -0.2560
 6920TIP3    H142175   6.023   3.460  13.616  0.0602 -0.5992 -0.1338
 6920TIP3    H242176   6.028   3.545  13.741  0.4834 -0.4049 -0.2826
 6921TIP3   OH242177   3.067   3.115  11.544 -0.3504 -0.1009 -0.3650
 6921TIP3    H142178   3.070   3.211  11.544 -0.7467 -0.0691  0.9730
 6921TIP3    H242179   3.152   3.089  11.578 -0.9967 -0.1517  1.2811
 6922TIP3   OH242180   3.495   2.343  16.118 -0.2410  0.2988 -0.6335
 6922TIP3    H142181   3.537   2.307  16.040 -1.1483 -0.7425 -0.6641
 6922TIP3    H242182   3.401   2.345  16.096 -0.3889  0.9833  0.0421
 6923TIP3   OH242183   2.049   1.316  16.237 -0.2971 -0.1779  0.2193
 6923TIP3    H142184   2.030   1.308  16.330 -0.6501 -0.6220  0.1141
 6923TIP3    H242185   1.975   1.366  16.201  0.0200  0.3044  0.2380
 6924TIP3   OH242186   2.473   3.940   1.436 -0.5189 -0.0358 -0.0101
 6924TIP3    H142187   2.424   3.983   1.366 -0.0295  1.9939  0.8680
 6924TIP3    H242188   2.415   3.944   1.512  0.5011  1.2830  0.7112
 6925TIP3   OH242189   6.151   3.397  11.464 -0.2274 -0.1826  0.2421
 6925TIP3    H142190   6.205   3.459  11.415  0.3477 -0.8966 -0.0285
 6925TIP3    H242191   6.208   3.368  11.536 -0.2044 -1.0375 -0.1210
 6926TIP3   OH242192   1.060   5.512   0.674  0.2625 -0.4803  0.1780
 6926TIP3    H142193   1.048   5.499   0.768 -0.6791 -0.1247  0.1138
 6926TIP3    H242194   1.089   5.603   0.666 -1.1112 -0.0507  0.0168
 6927TIP3   OH242195   0.318   2.243   3.704 -0.2566  0.2135  0.9145
 6927TIP3    H142196   0.263   2.182   3.654  0.5288 -0.3467  0.7158
 6927TIP3    H242197   0.378   2.279   3.639 -0.0242  0.3976  1.2324
 6928TIP3   OH242198   1.888   3.101  15.601  0.7373  0.3628 -0.3249
 6928TIP3    H142199   1.842   3.106  15.518  0.5510  0.7482 -0.2015
 6928TIP3    H242200   1.946   3.026  15.592  0.0360 -0.1690 -0.4584
 6929TIP3   OH242201   6.229   0.848   4.090  0.6736  0.3237 -0.1437
 6929TIP3    H142202   6.187   0.820   4.008  1.6821  1.3250 -1.0132
 6929TIP3    H242203   6.178   0.805   4.159 -1.4691  1.1005 -1.2036
 6930TIP3   OH242204   0.182   2.285  16.094 -0.0821  0.0968  0.1959
 6930TIP3    H142205   0.128   2.206  16.090 -1.8047  1.2887 -0.2260
 6930TIP3    H242206   0.239   2.278  16.017  1.2561 -1.7399  1.2809
 6931TIP3   OH242207   3.586   5.243   3.249  0.1729  0.5320 -0.0619
 6931TIP3    H142208   3.675   5.207   3.241  0.0144  0.3350 -1.0225
 6931TIP3    H242209   3.537   5.200   3.178 -0.1621  2.2148 -0.8651
 6932TIP3   OH242210   3.400   6.122   1.877 -0.2124  0.3804  0.0808
 6932TIP3    H142211   3.477   6.144   1.825  0.3829  0.0145  0.7868
 6932TIP3    H242212   3.386   6.029   1.861 -0.6197  0.4832 -0.1811
 6933TIP3   OH242213   1.023   4.124   3.202 -0.2951  0.3668  0.4051
 6933TIP3    H142214   0.954   4.100   3.264  0.7397  1.2106  1.9208
 6933TIP3    H242215   1.039   4.217   3.219 -1.4336  1.1538 -2.5844
 6934TIP3   OH242216   1.109   6.053  14.299 -0.0073  0.2448 -0.4303
 6934TIP3    H142217   1.185   6.111  14.290 -0.5504  0.9787 -0.4178
 6934TIP3    H242218   1.044   6.107  14.344 -1.3333  0.3833 -2.4543
 6935TIP3   OH242219   2.408   4.101   2.685 -0.2580 -0.7337 -0.2190
 6935TIP3    H142220   2.448   4.188   2.676  0.8071 -1.2511 -0.5437
 6935TIP3    H242221   2.350   4.109   2.761 -1.1561  0.6302 -1.0320
 6936TIP3   OH242222   3.533   2.880   5.443 -0.4189 -0.2101  0.3217
 6936TIP3    H142223   3.551   2.786   5.443 -0.7869 -0.2849  1.8172
 6936TIP3    H242224   3.587   2.915   5.514 -0.9980  0.5597  0.3885
 6937TIP3   OH242225   0.463   5.494   2.788 -0.2307 -0.0556 -0.1707
 6937TIP3    H142226   0.449   5.408   2.748  1.6054 -1.3011  1.7588
 6937TIP3    H242227   0.543   5.527   2.747  1.5005 -1.2134  2.1587
 6938TIP3   OH242228   4.388   2.332   1.993 -0.0077 -0.4134 -0.2846
 6938TIP3    H142229   4.329   2.346   2.067  1.5953 -1.0875  1.1518
 6938TIP3    H242230   4.432   2.249   2.012  1.0790 -0.1412 -1.5348
 6939TIP3   OH242231   0.584   6.701   0.992  0.1398 -0.3005  0.2572
 6939TIP3    H142232   0.517   6.699   1.061  1.4758  0.1994  1.5852
 6939TIP3    H242233   0.631   6.783   1.006  0.0573  0.0912 -1.6222
 6940TIP3   OH242234   2.427   4.768  16.377  0.3063 -0.1788  0.5783
 6940TIP3    H142235   2.391   4.687  16.414  0.9863 -0.5705  0.4030
 6940TIP3    H242236   2.515   4.775  16.414  1.3274 -1.0251 -1.5309
 6941TIP3   OH242237   2.843   0.379   2.727 -0.5485  0.1609  0.1224
 6941TIP3    H142238   2.795   0.310   2.682 -1.8642  2.1529 -1.6541
 6941TIP3    H242239   2.926   0.339   2.750 -1.6290 -2.2750 -0.0448
 6942TIP3   OH242240   0.733   6.136   1.042  0.1119  0.3351 -0.0865
 6942TIP3    H142241   0.742   6.181   0.958  1.4154  2.0536  0.9496
 6942TIP3    H242242   0.668   6.186   1.090 -0.3924 -0.4596  0.0787
 6943TIP3   OH242243   0.207   1.410   5.719 -0.1554  0.6494 -0.0555
 6943TIP3    H142244   0.299   1.434   5.703 -0.1317 -0.0462 -0.9688
 6943TIP3    H242245   0.164   1.494   5.733  0.3611  1.0977 -1.0274
 6944TIP3   OH242246   2.171   0.554  16.623 -0.0795 -0.1761  0.0950
 6944TIP3    H142247   2.184   0.531  16.531 -0.0755  0.0706  0.0334
 6944TIP3    H242248   2.129   0.477  16.661  1.5827 -1.0172  0.3039
 6945TIP3   OH242249   1.804   2.814  11.435  0.4357  0.0976 -0.1972
 6945TIP3    H142250   1.837   2.818  11.525  1.4731  2.6452 -0.6419
 6945TIP3    H242251   1.726   2.870  11.435 -0.6160 -1.3407 -0.4819
 6946TIP3   OH242252   4.720   4.292  12.191 -0.0396  0.4710 -0.9699
 6946TIP3    H142253   4.799   4.244  12.216 -0.5442 -0.2889 -0.8345
 6946TIP3    H242254   4.648   4.231  12.206 -0.6915  1.2628 -0.7911
 6947TIP3   OH242255   6.704   3.737   2.355 -0.6680 -0.5534  0.3190
 6947TIP3    H142256   6.632   3.678   2.335 -2.2886  0.7676  2.0553
 6947TIP3    H242257   6.666   3.802   2.414  0.5108  3.4551 -3.1207
 6948TIP3   OH242258   2.368   2.232  13.301  0.3647 -0.0332  0.2825
 6948TIP3    H142259   2.352   2.158  13.360  0.7901 -1.6510 -1.5961
 6948TIP3    H242260   2.426   2.290  13.351 -1.9099  0.2361  2.6898
 6949TIP3   OH242261   0.587   5.722  13.811 -0.0179  0.3296  0.3813
 6949TIP3    H142262   0.618   5.656  13.873 -1.1023 -0.1363  0.4369
 6949TIP3    H242263   0.492   5.714  13.813 -0.0537 -0.0862 -1.7733
 6950TIP3   OH242264   2.896   1.284   3.188 -0.1344 -0.4355  0.7311
 6950TIP3    H142265   2.812   1.261   3.147 -0.3250  0.2338  0.7543
 6950TIP3    H242266   2.875   1.299   3.280  0.3110 -2.0412  1.1278
 6951TIP3   OH242267   3.578   2.721  14.699  0.1668 -0.2597  0.3500
 6951TIP3    H142268   3.649   2.772  14.661  0.0176 -0.1491  0.2162
 6951TIP3    H242269   3.614   2.687  14.781  0.2886  0.0038  0.4068
 6952TIP3   OH242270   0.034   5.618   4.864  0.3386  0.1721  0.1977
 6952TIP3    H142271   0.112   5.572   4.833 -0.7964 -0.2244 -2.1544
 6952TIP3    H242272   0.061   5.710   4.870  1.0550  0.0045 -0.3799
 6953TIP3   OH242273   0.787   1.027  13.429  0.2607 -0.0477  0.2847
 6953TIP3    H142274   0.750   1.054  13.513 -0.5589 -0.6084  0.1109
 6953TIP3    H242275   0.804   1.109  13.383 -1.7458  0.2103 -0.0371
 6954TIP3   OH242276   2.228   3.083  16.731 -0.0258  0.8497  0.1443
 6954TIP3    H142277   2.156   3.134  16.766  0.6146  1.9577 -0.1414
 6954TIP3    H242278   2.288   3.073  16.805  0.6742  2.0100 -0.2588
 6955TIP3   OH242279   6.722   0.101   3.722 -0.5119 -0.2581 -0.4626
 6955TIP3    H142280   6.681   0.113   3.636 -1.6795 -0.4114  0.0579
 6955TIP3    H242281   6.783   0.029   3.710 -2.3646 -1.8308 -0.6009
 6956TIP3   OH242282   1.896   3.974   3.553  0.6488  0.5063 -0.0632
 6956TIP3    H142283   1.922   3.918   3.625  1.2675  1.7208  0.6702
 6956TIP3    H242284   1.806   4.000   3.573  0.8091  0.8162  0.2665
 6957TIP3   OH242285   1.681   0.287   2.341 -0.3009 -0.2290  0.3722
 6957TIP3    H142286   1.600   0.254   2.302  0.3585 -0.0449 -1.1854
 6957TIP3    H242287   1.672   0.382   2.337 -0.4803 -0.2059  1.2207
 6958TIP3   OH242288   4.793   6.346   0.901 -0.0993  0.1083 -0.3896
 6958TIP3    H142289   4.701   6.342   0.927 -0.0606 -0.6646 -0.3528
 6958TIP3    H242290   4.827   6.424   0.944 -0.7296  0.3709 -0.3682
 6959TIP3   OH242291   1.747   5.739   0.564  0.5091  0.3190 -0.2578
 6959TIP3    H142292   1.737   5.644   0.574  1.2483  0.0815 -1.6017
 6959TIP3    H242293   1.806   5.764   0.635 -0.1232 -0.1370  0.4333
 6960TIP3   OH242294   0.948   5.994  16.992 -0.1783  1.0960  0.5714
 6960TIP3    H142295   0.959   6.085  16.963 -1.2689  1.5643  1.5980
 6960TIP3    H242296   0.854   5.985  17.009 -0.1296 -0.3318  0.1447
 6961TIP3   OH242297   3.603   2.407  11.173 -0.5133 -0.2866  0.3248
 6961TIP3    H142298   3.541   2.480  11.161 -0.9232 -0.4283  1.5248
 6961TIP3    H242299   3.551   2.329  11.155 -0.7264 -0.4131  1.4626
 6962TIP3   OH242300   4.562   6.194  12.898  0.1967  0.2827 -0.4091
 6962TIP3    H142301   4.479   6.213  12.854  0.8530  1.4407 -1.1870
 6962TIP3    H242302   4.600   6.122  12.848  0.8663  1.4906 -1.6974
 6963TIP3   OH242303   2.207   3.588  14.034  0.0962 -0.0365 -0.1549
 6963TIP3    H142304   2.240   3.554  13.950 -2.8825 -1.2219 -0.9159
 6963TIP3    H242305   2.221   3.516  14.095  0.1807 -0.0171 -0.1513
 6964TIP3   OH242306   2.150   3.223   1.467  0.1924  0.0378  0.3878
 6964TIP3    H142307   2.136   3.214   1.562  0.0795  1.5692  0.5379
 6964TIP3    H242308   2.064   3.249   1.433  0.2091 -0.6109 -0.1544
 6965TIP3   OH242309   2.066   4.358  12.258 -0.0657 -0.3945  0.4072
 6965TIP3    H142310   2.130   4.290  12.283  0.3825 -0.7902 -1.7015
 6965TIP3    H242311   1.982   4.322  12.286  0.2302 -1.5633 -0.1611
 6966TIP3   OH242312   4.707   1.283   5.695 -0.3808  0.4648  0.4067
 6966TIP3    H142313   4.778   1.333   5.655 -0.8406  0.1496 -0.8305
 6966TIP3    H242314   4.738   1.192   5.694 -0.6082  0.3864  0.2620
 6967TIP3   OH242315   2.351   1.184  14.563 -0.4845  0.3139  0.4549
 6967TIP3    H142316   2.396   1.244  14.504  0.7638  0.1204  1.1926
 6967TIP3    H242317   2.258   1.201  14.548 -0.1837  0.3846 -1.4410
 6968TIP3   OH242318   5.781   0.969   3.258  0.1821  0.0678  0.4762
 6968TIP3    H142319   5.798   0.949   3.350  2.8185 -1.6563 -0.3224
 6968TIP3    H242320   5.793   0.885   3.213  1.0135  1.2953 -1.6897
 6969TIP3   OH242321   1.142   6.070  17.216  0.7273  0.5047  0.1794
 6969TIP3    H142322   1.132   6.165  17.211 -0.6961  0.3424 -0.3109
 6969TIP3    H242323   1.082   6.037  17.149 -0.1561 -0.8080  1.6084
 6970TIP3   OH242324   4.293   0.368   2.171  0.3338 -0.8185  0.1410
 6970TIP3    H142325   4.307   0.307   2.099 -0.6043 -0.5478 -0.2756
 6970TIP3    H242326   4.332   0.450   2.140 -1.0673 -0.3860 -0.5448
 6971TIP3   OH242327   0.974   6.020   3.638 -0.3950  0.0402  0.5904
 6971TIP3    H142328   1.032   5.962   3.588  0.4366  1.9991 -0.7712
 6971TIP3    H242329   1.029   6.054   3.708 -0.4050  0.5146  0.3664
 6972TIP3   OH242330   1.981   5.409   2.922 -0.4893 -0.2011 -0.3880
 6972TIP3    H142331   1.996   5.337   2.861  1.2429 -0.8405  0.7373
 6972TIP3    H242332   2.046   5.395   2.991 -1.7760  1.0427  1.1049
 6973TIP3   OH242333   3.660   6.501  13.738  0.0808  0.1993 -0.7203
 6973TIP3    H142334   3.698   6.569  13.682  0.7845  0.2937 -0.1334
 6973TIP3    H242335   3.709   6.507  13.820  0.3292 -1.1806 -0.7485
 6974TIP3   OH242336   6.299   6.000   3.479  0.7362 -0.5207  0.2517
 6974TIP3    H142337   6.205   6.012   3.490  0.6171 -0.0030 -1.1994
 6974TIP3    H242338   6.314   5.908   3.497 -0.1504 -0.7554 -0.1813
 6975TIP3   OH242339   1.737   1.021  13.052  0.0767  0.0106  0.1918
 6975TIP3    H142340   1.661   1.079  13.050  0.8954  1.2244  2.1850
 6975TIP3    H242341   1.812   1.080  13.037  0.7858 -0.8571  0.2554
 6976TIP3   OH242342   6.598   5.251   4.844 -0.1363 -0.0789  0.5952
 6976TIP3    H142343   6.508   5.276   4.824  0.1681  0.1583 -0.4926
 6976TIP3    H242344   6.651   5.302   4.784  0.6561 -1.0872  0.4300
 6977TIP3   OH242345   2.029   4.841  12.734 -0.5596 -0.1191 -0.1031
 6977TIP3    H142346   1.985   4.764  12.699 -2.1590  1.6427 -2.1234
 6977TIP3    H242347   2.090   4.866  12.664  0.0771  0.3422  0.6151
 6978TIP3   OH242348   2.753   2.987  11.161 -0.2057  0.0798  0.0336
 6978TIP3    H142349   2.825   2.935  11.125 -0.4802  0.2889 -0.8407
 6978TIP3    H242350   2.791   3.074  11.174 -0.1548  0.0507  0.0836
 6979TIP3   OH242351   4.734   6.464  13.135  0.1993 -0.3757  0.4351
 6979TIP3    H142352   4.714   6.487  13.226  0.0895 -0.8324  0.5280
 6979TIP3    H242353   4.808   6.405  13.140 -1.3142 -2.3202  0.3985
 6980TIP3   OH242354   3.488   5.733   3.423  0.5376  0.2115 -0.0894
 6980TIP3    H142355   3.419   5.753   3.361  0.0734 -0.7172  0.1221
 6980TIP3    H242356   3.491   5.637   3.426 -0.8965  0.2240  2.9283
 6981TIP3   OH242357   5.212   2.928   3.770  0.1642 -0.1305 -0.7755
 6981TIP3    H142358   5.144   2.947   3.834  0.9610 -1.2991  0.4444
 6981TIP3    H242359   5.166   2.886   3.697 -0.6421  0.5669 -0.6706
 6982TIP3   OH242360   4.021   0.550   3.920  0.3495 -0.3184 -0.3749
 6982TIP3    H142361   4.095   0.533   3.979 -0.1044 -1.0272 -0.0073
 6982TIP3    H242362   4.060   0.548   3.832  0.5303 -2.1534 -0.2837
 6983TIP3   OH242363   6.593   2.096  14.881  0.4918 -0.4979  0.0987
 6983TIP3    H142364   6.624   2.125  14.795 -0.8375  0.0520 -0.2168
 6983TIP3    H242365   6.498   2.087  14.870 -0.0644  2.0647  2.1833
 6984TIP3   OH242366   5.935   5.717   3.986 -0.1343 -0.3390  0.6975
 6984TIP3    H142367   6.027   5.696   4.004  0.5771  3.4903  2.0587
 6984TIP3    H242368   5.933   5.741   3.894  0.4181  0.4303  0.8823
 6985TIP3   OH242369   0.911   6.572  12.930 -0.1438 -0.7287  0.6770
 6985TIP3    H142370   0.978   6.631  12.963 -0.2438  0.5227 -1.2805
 6985TIP3    H242371   0.906   6.502  12.995  2.0795 -0.1326  1.5208
 6986TIP3   OH242372   5.190   2.133  11.260  0.3626  0.4162 -0.2182
 6986TIP3    H142373   5.217   2.068  11.325  0.4370 -0.2680 -0.9156
 6986TIP3    H242374   5.102   2.106  11.235 -0.4923  1.9135  1.1388
 6987TIP3   OH242375   2.343   3.537  13.815 -0.0600 -0.4080  0.9457
 6987TIP3    H142376   2.389   3.478  13.754 -1.7908 -1.0760  0.2698
 6987TIP3    H242377   2.407   3.606  13.833  0.7851 -0.6492 -0.9540
 6988TIP3   OH242378   5.051   6.441  14.136 -0.8590  0.6105 -0.1590
 6988TIP3    H142379   5.013   6.476  14.055  0.5267  2.6858  0.0360
 6988TIP3    H242380   5.081   6.519  14.183 -0.3138 -0.6882  1.6761
 6989TIP3   OH242381   4.843   0.532   3.051  0.4727 -0.0869  0.0850
 6989TIP3    H142382   4.874   0.473   2.982  0.6418  1.6313 -1.3439
 6989TIP3    H242383   4.905   0.605   3.050 -0.1453  0.4822  1.3363
 6990TIP3   OH242384   1.286   2.207   2.285 -0.0109  0.3482 -0.0803
 6990TIP3    H142385   1.324   2.206   2.373  0.2608 -1.0916 -0.2045
 6990TIP3    H242386   1.258   2.298   2.273  3.1691  1.4287  0.1093
 6991TIP3   OH242387   0.841   3.171  12.580  1.2830 -0.1053 -0.2775
 6991TIP3    H142388   0.935   3.157  12.591  1.2303  0.4182  0.9794
 6991TIP3    H242389   0.801   3.104  12.634  0.9732  0.9126  0.7921
 6992TIP3   OH242390   3.781   2.764  10.985  0.3836  0.2591  0.0754
 6992TIP3    H142391   3.704   2.813  10.957  0.8953  1.3476  0.5641
 6992TIP3    H242392   3.856   2.813  10.950  0.8148 -2.0151 -2.3716
 6993TIP3   OH242393   6.198   0.632  11.446  0.2399  0.1135 -0.5524
 6993TIP3    H142394   6.148   0.550  11.457  0.5650 -0.0585 -0.3309
 6993TIP3    H242395   6.184   0.678  11.529  1.1244 -0.3127 -0.1577
 6994TIP3   OH242396   4.050   2.610  16.988 -0.3345 -0.1329  0.6430
 6994TIP3    H142397   4.132   2.569  17.016 -2.0069 -3.2217  1.2145
 6994TIP3    H242398   4.047   2.693  17.036  3.6093  1.2449 -1.2914
 6995TIP3   OH242399   3.740   6.407  16.361  0.3085  0.5229 -0.0969
 6995TIP3    H142400   3.684   6.333  16.336 -0.5470  0.1855  2.6271
 6995TIP3    H242401   3.810   6.367  16.414  1.2630  1.3697 -0.6874
 6996TIP3   OH242402   5.144   5.886  14.301  0.4272 -0.3526 -0.5833
 6996TIP3    H142403   5.179   5.799  14.282  2.7455  0.9203 -2.4231
 6996TIP3    H242404   5.096   5.910  14.221  0.7380  0.4893 -0.5187
 6997TIP3   OH242405   1.847   5.642   5.360  0.2462 -0.5864 -0.4422
 6997TIP3    H142406   1.819   5.650   5.269  1.5723 -0.5976 -0.8612
 6997TIP3    H242407   1.918   5.706   5.369  0.0950 -0.5475  0.6064
 6998TIP3   OH242408   3.787   1.671   3.016 -0.3708 -0.7510  0.7387
 6998TIP3    H142409   3.790   1.631   3.103 -2.6172 -1.7508  0.3768
 6998TIP3    H242410   3.698   1.704   3.008  0.4476  1.2665 -0.3604
 6999TIP3   OH242411   5.822   3.308   1.606  0.8666  0.5191  0.3355
 6999TIP3    H142412   5.837   3.320   1.700  0.1666  1.2612  0.3647
 6999TIP3    H242413   5.905   3.333   1.565  0.1524  3.4388  0.5608
 7000TIP3   OH242414   5.601   6.309  12.676 -0.8707 -0.2256  0.2862
 7000TIP3    H142415   5.593   6.390  12.625 -0.0923  0.5901  1.4426
 7000TIP3    H242416   5.603   6.240  12.610  0.0173  0.8114 -0.8028
 7001TIP3   OH242417   4.845   5.977  15.104  0.1271 -0.2993  0.2908
 7001TIP3    H142418   4.839   5.952  15.196 -1.1067  1.7294  0.8068
 7001TIP3    H242419   4.755   5.972  15.072  0.6887 -1.9879 -1.1154
 7002TIP3   OH242420   0.483   3.756  16.098 -0.4093 -0.1041  0.5639
 7002TIP3    H142421   0.403   3.801  16.072 -1.9120 -2.7302  0.4454
 7002TIP3    H242422   0.477   3.670  16.056  1.4718 -1.1078  2.2316
 7003TIP3   OH242423   0.822   3.852   3.616 -0.6317  0.1869 -0.1808
 7003TIP3    H142424   0.912   3.836   3.646 -0.1778  1.9019 -0.5723
 7003TIP3    H242425   0.774   3.773   3.641  1.6634 -2.1480 -2.7457
 7004TIP3   OH242426   3.179   0.969   4.642  0.2131  0.0016 -0.2504
 7004TIP3    H142427   3.158   1.035   4.576 -0.8683  0.8832  0.9427
 7004TIP3    H242428   3.151   1.009   4.725 -0.5500 -1.9772  0.4738
 7005TIP3   OH242429   3.452   6.339  15.339 -0.2738  0.3168 -0.8387
 7005TIP3    H142430   3.457   6.276  15.411  0.0547  0.3230 -0.8578
 7005TIP3    H242431   3.527   6.398  15.353  0.6230 -0.5351 -1.9996
 7006TIP3   OH242432   0.825   5.023  12.490 -0.0274 -0.0498  0.5004
 7006TIP3    H142433   0.733   5.047  12.493 -0.2451 -0.1199 -2.8548
 7006TIP3    H242434   0.831   4.945  12.544 -2.1634 -0.6146 -0.0130
 7007TIP3   OH242435   6.088   5.067  14.148  0.0945 -0.0514  0.1500
 7007TIP3    H142436   6.016   5.056  14.210  0.8280 -0.3082  0.9753
 7007TIP3    H242437   6.077   5.155  14.113 -0.2595  0.1420  0.7370
 7008TIP3   OH242438   1.839   4.008   3.089  0.0777  0.3348  0.6518
 7008TIP3    H142439   1.898   4.025   3.162  0.6448  0.0838  0.2557
 7008TIP3    H242440   1.894   3.967   3.023 -0.4556  0.4715  0.1212
 7009TIP3   OH242441   4.418   4.861  14.747  0.1483 -0.1515  0.6030
 7009TIP3    H142442   4.448   4.824  14.665 -0.2176  0.8950 -0.0206
 7009TIP3    H242443   4.330   4.825  14.760 -1.8227  3.4310 -1.9911
 7010TIP3   OH242444   1.768   5.256  12.709 -0.7225 -0.0155 -0.0587
 7010TIP3    H142445   1.794   5.172  12.747  2.1698  0.7305 -0.2791
 7010TIP3    H242446   1.674   5.246  12.691 -0.5550 -2.9687  0.4483
 7011TIP3   OH242447   3.241   1.041   2.543 -0.2952 -0.7307  0.2858
 7011TIP3    H142448   3.178   1.098   2.587 -2.3018 -1.2243 -1.8979
 7011TIP3    H242449   3.273   1.093   2.469 -1.0310 -1.8884 -0.8546
 7012TIP3   OH242450   0.429   0.088  12.437  0.1943 -0.0851 -0.6395
 7012TIP3    H142451   0.341   0.113  12.409 -0.0041  0.5215  0.5129
 7012TIP3    H242452   0.446   0.006  12.390 -0.5414  0.3764 -1.7249
 7013TIP3   OH242453   5.342   6.580  16.470  1.0214  0.3745 -0.2163
 7013TIP3    H142454   5.250   6.557  16.477  1.1465 -1.2625 -3.3093
 7013TIP3    H242455   5.389   6.503  16.501  1.3690 -0.2538 -2.2714
 7014TIP3   OH242456   3.814   5.573   3.842 -0.3850  0.0880 -0.1514
 7014TIP3    H142457   3.854   5.554   3.757 -1.1961 -1.0928 -0.2806
 7014TIP3    H242458   3.721   5.558   3.828 -0.6752  1.1653  0.6087
 7015TIP3   OH242459   0.738   2.679   1.140 -0.1528 -0.5436 -0.8418
 7015TIP3    H142460   0.645   2.677   1.119 -0.2690 -0.3650 -0.3632
 7015TIP3    H242461   0.780   2.628   1.071 -0.4318  0.6864 -1.9334
 7016TIP3   OH242462   5.937   2.789  13.817  0.0995 -0.4113 -0.1217
 7016TIP3    H142463   6.017   2.753  13.854  0.0291  1.5001  1.9721
 7016TIP3    H242464   5.888   2.713  13.787  2.3115 -1.6666 -0.6983
 7017TIP3   OH242465   4.795   5.660   0.035 -0.1831 -0.5124  0.1485
 7017TIP3    H142466   4.763   5.639  -0.053 -0.1347 -0.4047  0.1048
 7017TIP3    H242467   4.803   5.755   0.036  1.1650 -0.6155 -0.1947
 7018TIP3   OH242468   5.306   0.033   3.481  0.0768  0.3613 -0.2827
 7018TIP3    H142469   5.224   0.081   3.483  0.9983  1.9758 -0.0087
 7018TIP3    H242470   5.323   0.018   3.388 -1.0971 -1.0350 -0.2966
 7019TIP3   OH242471   5.557   2.672  15.405 -0.4842 -0.6386  0.2188
 7019TIP3    H142472   5.645   2.699  15.380 -0.2368 -1.3301  0.3430
 7019TIP3    H242473   5.543   2.590  15.358 -0.6720 -1.0567  1.0036
 7020TIP3   OH242474   1.096   5.049  15.237  0.4213  0.1702  0.8193
 7020TIP3    H142475   1.134   4.986  15.299  1.6411  3.1380  3.2677
 7020TIP3    H242476   1.015   5.079  15.279 -1.7400 -1.9085 -1.7263
 7021TIP3   OH242477   2.389   6.032  14.328  0.1621  0.6387 -0.1500
 7021TIP3    H142478   2.350   6.021  14.415 -1.5681  0.7994 -0.8873
 7021TIP3    H242479   2.452   6.104  14.339 -0.7525  1.3124  0.7430
 7022TIP3   OH242480   0.440   4.943   0.198  0.8611  0.2424  0.3246
 7022TIP3    H142481   0.427   4.851   0.174  0.3825  0.5150 -0.4995
 7022TIP3    H242482   0.444   4.943   0.293 -1.3807 -0.3828  0.4573
 7023TIP3   OH242483   2.020   5.711  10.282  0.1811 -0.2867  0.2048
 7023TIP3    H142484   2.072   5.722  10.362 -0.0045  0.4548  0.2348
 7023TIP3    H242485   1.937   5.754  10.303 -0.5570 -1.7244  0.2716
 7024TIP3   OH242486   1.055   4.429  16.141 -0.0441  0.2083  0.3599
 7024TIP3    H142487   1.107   4.431  16.221  2.5540 -0.2403 -1.2366
 7024TIP3    H242488   0.983   4.490  16.157  1.6214  1.7477  2.2363
 7025TIP3   OH242489   3.609   0.011   3.887 -0.6280 -0.0099  0.7130
 7025TIP3    H142490   3.688  -0.034   3.859 -0.3240 -0.3525  2.0736
 7025TIP3    H242491   3.550  -0.059   3.916 -2.1978  0.0682 -2.0310
 7026TIP3   OH242492   1.063   4.300  11.547 -0.2511  0.3432 -0.0412
 7026TIP3    H142493   1.091   4.209  11.556 -1.2782  0.0739  0.4984
 7026TIP3    H242494   0.995   4.297  11.479  1.1297  1.0214 -1.4964
 7027TIP3   OH242495   0.750   1.189   5.935 -0.4756 -0.0574 -0.5259
 7027TIP3    H142496   0.834   1.233   5.922  0.8203 -1.3543  2.8199
 7027TIP3    H242497   0.769   1.097   5.918 -1.4056 -0.2569 -0.4793
 7028TIP3   OH242498   3.602   0.412  13.446  0.0914 -0.2265  0.3181
 7028TIP3    H142499   3.639   0.487  13.399 -1.1492 -0.2183 -0.6694
 7028TIP3    H242500   3.507   0.423  13.437 -0.0912 -2.6146 -0.9421
 7029TIP3   OH242501   2.125   4.252  11.616 -0.4667 -0.3344  0.0573
 7029TIP3    H142502   2.183   4.233  11.542 -1.7838 -1.2965 -0.7454
 7029TIP3    H242503   2.037   4.247  11.580 -1.1452 -1.0336  1.7376
 7030TIP3   OH242504   5.687   4.497   4.484  0.3259  0.3923  0.1162
 7030TIP3    H142505   5.687   4.574   4.540  0.7554  0.4090  0.0949
 7030TIP3    H242506   5.599   4.461   4.492 -0.5791  2.1258 -1.6001
 7031TIP3   OH242507   3.656   4.788  12.340 -0.3697 -0.5419 -0.1064
 7031TIP3    H142508   3.621   4.705  12.374  0.4941 -1.2591 -0.9599
 7031TIP3    H242509   3.685   4.835  12.418 -2.5198 -0.2562  0.5574
 7032TIP3   OH242510   3.999   4.214  15.968 -0.0678 -0.1542 -0.2161
 7032TIP3    H142511   4.005   4.224  16.063 -2.3755  1.2908 -0.1805
 7032TIP3    H242512   4.066   4.274  15.934 -0.7648  1.0584  0.4820
 7033TIP3   OH242513   3.200   6.596   0.296  0.2839 -0.2406  0.2452
 7033TIP3    H142514   3.119   6.646   0.286  0.4741 -0.1505 -0.9349
 7033TIP3    H242515   3.263   6.659   0.331  0.6493  0.4988 -1.6725
 7034TIP3   OH242516   3.522   4.916   3.319 -0.1067  0.1442  0.2041
 7034TIP3    H142517   3.576   4.946   3.245 -1.1411 -0.8627 -0.9725
 7034TIP3    H242518   3.579   4.856   3.367  0.4743  0.5779  0.0682
 7035TIP3   OH242519   3.471   5.758   1.488 -0.1383 -0.2838  0.1217
 7035TIP3    H142520   3.380   5.779   1.512  0.3798  1.2931  0.7923
 7035TIP3    H242521   3.473   5.662   1.483 -2.2972 -0.2778 -1.7720
 7036TIP3   OH242522   0.749   2.942   4.052 -0.6160 -0.3200 -0.4568
 7036TIP3    H142523   0.737   3.036   4.067  3.5539  0.0138  1.5805
 7036TIP3    H242524   0.778   2.936   3.962  1.4501  0.6553  0.1069
 7037TIP3   OH242525   2.977   6.692   3.530 -0.1647  0.0205 -0.0186
 7037TIP3    H142526   2.903   6.636   3.508  0.1921 -0.2402 -0.5813
 7037TIP3    H242527   2.983   6.754   3.457  1.8703 -1.7007 -1.4049
 7038TIP3   OH242528   1.135   1.677   4.805 -0.6751  0.0172  0.2814
 7038TIP3    H142529   1.071   1.607   4.818  0.5869 -1.4938 -1.4639
 7038TIP3    H242530   1.210   1.652   4.859 -1.3724  1.6089  2.0446
 7039TIP3   OH242531   4.177   5.434  14.279  0.4114  0.4372  0.0637
 7039TIP3    H142532   4.260   5.397  14.249  0.7011  1.0054  0.1542
 7039TIP3    H242533   4.202   5.514  14.326 -0.2451  1.0353 -0.5966
 7040TIP3   OH242534   5.189   2.349  13.097 -0.6087 -0.1264  0.3599
 7040TIP3    H142535   5.232   2.420  13.050  0.1947 -0.3573  0.7233
 7040TIP3    H242536   5.257   2.317  13.157 -0.6780 -1.7793 -0.4268
 7041TIP3   OH242537   1.847   4.638  11.484  0.0859  0.0992 -0.0178
 7041TIP3    H142538   1.941   4.643  11.467  0.1605 -0.6475  0.1607
 7041TIP3    H242539   1.840   4.653  11.579  0.2048 -1.9009  0.3135
 7042TIP3   OH242540   5.322   0.919  16.789  0.2865 -0.6059  0.0826
 7042TIP3    H142541   5.388   0.859  16.755 -0.0365  0.0833 -1.8222
 7042TIP3    H242542   5.244   0.901  16.736 -0.8134 -0.8216  1.7375
 7043TIP3   OH242543   5.839   2.013   2.542  0.0194 -0.1524  0.3640
 7043TIP3    H142544   5.890   2.083   2.583  1.5603  0.0336 -1.8237
 7043TIP3    H242545   5.841   1.942   2.607  2.2659  0.2147  0.7469
 7044TIP3   OH242546   0.690   5.894   3.806 -0.3309  0.0853 -0.4402
 7044TIP3    H142547   0.684   5.822   3.869 -1.5299  0.7003  0.1659
 7044TIP3    H242548   0.758   5.866   3.744 -0.2512 -1.2259  0.2173
 7045TIP3   OH242549   4.351   5.869  12.791  0.7309 -0.1773 -0.0457
 7045TIP3    H142550   4.278   5.904  12.740  1.6405  0.9232 -0.6019
 7045TIP3    H242551   4.341   5.908  12.878  0.2153 -0.6378  0.1061
 7046TIP3   OH242552   4.179   0.947  10.986 -0.4365  0.4485 -0.4364
 7046TIP3    H142553   4.238   0.879  11.020  1.5279  2.4790  0.3026
 7046TIP3    H242554   4.110   0.898  10.941  1.4330 -2.0134 -0.7374
 7047TIP3   OH242555   6.661   2.565   5.114  0.3376  0.1060  0.5489
 7047TIP3    H142556   6.598   2.637   5.121 -0.4489 -0.4899 -0.2678
 7047TIP3    H242557   6.656   2.520   5.198 -0.8780 -0.3681  0.2424
 7048TIP3   OH242558   6.495   5.191  13.546 -0.1426 -0.3912 -0.4249
 7048TIP3    H142559   6.532   5.105  13.525  0.1212 -0.4002  0.0776
 7048TIP3    H242560   6.402   5.182  13.528 -0.0505 -0.6493 -0.7958
 7049TIP3   OH242561   4.283   0.195  15.595  0.5413 -0.1673  0.4240
 7049TIP3    H142562   4.366   0.228  15.630 -0.2838 -0.6567  2.9529
 7049TIP3    H242563   4.219   0.219  15.662 -0.5050 -4.4536  1.0430
 7050TIP3   OH242564   4.586   6.013   6.572  0.4161 -0.1908  0.3458
 7050TIP3    H142565   4.512   5.999   6.631  0.9991  1.7782  1.6083
 7050TIP3    H242566   4.660   5.973   6.617  0.6289  0.2382  0.3754
 7051TIP3   OH242567   0.092   0.052   5.497 -0.4149 -0.2578 -0.3756
 7051TIP3    H142568   0.172   0.102   5.516 -0.4321  0.9844 -3.2489
 7051TIP3    H242569   0.026   0.088   5.557  0.2071  1.4417 -0.6881
 7052TIP3   OH242570   1.870   6.543   1.040 -0.0719 -0.1916  0.3944
 7052TIP3    H142571   1.937   6.492   0.995  1.1002  0.4303  1.4075
 7052TIP3    H242572   1.841   6.488   1.112 -1.0716 -0.6903 -0.3777
 7053TIP3   OH242573   0.102   5.204  11.257  0.4431  0.0747 -0.2088
 7053TIP3    H142574   0.056   5.280  11.293 -1.0331 -1.1704  0.5999
 7053TIP3    H242575   0.034   5.156  11.208  0.9781 -1.5492  0.6181
 7054TIP3   OH242576   3.970   3.363  12.848  0.0312 -0.5035  0.4124
 7054TIP3    H142577   3.939   3.296  12.787  0.5566  0.2801 -0.7306
 7054TIP3    H242578   3.891   3.413  12.871  0.0294 -0.0578 -0.5570
 7055TIP3   OH242579   3.121   5.237   2.259  0.1813 -0.2367  0.2021
 7055TIP3    H142580   3.060   5.296   2.304 -0.0856  0.4249 -1.0062
 7055TIP3    H242581   3.073   5.156   2.247 -0.2144  0.0458 -0.1106
 7056TIP3   OH242582   5.639   0.476   4.513  0.0381  0.1506  0.3459
 7056TIP3    H142583   5.582   0.494   4.438  0.3329  1.9620  0.5310
 7056TIP3    H242584   5.582   0.488   4.589  0.0183 -0.6125  0.4575
 7057TIP3   OH242585   6.145   6.513   1.094 -0.1624 -0.4748  0.3834
 7057TIP3    H142586   6.152   6.523   0.999 -0.6672 -0.5974  0.3283
 7057TIP3    H242587   6.071   6.453   1.106  1.0201 -1.8601  0.7946
 7058TIP3   OH242588   1.626   5.260  13.001  0.1500  0.2986 -0.1272
 7058TIP3    H142589   1.587   5.241  12.916 -0.3872  1.2101 -0.0923
 7058TIP3    H242590   1.656   5.350  12.994  0.8852  0.0900  0.3612
 7059TIP3   OH242591   0.160   0.704   1.022  0.3858  0.1598  0.5119
 7059TIP3    H142592   0.174   0.645   0.948 -1.8739 -0.2997  0.4167
 7059TIP3    H242593   0.105   0.774   0.987  0.6845  0.8298  1.3549
 7060TIP3   OH242594   5.901   1.295   3.557  0.4094 -0.1554  0.1103
 7060TIP3    H142595   5.878   1.227   3.621  0.9557 -0.8074 -0.3762
 7060TIP3    H242596   5.996   1.293   3.553  0.3611 -0.5452 -1.1659
 7061TIP3   OH242597   4.293   1.779  13.870 -0.2632 -0.4698  0.2194
 7061TIP3    H142598   4.309   1.869  13.842  0.5371 -0.0688  1.8900
 7061TIP3    H242599   4.238   1.788  13.948 -1.3197 -1.4971 -0.3859
 7062TIP3   OH242600   0.009   5.455   0.423  0.2121 -0.2051 -0.4871
 7062TIP3    H142601  -0.058   5.388   0.415  0.6301 -0.6027 -0.6484
 7062TIP3    H242602  -0.021   5.510   0.496  1.1413 -2.0278  1.2924
 7063TIP3   OH242603   6.082   6.483   3.673 -0.8189 -0.5001  0.0798
 7063TIP3    H142604   6.149   6.486   3.605 -0.3071 -1.8543  0.4988
 7063TIP3    H242605   6.019   6.550   3.649  1.1275  1.3900  0.1195
 7064TIP3   OH242606   0.724   6.124   3.929  0.3279  0.6552  0.2676
 7064TIP3    H142607   0.726   6.046   3.873  3.1436  1.9709 -1.5653
 7064TIP3    H242608   0.793   6.109   3.993  0.4635  1.4058  0.2933
 7065TIP3   OH242609   5.343   2.689   4.583 -0.4719  0.6321 -0.0390
 7065TIP3    H142610   5.372   2.678   4.492 -1.6655 -1.8245 -0.1471
 7065TIP3    H242611   5.273   2.754   4.578 -0.1342  0.9467 -0.7952
 7066TIP3   OH242612   3.581   0.373  12.304 -0.0740  0.5104 -0.1013
 7066TIP3    H142613   3.528   0.305  12.346  1.3210 -0.8217 -0.4232
 7066TIP3    H242614   3.517   0.432  12.265 -1.3449  0.3453  1.6591
 7067TIP3   OH242615   0.738   4.158  17.008 -0.2707 -0.2790 -0.3844
 7067TIP3    H142616   0.784   4.074  17.013  0.7459  0.3241  0.3469
 7067TIP3    H242617   0.680   4.148  16.932  0.0597 -1.5346 -0.4833
 7068TIP3   OH242618   5.468   1.845   0.984 -0.2824 -0.2417  0.1451
 7068TIP3    H142619   5.525   1.878   1.053  0.8997 -0.4466 -0.7266
 7068TIP3    H242620   5.385   1.891   0.998  0.2165  0.3706  1.1600
 7069TIP3   OH242621   5.700   1.349  13.673  0.0059  0.0487 -0.0086
 7069TIP3    H142622   5.732   1.406  13.603 -0.2041 -0.5876 -0.6171
 7069TIP3    H242623   5.752   1.269  13.666 -0.3703 -0.2210  0.2378
 7070TIP3   OH242624   5.903   1.344   1.281 -0.8303 -0.4844  0.1691
 7070TIP3    H142625   5.995   1.330   1.301 -0.5418  0.6333 -0.3402
 7070TIP3    H242626   5.871   1.400   1.351 -0.8248  0.1034 -0.2962
 7071TIP3   OH242627   2.843   6.565   4.161 -0.1327  0.3904  0.2136
 7071TIP3    H142628   2.852   6.615   4.242 -0.9641 -1.5023  1.5128
 7071TIP3    H242629   2.930   6.565   4.123  0.3532  1.0051  1.2971
 7072TIP3   OH242630   3.004   5.044  15.938  0.3401  0.3371  0.0469
 7072TIP3    H142631   2.993   4.949  15.934  1.8984  0.1502 -0.0581
 7072TIP3    H242632   3.031   5.070  15.850 -2.6314  1.2423 -0.6388
 7073TIP3   OH242633   6.235   2.635   4.057 -0.1598 -0.4434 -0.4191
 7073TIP3    H142634   6.257   2.542   4.052  0.4302 -0.3328  0.0916
 7073TIP3    H242635   6.170   2.641   4.127 -0.7985 -0.5792 -0.9941
 7074TIP3   OH242636   6.623   3.718  15.332  0.1449 -0.6638 -0.2484
 7074TIP3    H142637   6.699   3.674  15.370 -0.0640 -0.2299  0.6790
 7074TIP3    H242638   6.548   3.668  15.363 -0.2136  1.4171  2.3353
 7075TIP3   OH242639   1.448   0.558   6.109 -0.9649  0.3315 -0.4472
 7075TIP3    H142640   1.468   0.530   6.198 -0.6828  0.2009 -0.5515
 7075TIP3    H242641   1.529   0.597   6.077 -0.4723 -1.3383 -1.3129
 7076TIP3   OH242642   5.724   4.266  12.241  0.2337  0.4959 -0.0168
 7076TIP3    H142643   5.719   4.359  12.220  0.0830  0.1681 -1.4961
 7076TIP3    H242644   5.817   4.250  12.256  0.2148  0.9632  0.5809
 7077TIP3   OH242645   2.979   2.325   1.096  0.6993  0.5300 -0.0287
 7077TIP3    H142646   2.912   2.259   1.116 -2.0422  3.0792 -0.4864
 7077TIP3    H242647   3.061   2.275   1.094 -1.0335 -2.5598  1.3397
 7078TIP3   OH242648   5.188   2.197  17.199  0.7321  0.4549  0.6903
 7078TIP3    H142649   5.205   2.237  17.284  0.9433  5.0688 -1.3989
 7078TIP3    H242650   5.269   2.207  17.150 -0.2346  0.3476 -1.0033
 7079TIP3   OH242651   4.069   1.226   6.534  0.2677  0.3017 -0.4207
 7079TIP3    H142652   4.121   1.222   6.453  1.2349  1.2165  0.1471
 7079TIP3    H242653   3.990   1.177   6.513  1.7627 -1.9395 -0.9948
 7080TIP3   OH242654   6.338   6.229   1.537  0.0366 -0.2413 -0.3948
 7080TIP3    H142655   6.271   6.296   1.522 -0.4241 -0.8755 -1.2202
 7080TIP3    H242656   6.379   6.216   1.452 -0.6227 -1.7832 -0.4982
 7081TIP3   OH242657   1.497   6.737  10.065 -0.7187 -0.2683  0.3714
 7081TIP3    H142658   1.560   6.679  10.108 -1.9149 -1.4261  0.6016
 7081TIP3    H242659   1.520   6.824  10.095  0.4680 -0.7355  0.8434
 7082TIP3   OH242660   3.377   5.458   3.636  0.1862  0.5785  0.3830
 7082TIP3    H142661   3.450   5.479   3.577 -0.7855 -0.4467 -1.2069
 7082TIP3    H242662   3.299   5.467   3.582 -0.9382  2.1158  2.1944
 7083TIP3   OH242663   4.244   2.369   2.856 -0.4564 -0.6904 -0.4547
 7083TIP3    H142664   4.272   2.287   2.896 -0.2403  0.2343  1.3342
 7083TIP3    H242665   4.160   2.389   2.898  0.9386  1.5537  1.3954
 7084TIP3   OH242666   4.374   3.969   3.233  0.3409 -0.0124  0.1702
 7084TIP3    H142667   4.283   3.940   3.233  0.4610 -0.4809 -2.0674
 7084TIP3    H242668   4.405   3.952   3.322 -1.9617  0.8565  1.1705
 7085TIP3   OH242669   5.018   2.322   4.093 -0.0610  0.0641  0.0030
 7085TIP3    H142670   5.030   2.404   4.141 -0.0844 -0.1672  0.4113
 7085TIP3    H242671   4.928   2.296   4.113 -0.5116  0.6383 -1.2265
 7086TIP3   OH242672   1.606   5.375   0.506  0.0357 -0.3291 -0.3056
 7086TIP3    H142673   1.589   5.282   0.489  0.7735 -0.3341 -1.0772
 7086TIP3    H242674   1.564   5.421   0.434  0.4545 -0.1308 -0.4273
 7087TIP3   OH242675   6.065   2.329  11.067  0.3384 -0.9791 -0.3230
 7087TIP3    H142676   6.053   2.289  10.980 -0.0036 -2.0822  0.2265
 7087TIP3    H242677   5.978   2.363  11.090 -0.0212 -2.4042  0.4310
 7088TIP3   OH242678   1.646   4.642   1.417  0.4707  0.1339  0.1255
 7088TIP3    H142679   1.560   4.665   1.382  0.7864  0.6026 -0.3525
 7088TIP3    H242680   1.633   4.643   1.512  0.0907  0.7737  0.0720
 7089TIP3   OH242681   2.748   4.023  10.483  0.4731  0.3652  0.0359
 7089TIP3    H142682   2.736   3.986  10.571  1.4484  0.3912  0.1910
 7089TIP3    H242683   2.763   3.947  10.427  2.0254  0.4729  0.2755
 7090TIP3   OH242684   5.514   4.077  14.228  0.0206  0.1304  0.4732
 7090TIP3    H142685   5.602   4.042  14.238  0.5812  1.2612 -0.4066
 7090TIP3    H242686   5.517   4.129  14.148 -0.7556  2.2551  1.7628
 7091TIP3   OH242687   2.563   4.855   2.841  0.2304 -0.0133 -0.4972
 7091TIP3    H142688   2.614   4.826   2.765  1.0799 -1.2505  0.5135
 7091TIP3    H242689   2.476   4.816   2.827  0.4282 -0.3739 -0.7551
 7092TIP3   OH242690   1.740   3.246   0.532  0.0086  0.1219  0.3296
 7092TIP3    H142691   1.743   3.290   0.616  0.0930  0.0670  0.3556
 7092TIP3    H242692   1.828   3.208   0.521  0.2349  0.7746 -0.1333
 7093TIP3   OH242693   0.863   1.548  16.769 -0.0480  0.2322  0.1836
 7093TIP3    H142694   0.798   1.553  16.840  0.0271  0.6348  0.2238
 7093TIP3    H242695   0.841   1.621  16.712  0.3527  0.3458  0.1796
 7094TIP3   OH242696   0.373   0.168  15.771 -0.0903 -0.0699  0.4888
 7094TIP3    H142697   0.447   0.129  15.818  0.8882 -0.1360 -1.0738
 7094TIP3    H242698   0.330   0.094  15.729 -0.1013  0.1745  0.0744
 7095TIP3   OH242699   0.497   4.676  12.860  0.2491  0.0973 -0.3057
 7095TIP3    H142700   0.495   4.754  12.915  1.4712 -0.6897  0.8801
 7095TIP3    H242701   0.406   4.646  12.858  0.2989 -0.3157  1.9924
 7096TIP3   OH242702   6.326   2.202   0.761 -0.2567 -0.3346  0.3791
 7096TIP3    H142703   6.330   2.185   0.667 -3.2170  0.3758  0.0498
 7096TIP3    H242704   6.357   2.292   0.770 -0.3414 -0.2657  0.0063
 7097TIP3   OH242705   4.264   1.318   5.217  0.1049 -0.6062 -0.6659
 7097TIP3    H142706   4.242   1.379   5.287 -2.0218  0.2429 -2.0287
 7097TIP3    H242707   4.360   1.312   5.219  0.2478  1.6981  0.3675
 7098TIP3   OH242708   5.811   2.843  11.011 -0.2447  0.4240  0.0888
 7098TIP3    H142709   5.790   2.874  10.923 -0.7597 -0.5798 -0.1446
 7098TIP3    H242710   5.740   2.783  11.033  0.1439  0.2893  0.9897
 7099TIP3   OH242711   5.832   4.151  13.974 -0.5579 -0.3887 -0.3983
 7099TIP3    H142712   5.873   4.160  13.888 -2.0712 -0.9509 -1.1914
 7099TIP3    H242713   5.857   4.231  14.020  2.8014 -1.4516 -0.2462
 7100TIP3   OH242714   5.811   4.485   2.156 -0.2259  0.2292  0.3479
 7100TIP3    H142715   5.845   4.494   2.067 -1.2763 -2.0329 -0.3352
 7100TIP3    H242716   5.731   4.537   2.156 -0.4827 -0.1526 -0.2154
 7101TIP3   OH242717   4.707   5.084  16.170 -0.8671 -0.1836  0.1482
 7101TIP3    H142718   4.693   5.171  16.132  1.3207  0.2499  0.2603
 7101TIP3    H242719   4.620   5.056  16.198 -1.8589  1.2790 -1.3407
 7102TIP3   OH242720   0.138   3.008   0.775 -0.5410 -0.1952 -0.2778
 7102TIP3    H142721   0.129   3.045   0.688  1.7263  0.6518 -0.1840
 7102TIP3    H242722   0.064   2.947   0.783 -1.0508  0.0746 -2.5864
 7103TIP3   OH242723   0.680   3.321  12.966 -0.3860  0.3759  0.3274
 7103TIP3    H142724   0.715   3.410  12.971 -2.4710  1.1879  0.6141
 7103TIP3    H242725   0.659   3.298  13.056  0.8539 -0.7283  0.3561
 7104TIP3   OH242726   1.307   6.335   2.830  0.0012 -0.3621  0.3387
 7104TIP3    H142727   1.241   6.315   2.764  2.0967  0.6670 -2.1549
 7104TIP3    H242728   1.388   6.298   2.795  1.5951  2.1718  1.2470
 7105TIP3   OH242729   4.308   4.984  16.557  1.0336  0.3023  0.4159
 7105TIP3    H142730   4.339   4.991  16.647 -1.3975  0.3305  1.2823
 7105TIP3    H242731   4.293   5.074  16.530  0.4985  0.2257  0.4505
 7106TIP3   OH242732   6.639   5.185   1.016 -0.1097 -0.4932  0.0065
 7106TIP3    H142733   6.707   5.252   1.004  0.5504 -1.4390 -1.5748
 7106TIP3    H242734   6.687   5.102   1.018 -1.1720 -1.1275 -0.6452
 7107TIP3   OH242735   2.162   1.433   1.599  0.6561  0.4519  0.2800
 7107TIP3    H142736   2.082   1.403   1.556  1.5573  0.9043 -1.7765
 7107TIP3    H242737   2.141   1.433   1.692 -1.2339 -0.9109 -0.1259
 7108TIP3   OH242738   4.603   3.700  16.398 -0.3158 -0.0489 -0.4194
 7108TIP3    H142739   4.687   3.653  16.394 -0.3755 -0.1876 -0.0174
 7108TIP3    H242740   4.597   3.744  16.313  0.9109  1.2772  0.1752
 7109TIP3   OH242741   0.897   1.104  15.043  0.2529 -0.4470 -0.6817
 7109TIP3    H142742   0.852   1.133  15.122  0.5130 -2.1874  0.1158
 7109TIP3    H242743   0.858   1.158  14.973 -1.2354 -0.1304  0.3531
 7110TIP3   OH242744   2.590   5.062  14.133  0.2721 -0.2670 -0.1970
 7110TIP3    H142745   2.678   5.059  14.171 -0.4557 -1.6767  1.4422
 7110TIP3    H242746   2.532   5.082  14.207 -0.9610 -1.0409 -0.9306
 7111TIP3   OH242747   3.067   4.505  12.924 -0.0612 -0.5454  0.7013
 7111TIP3    H142748   3.002   4.439  12.898  0.9803 -1.8976  1.4349
 7111TIP3    H242749   3.109   4.468  13.001  1.3575  0.4460  0.4290
 7112TIP3   OH242750   6.273   6.630   3.998 -0.0043 -0.0523  0.0823
 7112TIP3    H142751   6.236   6.707   3.955  1.0032 -0.3034 -1.2686
 7112TIP3    H242752   6.198   6.573   4.013 -0.7778  1.2209  1.1962
 7113TIP3   OH242753   4.454   3.490   4.135  0.2747 -0.1390 -0.7997
 7113TIP3    H142754   4.447   3.566   4.193 -2.1367  0.8126 -2.2455
 7113TIP3    H242755   4.378   3.436   4.156  1.1184 -1.3736 -0.8723
 7114TIP3   OH242756   4.026   2.382   2.672 -0.1795 -0.5729  0.1058
 7114TIP3    H142757   4.009   2.291   2.694  0.3025 -0.2650  1.7918
 7114TIP3    H242758   4.087   2.412   2.739  0.7848  0.5852 -1.2716
 7115TIP3   OH242759   6.574   1.645   2.396  0.2170  0.3779  0.0316
 7115TIP3    H142760   6.578   1.643   2.300 -0.3885  1.0592 -0.0058
 7115TIP3    H242761   6.665   1.630   2.423  0.5768  1.2528 -0.6616
 7116TIP3   OH242762   4.201   1.187   3.979  0.3380  0.3545  0.2928
 7116TIP3    H142763   4.172   1.180   4.070 -0.4303  0.2930  0.0474
 7116TIP3    H242764   4.275   1.127   3.973  1.0468  1.1229  1.1328
 7117TIP3   OH242765   3.075   4.274   2.823 -0.4208  0.1002  0.1470
 7117TIP3    H142766   3.079   4.369   2.808 -1.7632 -0.2671 -2.6917
 7117TIP3    H242767   2.991   4.247   2.787 -0.1581 -2.1820  1.1470
 7118TIP3   OH242768   0.413   1.613  15.914  0.0133 -0.4420  0.6251
 7118TIP3    H142769   0.328   1.644  15.883 -0.0427 -0.5546  0.6651
 7118TIP3    H242770   0.477   1.667  15.869 -0.0682 -0.6117  0.3084
 7119TIP3   OH242771   6.685   1.418  12.117  0.3441  0.9918  0.2007
 7119TIP3    H142772   6.627   1.494  12.119 -1.1066 -0.0992  0.0538
 7119TIP3    H242773   6.733   1.426  12.035 -1.5457  0.4803 -0.9768
 7120TIP3   OH242774   4.230   4.400   1.376  0.0595  0.3554  0.5134
 7120TIP3    H142775   4.183   4.483   1.379 -1.0186 -0.2448  0.8063
 7120TIP3    H242776   4.315   4.421   1.337 -0.5774  1.4119 -0.3399
 7121TIP3   OH242777   2.606   0.993   0.105  0.4441 -0.3527 -0.3784
 7121TIP3    H142778   2.640   1.049   0.176 -0.1236  0.3842 -0.6761
 7121TIP3    H242779   2.666   1.008   0.032  0.4374 -0.3231 -0.3780
 7122TIP3   OH242780   4.319   4.011  13.031  0.0050 -0.1394 -0.2981
 7122TIP3    H142781   4.283   3.936  13.078 -1.2816 -0.0402 -1.1078
 7122TIP3    H242782   4.409   3.985  13.010 -0.2245 -1.1924 -0.0024
 7123TIP3   OH242783   1.237   5.319  16.007  0.4872 -0.1376  0.2416
 7123TIP3    H142784   1.332   5.318  15.992  0.2345 -0.4888 -1.4285
 7123TIP3    H242785   1.225   5.272  16.089  1.6613 -1.2042 -0.1816
 7124TIP3   OH242786   5.664   6.163  15.413  0.0461  0.5204  0.0714
 7124TIP3    H142787   5.751   6.168  15.373  0.9329 -1.4998  1.6573
 7124TIP3    H242788   5.609   6.122  15.346  1.1078 -1.2035  0.2127
 7125TIP3   OH242789   1.908   6.024   5.039  0.5651 -0.5530  0.0792
 7125TIP3    H142790   2.002   6.033   5.052  0.1917  0.2022  2.4756
 7125TIP3    H242791   1.869   6.051   5.122 -1.8618  1.0080 -1.4926
 7126TIP3   OH242792   3.546   3.667   5.614  0.2994  0.3694  0.1957
 7126TIP3    H142793   3.492   3.648   5.691  0.7292 -0.3432  0.3275
 7126TIP3    H242794   3.546   3.762   5.608  0.8607  0.4638  1.4998
 7127TIP3   OH242795   1.390   5.367  12.137  0.1955 -0.5912  0.3680
 7127TIP3    H142796   1.333   5.359  12.213 -2.2268 -0.1160 -1.3340
 7127TIP3    H242797   1.413   5.277  12.114  0.1364 -0.7875  1.0876
 7128TIP3   OH242798   2.442   4.285  16.706  0.0448 -0.3204 -0.5651
 7128TIP3    H142799   2.350   4.295  16.730  0.6655  1.4916  1.1202
 7128TIP3    H242800   2.439   4.260  16.613 -2.1482 -0.8125 -0.4035
 7129TIP3   OH242801   1.007   6.533   0.934  0.0727  0.0568 -0.3496
 7129TIP3    H142802   1.071   6.482   0.883 -1.2432 -1.4075 -0.5576
 7129TIP3    H242803   1.004   6.489   1.019  0.7980  1.3218  0.3480
 7130TIP3   OH242804   4.583   4.506   5.715  1.0299 -0.0548  0.2051
 7130TIP3    H142805   4.512   4.567   5.736  2.4645  1.5798  0.4569
 7130TIP3    H242806   4.575   4.492   5.621 -0.4568 -0.9825  0.4523
 7131TIP3   OH242807   3.627   0.384   1.173  0.7863  0.1323  0.0697
 7131TIP3    H142808   3.544   0.337   1.171  1.6143 -1.3449 -2.8510
 7131TIP3    H242809   3.666   0.361   1.257 -0.0219 -2.3644 -0.2043
 7132TIP3   OH242810   5.656   2.294  16.643  0.0445  0.4301  0.0752
 7132TIP3    H142811   5.640   2.363  16.579  1.8467  1.4683  0.7067
 7132TIP3    H242812   5.569   2.269  16.674 -0.6994  1.5515 -1.0755
 7133TIP3   OH242813   1.474   0.868  13.787  0.5987  0.3749 -0.0916
 7133TIP3    H142814   1.444   0.816  13.712  1.1814  0.0348 -0.0919
 7133TIP3    H242815   1.542   0.925  13.750  1.0896  0.0068  0.2277
 7134TIP3   OH242816   2.198   4.485  16.296  0.1412  0.2461 -0.2037
 7134TIP3    H142817   2.119   4.509  16.345  0.8645  0.0468  1.0563
 7134TIP3    H242818   2.189   4.534  16.213 -1.5460 -0.1667 -0.2932
 7135TIP3   OH242819   3.054   2.830  16.546 -0.4171 -0.5753  0.3263
 7135TIP3    H142820   3.108   2.755  16.567  0.1249 -0.7006 -1.4469
 7135TIP3    H242821   3.016   2.810  16.461  1.4191  2.0410 -1.1874
 7136TIP3   OH242822   4.308   3.387   1.789  0.4973 -0.0626  0.0258
 7136TIP3    H142823   4.215   3.406   1.777  0.5572  0.5320  0.4601
 7136TIP3    H242824   4.331   3.431   1.871  0.6954 -1.8772  0.9768
 7137TIP3   OH242825   3.012   3.947   5.488  0.1512 -0.8176 -0.0095
 7137TIP3    H142826   3.068   3.929   5.563  0.3573 -0.3800 -0.0517
 7137TIP3    H242827   3.024   4.041   5.472 -1.0093 -0.6073  0.3194
 7138TIP3   OH242828   4.160   2.266  15.615 -0.4569 -0.3844 -0.3858
 7138TIP3    H142829   4.163   2.332  15.684  1.3020 -0.1399 -0.6781
 7138TIP3    H242830   4.128   2.313  15.538  2.8620  0.7044 -1.1715
 7139TIP3   OH242831   4.820   6.719   4.775  0.0741 -0.0216 -0.0036
 7139TIP3    H142832   4.830   6.807   4.738  3.4873  0.2526  1.4253
 7139TIP3    H242833   4.888   6.667   4.732 -1.4589 -1.8297 -0.3275
 7140TIP3   OH242834   0.960   1.874   6.018 -0.7621  0.0673  0.1212
 7140TIP3    H142835   0.897   1.936   6.054 -0.1573  0.2623  0.8561
 7140TIP3    H242836   1.041   1.926   6.009 -0.4745 -0.4017 -0.0104
 7141TIP3   OH242837   5.691   1.181   4.507  0.4659  0.3189  0.0749
 7141TIP3    H142838   5.773   1.182   4.556 -0.7984  0.2277  2.2370
 7141TIP3    H242839   5.709   1.235   4.430  2.6357  0.0747  0.3740
 7142TIP3   OH242840   6.130   5.944  15.391  0.2149  0.3039 -0.1337
 7142TIP3    H142841   6.133   5.892  15.310  0.1039 -0.9992  0.6843
 7142TIP3    H242842   6.040   5.935  15.422  0.3242  0.5947  0.2703
 7143TIP3   OH242843   2.473   5.340  15.222 -0.1077 -0.2309 -0.0716
 7143TIP3    H142844   2.455   5.278  15.150 -0.4236 -0.0834 -0.1193
 7143TIP3    H242845   2.459   5.288  15.301  1.4455 -0.7445 -0.1144
 7144TIP3   OH242846   4.105   4.692  14.964 -0.0309 -0.1289  0.4817
 7144TIP3    H142847   4.113   4.599  14.986  1.8394 -0.3147 -0.8363
 7144TIP3    H242848   4.094   4.736  15.048  0.1606 -1.4479  1.2056
 7145TIP3   OH242849   0.210   6.135  11.541  0.5702 -0.0208  0.2826
 7145TIP3    H142850   0.203   6.048  11.501 -0.0343 -0.2562  0.8992
 7145TIP3    H242851   0.120   6.162  11.556  0.7885 -0.0506  1.7189
 7146TIP3   OH242852   0.361   3.678   2.457 -0.2283  0.1626 -0.6065
 7146TIP3    H142853   0.322   3.760   2.486  1.1514  0.0874  1.6310
 7146TIP3    H242854   0.455   3.695   2.456  0.2793 -1.9519  2.1112
 7147TIP3   OH242855   4.012   4.878  15.864 -0.3728  0.5630  0.5756
 7147TIP3    H142856   4.094   4.926  15.859 -0.1073  0.2279  1.5671
 7147TIP3    H242857   3.996   4.868  15.958 -1.2021  0.0480  0.3833
 7148TIP3   OH242858   5.873   0.135   2.539  0.6632  0.1560  0.6782
 7148TIP3    H142859   5.913   0.050   2.519 -1.3466 -0.5753 -0.3906
 7148TIP3    H242860   5.828   0.121   2.623 -0.2902 -0.0467  0.1309
 7149TIP3   OH242861   3.517   2.054   1.910 -0.1221  0.5286 -0.2539
 7149TIP3    H142862   3.593   2.098   1.873  0.3772  1.2839  1.6192
 7149TIP3    H242863   3.544   1.962   1.917 -0.9333 -0.0393 -3.5472
 7150TIP3   OH242864   1.382   6.752   2.861  0.1787 -0.5279  0.1429
 7150TIP3    H142865   1.411   6.773   2.772  0.5332  1.6668  0.7382
 7150TIP3    H242866   1.287   6.753   2.857  0.1958 -0.6488 -0.2645
 7151TIP3   OH242867   2.339   0.122  11.148  0.3378 -0.6690  0.3428
 7151TIP3    H142868   2.322   0.091  11.059  0.0671 -1.1769  0.5716
 7151TIP3    H242869   2.418   0.076  11.175 -0.6246 -1.9370  1.0524
 7152TIP3   OH242870   1.496   0.186   3.910 -0.4214  0.1334  0.1325
 7152TIP3    H142871   1.543   0.269   3.901 -2.4093  1.2788 -0.0005
 7152TIP3    H242872   1.527   0.133   3.836  0.9519  0.6809  0.2927
 7153TIP3   OH242873   0.772   4.521   0.429  0.0438  0.2354  0.2884
 7153TIP3    H142874   0.859   4.483   0.421  0.0102  0.3527 -0.6990
 7153TIP3    H242875   0.782   4.612   0.400 -0.5107  0.1029 -0.3225
 7154TIP3   OH242876   0.202   3.230  12.668 -0.1610  0.0576  0.0437
 7154TIP3    H142877   0.178   3.145  12.629  0.6533  0.6712 -1.8673
 7154TIP3    H242878   0.293   3.218  12.696  1.0741  1.2835 -3.2527
 7155TIP3   OH242879   0.684   0.844   5.714 -0.0178 -0.4769 -0.3388
 7155TIP3    H142880   0.629   0.886   5.780 -1.7488 -0.2313 -1.8905
 7155TIP3    H242881   0.769   0.888   5.721 -0.3877  0.0148  1.2298
 7156TIP3   OH242882   3.935   4.694   3.447 -0.1191  0.7269 -0.1895
 7156TIP3    H142883   3.857   4.676   3.500 -0.5211  0.3788 -0.8997
 7156TIP3    H242884   3.964   4.608   3.418  0.8839  0.8069  0.5710
 7157TIP3   OH242885   0.303   1.431   4.307 -0.4814 -0.0128 -0.0994
 7157TIP3    H142886   0.301   1.398   4.397  0.3641 -0.1597 -0.1291
 7157TIP3    H242887   0.325   1.354   4.254  0.7532  0.4268 -0.2468
 7158TIP3   OH242888   2.674   4.880   1.743  0.3927  0.3321  0.1125
 7158TIP3    H142889   2.683   4.785   1.745  0.2863  0.3103 -0.5108
 7158TIP3    H242890   2.601   4.897   1.683 -0.8318  0.7262  1.6581
 7159TIP3   OH242891   1.549   4.844   3.165  0.4429 -0.7710  0.3264
 7159TIP3    H142892   1.491   4.774   3.196 -1.0931  1.4559  2.6366
 7159TIP3    H242893   1.597   4.872   3.243 -1.6162  3.2146  0.2878
 7160TIP3   OH242894   5.379   3.288   6.800  0.0637  0.5918  0.4945
 7160TIP3    H142895   5.307   3.242   6.756  1.7592 -1.3308 -0.3855
 7160TIP3    H242896   5.374   3.378   6.769 -2.6228  0.7685  1.3150
 7161TIP3   OH242897   0.297   1.415  12.620 -0.2292  0.4294  0.2083
 7161TIP3    H142898   0.279   1.472  12.545  1.8121  0.0200 -0.6253
 7161TIP3    H242899   0.250   1.455  12.693 -1.1328  1.5903 -0.9963
 7162TIP3   OH242900   3.098   2.561  16.594 -0.3807  0.2637  0.5148
 7162TIP3    H142901   3.054   2.560  16.679  2.3655 -0.4095  1.9994
 7162TIP3    H242902   3.053   2.493  16.543  0.4416 -2.0946  2.8053
 7163TIP3   OH242903   0.371   0.060  15.442 -0.1115 -0.4213  0.6360
 7163TIP3    H142904   0.277   0.073  15.430  0.1663 -0.2774 -1.5843
 7163TIP3    H242905   0.404   0.040  15.354  1.8712 -0.8519  1.4506
 7164TIP3   OH242906   6.229   0.827  12.859 -0.3366  0.5826  0.7520
 7164TIP3    H142907   6.288   0.776  12.915  1.4834  1.2325 -0.5193
 7164TIP3    H242908   6.141   0.802  12.888  0.5410 -0.2083  2.8874
 7165TIP3   OH242909   4.914   0.562   0.398  0.0991  0.1428  0.2339
 7165TIP3    H142910   4.948   0.534   0.313  0.5964 -2.2948  1.1893
 7165TIP3    H242911   4.988   0.606   0.440  0.2744  0.0900 -0.0191
 7166TIP3   OH242912   1.219   2.662   2.403 -0.2323  0.0604  0.0439
 7166TIP3    H142913   1.234   2.640   2.496  0.1855 -0.6162 -0.1771
 7166TIP3    H242914   1.184   2.751   2.405 -0.5950 -0.0944  0.8798
 7167TIP3   OH242915   1.451   2.575  10.903 -0.8537 -0.0379 -0.0381
 7167TIP3    H142916   1.448   2.533  10.816 -0.1574  1.2139 -0.6777
 7167TIP3    H242917   1.419   2.508  10.963 -1.1583 -0.9891 -1.2429
 7168TIP3   OH242918   4.217   3.394   4.277 -0.3280 -0.4330  0.1359
 7168TIP3    H142919   4.206   3.371   4.369  0.3633  0.4790  0.4453
 7168TIP3    H242920   4.138   3.444   4.255 -0.3990 -0.4816  0.2831
 7169TIP3   OH242921   0.399   3.237  12.086  0.0410 -0.3124  0.7692
 7169TIP3    H142922   0.364   3.302  12.026  0.3215 -0.3599  0.5510
 7169TIP3    H242923   0.322   3.190  12.118 -0.2155  0.5917  1.4706
 7170TIP3   OH242924   4.298   0.449  15.447 -0.0107  0.5121  0.2843
 7170TIP3    H142925   4.305   0.375  15.506 -0.3659  1.5970  1.7248
 7170TIP3    H242926   4.290   0.525  15.504  1.5603  1.8087 -1.1395
 7171TIP3   OH242927   2.241   6.542   3.977 -0.1313  0.1398 -0.3058
 7171TIP3    H142928   2.148   6.526   3.996 -0.0800 -0.7570 -0.8036
 7171TIP3    H242929   2.287   6.507   4.053 -0.1784  0.3498 -0.1780
 7172TIP3   OH242930   2.043   1.643  11.015  0.4285 -0.0796  0.3122
 7172TIP3    H142931   1.983   1.709  10.980  0.3440  0.0302  0.6692
 7172TIP3    H242932   2.111   1.636  10.948 -0.3948 -0.7828 -0.4613
 7173TIP3   OH242933   4.435   3.139   1.750 -0.1688  0.2128 -0.4351
 7173TIP3    H142934   4.378   3.216   1.749  0.1434  0.4531 -0.1169
 7173TIP3    H242935   4.465   3.133   1.841  1.0883  0.6656 -0.8056
 7174TIP3   OH242936   0.442   2.667  14.186  0.3528 -0.5611 -0.0241
 7174TIP3    H142937   0.509   2.639  14.124 -0.0532  0.1445 -0.7966
 7174TIP3    H242938   0.460   2.760  14.201 -1.1050 -0.0658 -1.1287
 7175TIP3   OH242939   0.570   5.528   2.143  0.3999  0.4311  0.6696
 7175TIP3    H142940   0.535   5.441   2.159  0.5742  0.8272  3.3493
 7175TIP3    H242941   0.495   5.579   2.111 -0.2817 -0.0575  1.4782
 7176TIP3   OH242942   6.189   3.647  16.252 -0.3249  0.3030  0.3198
 7176TIP3    H142943   6.104   3.684  16.278  0.0430  1.5262 -0.1671
 7176TIP3    H242944   6.170   3.598  16.172 -0.9363 -1.1346  1.3180
 7177TIP3   OH242945   2.444   0.456  15.113 -0.0838 -0.0800  0.5475
 7177TIP3    H142946   2.511   0.451  15.045  0.6529  0.7418  1.1993
 7177TIP3    H242947   2.488   0.426  15.192 -1.6316 -3.5171  0.2222
 7178TIP3   OH242948   6.696   0.859  11.678 -0.0098  0.3352  0.4274
 7178TIP3    H142949   6.750   0.805  11.736 -1.8842 -1.6052  0.4467
 7178TIP3    H242950   6.706   0.818  11.592 -0.9446  0.3505  0.3105
 7179TIP3   OH242951   4.765   3.359   1.115 -0.1293 -0.3347  0.2963
 7179TIP3    H142952   4.852   3.353   1.153 -0.0086  1.2302  0.3092
 7179TIP3    H242953   4.776   3.416   1.039 -0.9789 -0.8408 -0.2200
 7180TIP3   OH242954   2.964   0.119  15.298 -0.0914 -0.2108 -0.3978
 7180TIP3    H142955   2.905   0.044  15.296 -0.9864  0.4241  0.7440
 7180TIP3    H242956   3.050   0.082  15.316 -0.7802 -0.8536  1.7379
 7181TIP3   OH242957   4.279   1.251  11.889  0.4527  0.2213 -0.4546
 7181TIP3    H142958   4.259   1.340  11.861 -0.0716 -0.4114 -2.1846
 7181TIP3    H242959   4.350   1.223  11.831  0.7337 -0.4248  0.1920
 7182TIP3   OH242960   5.222   4.635  13.846 -0.8136  0.8022  0.7213
 7182TIP3    H142961   5.149   4.618  13.906 -1.1186  0.2554  0.1985
 7182TIP3    H242962   5.260   4.549  13.829  1.1163  1.2809  2.4354
 7183TIP3   OH242963   2.570   4.968   5.862  0.3654  0.4563  0.5131
 7183TIP3    H142964   2.628   5.035   5.826 -0.2277  1.9534  2.2191
 7183TIP3    H242965   2.511   5.017   5.920 -1.2117 -1.3216  0.4424
 7184TIP3   OH242966   3.932   1.145   0.870 -0.0869 -0.2676 -1.0891
 7184TIP3    H142967   3.875   1.070   0.853 -1.1829  0.3968 -0.4330
 7184TIP3    H242968   3.991   1.115   0.940 -1.1810 -0.1987 -0.1265
 7185TIP3   OH242969   4.262   1.040  15.592  0.9549  0.0376 -0.0535
 7185TIP3    H142970   4.318   0.979  15.543 -0.5852 -1.8380  0.4492
 7185TIP3    H242971   4.209   0.983  15.649  0.5281  1.9638  1.5251
 7186TIP3   OH242972   4.885   3.806   5.232  0.1261 -0.1610  0.2148
 7186TIP3    H142973   4.856   3.741   5.168 -0.1367 -1.0063  1.1898
 7186TIP3    H242974   4.977   3.784   5.249 -0.4910 -1.4774  1.9780
 7187TIP3   OH242975   6.710   6.340  11.472  0.7372  0.3249  0.3846
 7187TIP3    H142976   6.766   6.379  11.539  1.3636  1.0817 -0.5490
 7187TIP3    H242977   6.752   6.365  11.389  1.0043 -2.1480 -0.2508
 7188TIP3   OH242978   3.897   1.797  13.674  0.1249 -0.2946 -0.2089
 7188TIP3    H142979   3.943   1.796  13.590 -1.4966 -0.8190 -1.1066
 7188TIP3    H242980   3.823   1.737  13.662 -1.6639  1.6847  0.7101
 7189TIP3   OH242981   0.489   5.246  11.414 -0.5359 -0.1377 -0.0308
 7189TIP3    H142982   0.493   5.208  11.326 -0.8840  0.7555 -0.4360
 7189TIP3    H242983   0.535   5.329  11.406  0.9709 -0.8432  1.0579
 7190TIP3   OH242984   1.126   4.687   0.858 -0.1927 -0.1208  0.0846
 7190TIP3    H142985   1.185   4.705   0.785  0.7700 -1.5828  0.4776
 7190TIP3    H242986   1.183   4.680   0.934 -0.9605 -0.7657  0.6054
 7191TIP3   OH242987   1.402   6.607  12.874  0.1288 -0.3901  0.2512
 7191TIP3    H142988   1.388   6.615  12.779  3.6175  2.3421 -0.1806
 7191TIP3    H242989   1.355   6.681  12.912  1.9248  0.8491  0.1642
 7192TIP3   OH242990   5.800   3.652  13.210 -0.2847 -0.2808 -0.1633
 7192TIP3    H142991   5.846   3.569  13.221 -1.1418 -0.6837  0.3763
 7192TIP3    H242992   5.708   3.629  13.208 -0.5515  0.6960  0.4120
 7193TIP3   OH242993   1.754   3.431   4.855 -0.1860 -0.2937  0.5170
 7193TIP3    H142994   1.728   3.521   4.875  1.2285  0.2042  0.2057
 7193TIP3    H242995   1.828   3.440   4.795 -2.1011 -1.7303 -2.1713
 7194TIP3   OH242996   2.898   1.112   5.028  0.2582 -0.0490 -0.0912
 7194TIP3    H142997   2.885   1.031   5.077 -0.5865 -0.7214 -1.4034
 7194TIP3    H242998   2.820   1.119   4.973  0.4765  1.4888 -0.2188
 7195TIP3   OH242999   6.335   0.797  16.912 -0.0551  0.0092  0.1891
 7195TIP3    H143000   6.316   0.875  16.964  2.0915 -0.4290  1.6773
 7195TIP3    H243001   6.269   0.733  16.938 -0.0356  0.3555  1.0815
 7196TIP3   OH243002   3.863   0.886   0.078 -0.5329  0.7982 -0.1496
 7196TIP3    H143003   3.851   0.815   0.014  0.2940  0.4773  0.0509
 7196TIP3    H243004   3.784   0.939   0.069 -0.3639  0.8236 -1.5348
 7197TIP3   OH243005   2.393   1.977   2.509  0.2433 -0.6913  0.0779
 7197TIP3    H143006   2.473   1.936   2.476  0.5239  0.8028 -1.1467
 7197TIP3    H243007   2.326   1.910   2.496  0.6262 -0.6720 -2.2835
 7198TIP3   OH243008   5.912   3.689   1.234 -0.2164  0.3672 -0.0511
 7198TIP3    H143009   5.903   3.596   1.253 -2.2635  0.5728  0.1411
 7198TIP3    H243010   5.880   3.733   1.313  0.9296  1.2308 -0.0598
 7199TIP3   OH243011   1.196   3.366  11.164 -0.4657 -0.1055  0.2429
 7199TIP3    H143012   1.197   3.359  11.069 -1.7306 -0.3959  0.2500
 7199TIP3    H243013   1.282   3.334  11.191 -0.3620 -0.6850 -0.7548
 7200TIP3   OH243014   3.938   1.204  15.380  0.7931 -0.1890  0.5937
 7200TIP3    H143015   3.913   1.123  15.336  1.1354  1.0118 -1.8908
 7200TIP3    H243016   4.031   1.215  15.360  0.5443  1.2550  0.1668
 7201TIP3   OH243017   4.946   5.513   2.882 -0.0094 -0.3130  0.1978
 7201TIP3    H143018   5.038   5.491   2.900  0.7020  2.7126  0.4456
 7201TIP3    H243019   4.933   5.485   2.791  0.8823 -1.6170  0.4584
 7202TIP3   OH243020   2.840   3.317   4.515 -0.1908  0.5838  0.4690
 7202TIP3    H143021   2.840   3.407   4.549 -1.0848  0.8548 -0.2071
 7202TIP3    H243022   2.766   3.275   4.559 -2.2024  1.3256 -2.0639
 7203TIP3   OH243023   0.085   4.734   5.269  0.3315  0.1098  0.6818
 7203TIP3    H143024   0.103   4.674   5.197  0.2001  0.8048  0.0628
 7203TIP3    H243025   0.167   4.738   5.318  0.5172 -0.1198  0.3899
 7204TIP3   OH243026   0.197   3.514  14.263  0.2653 -0.2257 -0.1168
 7204TIP3    H143027   0.242   3.567  14.329  0.0494 -1.3009  0.9139
 7204TIP3    H243028   0.165   3.438  14.312 -2.5683  0.4413 -0.8611
 7205TIP3   OH243029   1.452   3.499  14.219  0.7246 -0.4318 -0.0756
 7205TIP3    H143030   1.476   3.591  14.232  0.7851 -0.1711 -1.9638
 7205TIP3    H243031   1.517   3.450  14.269  0.8153  0.5420  0.7711
 7206TIP3   OH243032   3.733   5.974  10.367 -0.5231  0.1553  0.5705
 7206TIP3    H143033   3.819   5.932  10.370  0.6172  2.1361 -2.2811
 7206TIP3    H243034   3.736   6.040  10.435  0.4376  0.5874  0.1138
 7207TIP3   OH243035   2.576   3.216   4.567  0.3285  0.1586 -0.4758
 7207TIP3    H143036   2.621   3.136   4.596  0.4563  0.2180 -0.5068
 7207TIP3    H243037   2.594   3.220   4.473 -0.8150 -0.4978 -0.7335
 7208TIP3   OH243038   2.406   4.795  14.853  0.0874 -0.8920 -0.2945
 7208TIP3    H143039   2.337   4.734  14.829 -1.3909  0.2969  0.8610
 7208TIP3    H243040   2.363   4.880  14.857  1.7507 -0.0284 -0.1592
 7209TIP3   OH243041   0.062   1.703  16.323 -0.7527 -0.1109  0.1327
 7209TIP3    H143042   0.142   1.651  16.320 -1.3723 -1.0218 -0.9246
 7209TIP3    H243043   0.088   1.789  16.290 -0.4680 -0.7669 -1.4061
 7210TIP3   OH243044   4.574   0.975  11.568 -0.4735 -0.0347 -0.1489
 7210TIP3    H143045   4.630   1.051  11.585 -0.2247 -0.0675 -0.8322
 7210TIP3    H243046   4.634   0.900  11.566 -0.6052 -0.1352 -0.3796
 7211TIP3   OH243047   2.999   4.199  12.373  0.0606  0.5732 -0.5955
 7211TIP3    H143048   2.927   4.142  12.348  0.3887 -0.0700 -0.0707
 7211TIP3    H243049   3.027   4.168  12.459  0.2079  1.5515 -0.2763
 7212TIP3   OH243050   0.742   4.549   5.449  0.1630  0.2558  0.1313
 7212TIP3    H143051   0.648   4.546   5.461  0.0004  0.7614 -0.9358
 7212TIP3    H243052   0.769   4.457   5.450 -0.4145  0.0807 -0.0429
 7213TIP3   OH243053   5.846   4.878   2.637  0.0566 -0.2756  0.2362
 7213TIP3    H143054   5.858   4.891   2.732  2.4560 -0.2879 -0.0201
 7213TIP3    H243055   5.757   4.847   2.628 -0.7693  1.3267  2.3579
 7214TIP3   OH243056   5.726   0.890  13.936 -0.3469  0.1267  0.2412
 7214TIP3    H143057   5.703   0.802  13.904  0.5295 -0.4032  1.0487
 7214TIP3    H243058   5.818   0.884  13.959 -0.4888  1.0408  1.0790
 7215TIP3   OH243059   2.923   4.254   1.130 -0.3462  0.2462  0.4341
 7215TIP3    H143060   2.890   4.305   1.056 -0.1003  1.1451  0.9376
 7215TIP3    H243061   3.017   4.244   1.113 -0.4619 -0.3601  0.1482
 7216TIP3   OH243062   1.273   1.226   2.135  0.2049 -0.6059  0.4810
 7216TIP3    H143063   1.243   1.316   2.145  1.7139 -0.1884  1.3679
 7216TIP3    H243064   1.301   1.200   2.222  1.5386 -1.2729 -0.1263
 7217TIP3   OH243065   3.420   3.194   2.732  0.6386 -0.3474 -0.8440
 7217TIP3    H143066   3.398   3.105   2.703 -3.0572  0.5567 -1.0090
 7217TIP3    H243067   3.475   3.229   2.662  0.1192 -1.6466 -1.9353
 7218TIP3   OH243068   1.412   5.291   2.988 -0.6470  0.3994 -0.0796
 7218TIP3    H143069   1.495   5.305   2.944 -1.3379 -1.5667 -2.0941
 7218TIP3    H243070   1.422   5.207   3.032 -0.7845  1.2511  1.6227
 7219TIP3   OH243071   0.633   1.569  13.399  0.1003  0.0173  0.8572
 7219TIP3    H143072   0.702   1.613  13.348  0.2451  0.0180  1.0542
 7219TIP3    H243073   0.681   1.512  13.459 -0.0911 -0.5188  0.4996
 7220TIP3   OH243074   1.222   1.612  11.838 -0.4244 -0.2121 -0.6373
 7220TIP3    H143075   1.214   1.521  11.863 -1.7726  0.0776  0.0421
 7220TIP3    H243076   1.305   1.641  11.875  1.0137 -1.6895 -2.5867
 7221TIP3   OH243077   2.887   0.255  16.243  0.4122  0.9662 -0.0313
 7221TIP3    H143078   2.927   0.203  16.173 -1.0052 -1.6615  1.0595
 7221TIP3    H243079   2.934   0.230  16.322 -2.5360 -1.3326  1.0820
 7222TIP3   OH243080   2.918   5.747   2.544  0.1440 -0.3898 -0.5383
 7222TIP3    H143081   2.878   5.816   2.490  1.9843  1.9864  1.0681
 7222TIP3    H243082   2.883   5.762   2.632  1.4063 -0.8494  0.0432
 7223TIP3   OH243083   6.675   0.392  16.884  0.0641  0.0540  0.2727
 7223TIP3    H143084   6.689   0.413  16.977 -0.7290  0.4662  0.2976
 7223TIP3    H243085   6.661   0.476  16.842 -1.5007 -0.2906  0.0956
 7224TIP3   OH243086   2.743   6.755  11.672 -0.1048 -0.2847  0.5638
 7224TIP3    H143087   2.683   6.819  11.711 -0.2700 -0.0234 -0.1068
 7224TIP3    H243088   2.767   6.698  11.744  1.4901  1.6158  1.5989
 7225TIP3   OH243089   4.534   3.404   2.523 -0.3568  0.0340  0.3133
 7225TIP3    H143090   4.475   3.460   2.573 -0.8456  0.6735 -0.9534
 7225TIP3    H243091   4.477   3.337   2.485 -0.2775  0.6327 -0.8804
 7226TIP3   OH243092   6.671   6.760   6.165 -0.5898 -0.3326  0.1787
 7226TIP3    H143093   6.601   6.819   6.138 -1.3615 -0.6982  1.3210
 7226TIP3    H243094   6.681   6.699   6.092  0.1177  1.1193 -0.9446
 7227TIP3   OH243095   0.787   5.662   1.656  0.2770 -0.1092 -0.6358
 7227TIP3    H143096   0.858   5.603   1.680 -0.4608 -1.3746 -1.4980
 7227TIP3    H243097   0.821   5.710   1.580  0.6986  0.2513 -0.2266
 7228TIP3   OH243098   2.049   0.293  14.112  0.2594 -0.0092 -0.2705
 7228TIP3    H143099   2.073   0.201  14.123  0.4616 -0.0675 -1.1329
 7228TIP3    H243100   1.979   0.292  14.046 -1.2495  0.2723  1.3142
 7229TIP3   OH243101   6.644   1.614   1.206 -0.0762 -0.1385  0.1185
 7229TIP3    H143102   6.575   1.652   1.151  0.2071  0.1206 -0.0569
 7229TIP3    H243103   6.726   1.646   1.168  0.2556 -2.4953 -1.2145
 7230TIP3   OH243104   2.632   4.107   3.338 -0.1227  0.1081  0.2991
 7230TIP3    H143105   2.698   4.123   3.405 -1.6565  0.1955  1.8312
 7230TIP3    H243106   2.673   4.046   3.277  0.4804 -1.8978  2.6381
 7231TIP3   OH243107   4.936   3.274  16.137  0.0544  0.2158  0.0928
 7231TIP3    H143108   4.997   3.348  16.133 -1.4794  1.5750  1.4898
 7231TIP3    H243109   4.949   3.237  16.224 -1.1632  0.5559  0.4228
 7232TIP3   OH243110   3.521   5.842   4.466  0.1523  0.2765  0.1067
 7232TIP3    H143111   3.524   5.795   4.549 -0.7370 -0.0437 -0.0336
 7232TIP3    H243112   3.458   5.913   4.480  1.2799  1.2703  0.2280
 7233TIP3   OH243113   2.944   1.557   1.196  0.1769  0.0350  0.1304
 7233TIP3    H143114   2.971   1.615   1.125  0.1381  2.2320  1.8661
 7233TIP3    H243115   2.854   1.533   1.175  0.7246 -0.7080 -1.4278
 7234TIP3   OH243116   5.662   4.354  13.277 -0.1623 -0.2582 -0.0493
 7234TIP3    H143117   5.626   4.306  13.202  1.2517  2.2926 -2.4924
 7234TIP3    H243118   5.607   4.432  13.283  1.3795  0.8573 -0.1689
 7235TIP3   OH243119   6.728   3.799  10.986  0.1770  0.1123  0.4735
 7235TIP3    H143120   6.752   3.891  10.980 -2.1014  0.6855 -0.4278
 7235TIP3    H243121   6.807   3.756  11.019  2.1074  1.9991 -1.4628
 7236TIP3   OH243122   1.845   5.852  11.144  0.0898 -0.2441  0.3459
 7236TIP3    H143123   1.769   5.825  11.194 -1.3595 -0.0723 -1.6874
 7236TIP3    H243124   1.920   5.814  11.191 -1.2708 -0.8291  2.0789
 7237TIP3   OH243125   4.470   1.403  13.382 -0.1645 -0.3637 -0.1397
 7237TIP3    H143126   4.387   1.441  13.353  0.3895  0.7796 -0.2625
 7237TIP3    H243127   4.529   1.418  13.308  0.3602 -0.4754  0.2584
 7238TIP3   OH243128   4.208   4.105   4.535 -0.5240 -0.3933 -0.2145
 7238TIP3    H143129   4.221   4.064   4.621  0.0724  2.1360  0.9608
 7238TIP3    H243130   4.297   4.121   4.503 -0.7500  0.1566 -0.5700
 7239TIP3   OH243131   0.001   6.565  15.241 -0.4171  0.0457  0.1900
 7239TIP3    H143132   0.055   6.558  15.320  0.3824 -0.7232 -0.4221
 7239TIP3    H243133   0.050   6.517  15.174 -1.0372  0.7882 -0.8057
 7240TIP3   OH243134   3.695   2.188   5.186 -0.4065  0.3878  0.2755
 7240TIP3    H143135   3.673   2.104   5.225  0.9338 -0.7065 -1.2879
 7240TIP3    H243136   3.783   2.208   5.219  0.1859  0.1001 -1.0910
 7241TIP3   OH243137   5.423   0.541   1.341  0.0125  0.2271  0.0457
 7241TIP3    H143138   5.446   0.591   1.419 -1.5006 -0.6971  1.1189
 7241TIP3    H243139   5.340   0.578   1.311  0.7931  0.8517 -1.3826
 7242TIP3   OH243140   3.095   3.992  15.820 -0.3570 -0.1848  0.1505
 7242TIP3    H143141   3.042   4.072  15.818  1.6579  1.1967 -0.5858
 7242TIP3    H243142   3.106   3.972  15.912 -1.6669 -0.1629  0.3182
 7243TIP3   OH243143   5.725   2.472   5.373 -0.2597  0.8786  0.9524
 7243TIP3    H143144   5.710   2.383   5.341 -1.8451  0.6832  2.1776
 7243TIP3    H243145   5.737   2.462   5.467  3.4692  1.5537  0.6107
 7244TIP3   OH243146   4.108   0.103  11.799  0.5415 -0.1660  0.1073
 7244TIP3    H143147   4.175   0.170  11.816  0.1728 -0.1240  1.4497
 7244TIP3    H243148   4.155   0.020  11.810  0.3331 -0.1387  1.2950
 7245TIP3   OH243149   3.593   0.525   2.817 -0.3747  0.5440  0.3119
 7245TIP3    H143150   3.684   0.554   2.808 -0.5523  1.8477  2.2897
 7245TIP3    H243151   3.582   0.514   2.912 -1.7102 -1.4924 -0.0660
 7246TIP3   OH243152   4.793   1.966  14.147  0.2693  0.0424 -0.4379
 7246TIP3    H143153   4.824   1.934  14.062  0.0478 -1.2156 -0.0494
 7246TIP3    H243154   4.699   1.978  14.136  0.3369  0.5009 -0.5529
 7247TIP3   OH243155   4.706   4.548   2.540 -0.6481 -0.2961  0.7308
 7247TIP3    H143156   4.656   4.627   2.517  0.8555  0.2243 -0.8145
 7247TIP3    H243157   4.640   4.479   2.543 -1.6506  0.5974 -0.0870
 7248TIP3   OH243158   5.121   4.100   2.379  0.3980  0.1151  0.0346
 7248TIP3    H143159   5.078   4.048   2.447 -0.0821  2.3916  1.5181
 7248TIP3    H243160   5.050   4.146   2.335  0.8180 -0.5155 -1.3448
 7249TIP3   OH243161   4.621   2.511  15.006  0.0883 -0.2744  0.5362
 7249TIP3    H143162   4.643   2.470  14.923 -3.8080 -0.1237 -0.6693
 7249TIP3    H243163   4.582   2.595  14.982 -4.6099 -1.8336  2.1942
 7250TIP3   OH243164   3.763   1.194  14.526  0.6003  0.0301  0.6931
 7250TIP3    H143165   3.770   1.247  14.606  0.7326  0.4614  0.3979
 7250TIP3    H243166   3.851   1.159  14.513  1.2642  2.1133 -0.7294
 7251TIP3   OH243167   6.510   4.765  14.444  0.0103 -0.0867  0.3143
 7251TIP3    H143168   6.465   4.846  14.423 -0.2389 -0.4382 -0.5318
 7251TIP3    H243169   6.487   4.747  14.535 -0.5699  0.3754  0.2574
 7252TIP3   OH243170   6.270   5.271   5.380  0.3878  0.6311 -0.1795
 7252TIP3    H143171   6.255   5.212   5.454  0.6608  1.2356  0.3563
 7252TIP3    H243172   6.284   5.212   5.306  1.3364 -0.0021  0.4813
 7253TIP3   OH243173   5.255   2.984  11.926 -0.2974  0.5909  0.0941
 7253TIP3    H143174   5.160   2.974  11.921  0.1521 -3.7416 -1.6701
 7253TIP3    H243175   5.284   2.990  11.836  1.2402  0.1973  0.5457
 7254TIP3   OH243176   2.606   2.934   6.578 -0.8971  0.8108  0.2208
 7254TIP3    H143177   2.587   2.944   6.485 -2.7547 -2.1387  0.2292
 7254TIP3    H243178   2.541   2.989   6.622 -2.0976 -0.3171 -0.1278
 7255TIP3   OH243179   3.160   2.334  15.444  0.2187  0.6309  0.3396
 7255TIP3    H143180   3.176   2.427  15.424 -0.5537  0.3842 -1.5036
 7255TIP3    H243181   3.247   2.294  15.446  0.5217  1.2912  0.6901
 7256TIP3   OH243182   4.831   5.762  16.868  0.2798 -0.3226  0.1047
 7256TIP3    H143183   4.848   5.856  16.861  0.2224 -0.3678 -0.6352
 7256TIP3    H243184   4.905   5.729  16.920 -0.1106  0.2466  1.0384
 7257TIP3   OH243185   5.726   0.591   4.866  0.2445  0.1207 -0.0967
 7257TIP3    H143186   5.652   0.633   4.910 -0.2269 -0.5678 -0.2245
 7257TIP3    H243187   5.687   0.542   4.794  0.9321  0.5668 -0.7811
 7258TIP3   OH243188   1.918   0.230  13.280  0.4835  0.0237  0.6430
 7258TIP3    H143189   1.841   0.241  13.224  1.1713 -0.0953 -0.3339
 7258TIP3    H243190   1.944   0.320  13.301 -1.0098  0.0552  2.5111
 7259TIP3   OH243191   6.118   6.623  15.077 -0.1812  0.1350 -0.6402
 7259TIP3    H143192   6.108   6.584  15.163  1.0067 -2.6135 -1.6688
 7259TIP3    H243193   6.208   6.655  15.075 -0.5401  1.1692 -0.4937
 7260TIP3   OH243194   2.294   0.143  13.931 -0.1405  0.5659  0.5781
 7260TIP3    H143195   2.268   0.114  13.843  0.7016 -1.2410  0.8897
 7260TIP3    H243196   2.287   0.238  13.929 -0.8062  0.4877 -1.2347
 7261TIP3   OH243197   6.358   2.327  16.466  0.2282  0.1791 -0.5314
 7261TIP3    H143198   6.397   2.240  16.461  0.8561  0.4663 -0.7051
 7261TIP3    H243199   6.378   2.367  16.381 -1.1413  0.0419 -0.9325
 7262TIP3   OH243200   2.534   6.609  15.553  0.5275  0.1819 -0.1259
 7262TIP3    H143201   2.470   6.615  15.624  0.0917  0.3700 -0.5279
 7262TIP3    H243202   2.581   6.692  15.557  0.8784 -0.0343  0.2908
 7263TIP3   OH243203   6.719   3.472  11.607  0.6329 -0.3014 -0.1552
 7263TIP3    H143204   6.793   3.531  11.599 -0.4968  1.0990 -0.3909
 7263TIP3    H243205   6.724   3.416  11.529  0.0914  1.3447 -1.3923
 7264TIP3   OH243206   4.565   3.548  11.557  0.6547  0.2305  0.1535
 7264TIP3    H143207   4.518   3.608  11.615  0.1935 -1.1318  1.2078
 7264TIP3    H243208   4.589   3.602  11.481 -1.6289  1.2412  0.1080
 7265TIP3   OH243209   1.846   0.564  15.754  0.0714 -0.0316  0.9007
 7265TIP3    H143210   1.915   0.616  15.713 -1.5312 -0.1658 -2.1861
 7265TIP3    H243211   1.768   0.620  15.749 -0.8630 -1.3084  0.8356
 7266TIP3   OH243212   4.888   1.133   1.558 -0.5268 -0.2624  0.0226
 7266TIP3    H143213   4.862   1.196   1.625  0.0180  0.5652 -0.5276
 7266TIP3    H243214   4.979   1.156   1.538 -0.6814 -0.4998 -0.9863
 7267TIP3   OH243215   3.906   0.635   2.863  0.0894  0.2610 -0.1699
 7267TIP3    H143216   3.891   0.645   2.769 -2.7734  1.9514  0.4164
 7267TIP3    H243217   3.905   0.724   2.897  1.7224 -0.2952  1.4114
 7268TIP3   OH243218   6.339   0.904   2.224 -0.0597  0.2941  0.7351
 7268TIP3    H143219   6.254   0.879   2.189  0.2925 -0.8165  0.6598
 7268TIP3    H243220   6.331   0.997   2.243 -1.3331  0.1577  0.8572
 7269TIP3   OH243221   6.463   6.732   0.906  0.0552 -0.0843  0.6662
 7269TIP3    H143222   6.519   6.808   0.924  1.9557 -1.0914 -0.8026
 7269TIP3    H243223   6.444   6.695   0.992 -0.3982  1.7120  1.3545
 7270TIP3   OH243224   2.197   4.339  13.547 -0.4877 -0.1484  0.5163
 7270TIP3    H143225   2.143   4.265  13.576 -0.5762 -0.1081  0.4553
 7270TIP3    H243226   2.143   4.383  13.481 -1.0994  0.9146  1.7006
 7271TIP3   OH243227   4.276   5.058  12.916 -0.0789  0.5872 -0.2579
 7271TIP3    H143228   4.209   4.996  12.886 -1.4125  1.4385  0.9180
 7271TIP3    H243229   4.264   5.134  12.860 -1.2051  1.3734  1.0122
 7272TIP3   OH243230   4.351   1.440   4.875  0.2572  0.2352  0.0805
 7272TIP3    H143231   4.435   1.421   4.834  0.8914 -1.5252  2.1033
 7272TIP3    H243232   4.312   1.354   4.891 -0.2891  0.8907  2.4621
 7273TIP3   OH243233   1.907   2.271  12.644 -0.1079 -0.6579  0.0986
 7273TIP3    H143234   1.882   2.329  12.716  0.1151 -0.5461  0.0884
 7273TIP3    H243235   1.894   2.183  12.678  0.6213 -0.6119  0.5054
 7274TIP3   OH243236   1.617   4.173  13.348 -0.5506  0.0144 -0.1108
 7274TIP3    H143237   1.633   4.259  13.309  0.0018  0.4404  1.0330
 7274TIP3    H243238   1.678   4.168  13.421 -0.5382 -1.3865 -0.2017
 7275TIP3   OH243239   5.875   5.913   0.492 -0.0007  0.3749 -0.0131
 7275TIP3    H143240   5.960   5.953   0.510 -0.6698  1.2959  1.1999
 7275TIP3    H243241   5.879   5.828   0.536  0.7677 -0.1517 -1.0807
 7276TIP3   OH243242   0.838   4.201  15.375  0.5717 -0.3989  0.3261
 7276TIP3    H143243   0.888   4.278  15.346 -1.2119  0.4829 -0.5114
 7276TIP3    H243244   0.858   4.193  15.468  2.3418 -0.1318 -0.0119
 7277TIP3   OH243245   3.288   5.305   0.311 -0.1394 -0.6151  0.5083
 7277TIP3    H143246   3.361   5.310   0.250 -0.3443 -1.3633  0.1961
 7277TIP3    H243247   3.226   5.371   0.280 -0.2087 -0.9414 -0.0415
 7278TIP3   OH243248   0.733   2.649  14.356 -0.0888  0.3399 -0.3356
 7278TIP3    H143249   0.717   2.733  14.313  1.9095  0.8573 -0.1328
 7278TIP3    H243250   0.762   2.591  14.285  0.7234  0.4641 -0.1056
 7279TIP3   OH243251   5.127   2.084   5.311  0.0137 -0.2108 -0.7427
 7279TIP3    H143252   5.136   1.989   5.306 -0.5273 -0.1913 -2.5187
 7279TIP3    H243253   5.197   2.119   5.257  1.7503  0.5100  1.8783
 7280TIP3   OH243254   3.540   4.774  13.826  0.0623 -0.1254 -0.1252
 7280TIP3    H143255   3.532   4.810  13.737  0.5698 -1.6634 -0.8197
 7280TIP3    H243256   3.614   4.820  13.865  0.3649 -0.0289 -0.8040
 7281TIP3   OH243257   3.609   6.490  14.517 -0.0158 -0.4475 -0.5153
 7281TIP3    H143258   3.648   6.533  14.440 -0.5003 -0.2083 -0.6315
 7281TIP3    H243259   3.540   6.551  14.545 -0.7376 -1.1766 -0.7054
 7282TIP3   OH243260   5.350   2.824  12.533 -0.5394  0.5820  0.6724
 7282TIP3    H143261   5.405   2.894  12.499 -1.9642  1.7796  0.7897
 7282TIP3    H243262   5.300   2.793  12.458 -0.0820 -0.1781  0.6686
 7283TIP3   OH243263   6.726   2.648  11.771  0.3284 -0.2219 -0.7855
 7283TIP3    H143264   6.650   2.638  11.714 -1.1136  2.2912  0.6642
 7283TIP3    H243265   6.738   2.561  11.809 -0.5815 -1.1360 -2.5170
 7284TIP3   OH243266   3.954   6.172  15.306  0.3167 -0.1236  0.0952
 7284TIP3    H143267   3.864   6.142  15.315 -0.3060  1.6541 -0.0262
 7284TIP3    H243268   3.975   6.211  15.391  1.3707 -1.5634  0.5072
 7285TIP3   OH243269   2.887   5.664  16.078  0.4530  0.0511  0.2149
 7285TIP3    H143270   2.955   5.681  16.143 -0.1337  0.4495  0.7255
 7285TIP3    H243271   2.935   5.652  15.996  1.1753 -0.1840  0.6674
 7286TIP3   OH243272   3.286   4.073   0.679  0.1536  0.1444 -0.0359
 7286TIP3    H143273   3.255   4.164   0.676 -1.9668 -0.5476 -0.4084
 7286TIP3    H243274   3.259   4.036   0.595  0.3942 -1.0156  0.3900
 7287TIP3   OH243275   6.083   0.451  12.338 -0.3947 -0.5181  0.0566
 7287TIP3    H143276   6.101   0.433  12.430 -2.7876  2.4040  1.1799
 7287TIP3    H243277   6.160   0.500  12.308 -0.5119  0.3394  1.1158
 7288TIP3   OH243278   1.869   0.771  13.767  0.2225  0.1804 -0.0980
 7288TIP3    H143279   1.890   0.860  13.798  1.2322 -0.2753  0.5345
 7288TIP3    H243280   1.935   0.715  13.808 -2.0003 -1.2335  1.6830
 7289TIP3   OH243281   1.735   0.970  12.448 -0.1914  0.1431  0.0414
 7289TIP3    H143282   1.776   0.898  12.496 -1.0241 -0.5552 -0.2925
 7289TIP3    H243283   1.660   0.931  12.405 -0.7378  1.2482 -0.0272
 7290TIP3   OH243284   2.937   2.141   0.883  0.3358  0.8015  0.2506
 7290TIP3    H143285   2.985   2.067   0.919 -0.1091  0.5604  0.3534
 7290TIP3    H243286   2.952   2.212   0.944  2.4656  1.3909 -0.9168
 7291TIP3   OH243287   2.210   6.533   5.206  0.0703  0.0125 -0.5612
 7291TIP3    H143288   2.207   6.487   5.122 -2.0289 -0.1311 -0.4382
 7291TIP3    H243289   2.149   6.606   5.195 -1.4562 -0.9407  1.3696
 7292TIP3   OH243290   0.687   3.511   0.763  0.9785  0.4974  0.2065
 7292TIP3    H143291   0.711   3.460   0.686  1.1248  0.2685  0.4016
 7292TIP3    H243292   0.683   3.446   0.834 -0.9296  0.4003  0.0493
 7293TIP3   OH243293   5.347   4.428   4.252  0.8676 -0.2924  0.1593
 7293TIP3    H143294   5.403   4.418   4.175  1.2407 -0.7236  0.4837
 7293TIP3    H243295   5.270   4.374   4.234  1.5192 -1.3835  0.6213
 7294TIP3   OH243296   2.614   1.093   0.398 -0.8376  0.2292  0.1076
 7294TIP3    H143297   2.655   1.127   0.478  0.5797  0.2239 -0.6156
 7294TIP3    H243298   2.554   1.025   0.429 -2.0229  1.7957  1.3690
 7295TIP3   OH243299   3.082   5.398  11.996 -0.4637  0.0318  0.6786
 7295TIP3    H143300   3.011   5.418  12.057 -0.4500 -0.2767  0.7938
 7295TIP3    H243301   3.089   5.476  11.941 -0.5268  0.2798  1.0215
 7296TIP3   OH243302   3.638   2.180   3.159  0.0313 -0.4506 -0.3709
 7296TIP3    H143303   3.544   2.195   3.171 -0.9521 -2.5398 -4.4287
 7296TIP3    H243304   3.650   2.088   3.181  1.7881  0.4961  2.9861
 7297TIP3   OH243305   1.381   0.470   4.159 -0.1526  0.0265 -0.1072
 7297TIP3    H143306   1.371   0.385   4.117 -0.6297  0.4966 -0.9737
 7297TIP3    H243307   1.464   0.504   4.126 -0.1868  0.0908 -0.1288
 7298TIP3   OH243308   0.741   1.419  14.764  0.4069  0.2262  0.2747
 7298TIP3    H143309   0.714   1.328  14.773  0.8084  0.2786  2.1651
 7298TIP3    H243310   0.764   1.428  14.671 -0.6894 -1.2881 -0.1632
 7299TIP3   OH243311   3.524   6.351  12.451 -0.0511 -0.5621 -0.0908
 7299TIP3    H143312   3.534   6.256  12.457 -1.6661 -0.7343 -0.0509
 7299TIP3    H243313   3.515   6.368  12.357  0.3222 -0.4285 -0.1055
 7300TIP3   OH243314   2.916   6.128   5.889  0.2842  0.1738 -0.1548
 7300TIP3    H143315   3.010   6.143   5.892  0.5599 -1.3947 -0.5310
 7300TIP3    H243316   2.878   6.199   5.940  1.6598  0.9257 -0.1755
 7301TIP3   OH243317   5.546   1.510  12.818  0.4674 -0.3595 -0.3760
 7301TIP3    H143318   5.487   1.448  12.777  0.3830 -0.7567  0.3388
 7301TIP3    H243319   5.562   1.474  12.905  1.8296 -0.2954 -0.5938
 7302TIP3   OH243320   1.463   4.007  16.291 -0.1361  0.1153  0.0939
 7302TIP3    H143321   1.536   3.962  16.334 -0.5140 -1.1857 -0.5926
 7302TIP3    H243322   1.462   3.970  16.203 -0.0860  1.9188 -0.6864
 7303TIP3   OH243323   5.472   4.117   1.532 -0.1936  0.6086 -0.3350
 7303TIP3    H143324   5.518   4.159   1.459 -0.3287  0.0034 -0.7764
 7303TIP3    H243325   5.380   4.116   1.504 -0.2497  0.4047 -0.1415
 7304TIP3   OH243326   4.427   4.224  11.475 -0.0033  0.5674 -0.2418
 7304TIP3    H143327   4.334   4.205  11.483  0.5456 -1.9233  0.5537
 7304TIP3    H243328   4.447   4.205  11.383 -0.0062 -0.1792 -0.0893
 7305TIP3   OH243329   4.159   0.547   3.409  0.4172 -0.5577 -0.2789
 7305TIP3    H143330   4.216   0.611   3.366  0.1035  0.9107  1.4271
 7305TIP3    H243331   4.193   0.462   3.381  2.0692  0.3270 -1.0410
 7306TIP3   OH243332   2.971   4.284   4.896  0.1146  0.1981 -0.1005
 7306TIP3    H143333   2.969   4.223   4.823 -0.3390  0.5583 -0.3963
 7306TIP3    H243334   2.880   4.313   4.905  0.4858  1.5923 -0.6225
 7307TIP3   OH243335   3.766   3.310  11.252  0.1189 -0.5167  0.5891
 7307TIP3    H143336   3.802   3.251  11.186 -0.9059  0.2812 -0.6927
 7307TIP3    H243337   3.671   3.297  11.246 -0.0083  0.0150  1.4805
 7308TIP3   OH243338   6.658   2.510  12.183  0.1029 -0.7706  0.5513
 7308TIP3    H143339   6.729   2.452  12.155 -0.1104 -1.5134  1.5548
 7308TIP3    H243340   6.597   2.454  12.230 -0.4071  0.1532  1.0169
 7309TIP3   OH243341   6.396   6.025  14.007 -0.1051  0.0379 -0.1098
 7309TIP3    H143342   6.315   6.071  13.983 -0.5022  0.0218  1.1351
 7309TIP3    H243343   6.448   6.091  14.054  1.5211  0.6488 -2.6701
 7310TIP3   OH243344   2.345   6.746  15.082 -0.4658 -0.4230  0.3233
 7310TIP3    H143345   2.336   6.840  15.066  0.4063 -0.5237 -0.8388
 7310TIP3    H243346   2.358   6.708  14.995 -0.3544 -1.5716  0.8249
 7311TIP3   OH243347   1.514   3.400  15.196 -0.0025  0.2657 -0.1009
 7311TIP3    H143348   1.499   3.322  15.249  0.0638 -0.6135 -1.3625
 7311TIP3    H243349   1.446   3.461  15.223 -0.6760 -0.6113  0.1798
 7312TIP3   OH243350   4.390   6.710   4.600  0.0411  0.5062 -0.4818
 7312TIP3    H143351   4.367   6.743   4.513  0.2383 -2.0013 -1.5250
 7312TIP3    H243352   4.433   6.784   4.643 -0.3588  1.8896 -2.3865
 7313TIP3   OH243353   0.774   4.537   1.973  0.0121 -0.8117 -0.4324
 7313TIP3    H143354   0.781   4.446   1.942 -0.6878 -1.3355  0.8971
 7313TIP3    H243355   0.731   4.583   1.901  1.0918 -1.3505 -1.4521
 7314TIP3   OH243356   2.311   1.300   1.801 -0.4299 -0.5672  0.6479
 7314TIP3    H143357   2.373   1.354   1.850  0.4297 -1.7553  0.9120
 7314TIP3    H243358   2.332   1.316   1.709 -2.3423  2.0113  0.6029
 7315TIP3   OH243359   0.926   4.414  16.773  0.6866 -0.4012  0.0894
 7315TIP3    H143360   0.934   4.397  16.867 -0.0567  0.2085  0.2639
 7315TIP3    H243361   0.948   4.331  16.732 -1.5598 -1.4302  0.8885
 7316TIP3   OH243362   4.981   4.928   6.063  0.3086 -0.6109 -0.2525
 7316TIP3    H143363   5.039   4.919   6.139  0.2604 -0.7929 -0.2373
 7316TIP3    H243364   4.922   5.000   6.086  0.9419  0.0013 -0.5298
 7317TIP3   OH243365   0.908   5.166  14.552  0.8223 -0.2098  0.5256
 7317TIP3    H143366   0.987   5.113  14.566  0.1090 -1.2836  0.5434
 7317TIP3    H243367   0.888   5.202  14.638 -0.8094 -2.9292  1.3447
 7318TIP3   OH243368   4.503   4.607   4.149 -0.3788 -0.5090  0.1984
 7318TIP3    H143369   4.492   4.656   4.230 -1.6578 -1.6322  0.7239
 7318TIP3    H243370   4.525   4.518   4.178  3.9126  0.1577 -0.7564
 7319TIP3   OH243371   6.020   0.548   5.836  0.3507 -0.0845 -0.2985
 7319TIP3    H143372   5.955   0.608   5.873  0.4155 -0.4841  0.4663
 7319TIP3    H243373   6.025   0.573   5.744 -1.5381 -0.6405 -0.5733
 7320TIP3   OH243374   1.699   1.782   0.257  0.0278  0.0683  0.6303
 7320TIP3    H143375   1.681   1.689   0.269 -0.5474  0.0541 -0.2502
 7320TIP3    H243376   1.681   1.798   0.164 -1.3203  1.3637  1.0789
 7321TIP3   OH243377   3.639   2.915   1.745  0.3104 -0.3785 -0.0329
 7321TIP3    H143378   3.571   2.849   1.737  0.3181 -0.3028 -0.8186
 7321TIP3    H243379   3.679   2.919   1.658 -0.9062  1.9693 -0.5219
 7322TIP3   OH243380   0.801   6.486  11.089  0.4492  0.1447  0.5779
 7322TIP3    H143381   0.799   6.523  11.177  1.1621 -1.9954  1.5251
 7322TIP3    H243382   0.894   6.467  11.073  0.3137  0.4448 -0.5997
 7323TIP3   OH243383   2.688   1.588   3.507  0.4306  0.2402 -0.4051
 7323TIP3    H143384   2.741   1.643   3.449 -1.6129  0.7401 -1.8427
 7323TIP3    H243385   2.738   1.586   3.589  2.7975  0.4718 -1.7835
 7324TIP3   OH243386   4.001   1.752   2.534  0.3552  0.3096 -0.3793
 7324TIP3    H143387   3.932   1.709   2.483  2.6506 -3.1937 -0.6947
 7324TIP3    H243388   3.990   1.719   2.623  1.8882 -0.6320 -0.5290
 7325TIP3   OH243389   0.203   0.809  15.983 -0.0805  0.5034 -0.1242
 7325TIP3    H143390   0.249   0.744  16.036 -0.3770  0.3044 -0.1088
 7325TIP3    H243391   0.272   0.851  15.932  0.1912  0.6146  0.3293
 7326TIP3   OH243392   5.196   5.950   4.323  0.4113 -0.0463 -0.2659
 7326TIP3    H143393   5.203   5.973   4.415  0.1494  0.3054 -0.3282
 7326TIP3    H243394   5.286   5.951   4.290  0.3818  1.2726 -0.3462
 7327TIP3   OH243395   0.462   0.468   6.634  0.3557  0.1909  0.0944
 7327TIP3    H143396   0.456   0.564   6.635  1.5684  0.2745  0.3484
 7327TIP3    H243397   0.556   0.450   6.638  0.1218 -1.0131  0.4056
 7328TIP3   OH243398   0.292   6.452  15.542 -0.1000  0.4667  0.5141
 7328TIP3    H143399   0.287   6.357  15.531  0.0074  0.3698  1.3125
 7328TIP3    H243400   0.206   6.484  15.514 -0.6231  0.0037  1.5956
 7329TIP3   OH243401   3.485   0.475  16.780 -0.2606 -0.1137 -0.0580
 7329TIP3    H143402   3.442   0.554  16.812 -0.9546 -0.5242  0.0289
 7329TIP3    H243403   3.569   0.506  16.745  0.4493  0.3843  1.9927
 7330TIP3   OH243404   6.565   1.158   3.366 -0.1301  0.2788  0.0895
 7330TIP3    H143405   6.552   1.188   3.277  0.1453  3.6047  1.1176
 7330TIP3    H243406   6.491   1.194   3.415  0.2379 -0.6753  1.3902
 7331TIP3   OH243407   1.994   2.568  11.816 -0.4382  0.1470  0.2925
 7331TIP3    H143408   1.982   2.638  11.752 -0.5861  0.2020  0.3792
 7331TIP3    H243409   1.989   2.487  11.765 -1.1912  0.1699  0.3237
 7332TIP3   OH243410   3.420   2.304  14.173 -0.0799  0.3208  0.8616
 7332TIP3    H143411   3.456   2.342  14.093 -1.2045  1.1786  0.7477
 7332TIP3    H243412   3.335   2.269  14.146  0.0130 -0.3680  1.4437
 7333TIP3   OH243413   1.261   4.566  16.978 -0.2128  0.1439 -0.3371
 7333TIP3    H143414   1.287   4.538  17.066  0.7783  0.6596 -0.4580
 7333TIP3    H243415   1.310   4.507  16.919  0.7211  1.1396 -0.5675
 7334TIP3   OH243416   0.625   5.213  14.654  0.0813 -0.7497  0.5112
 7334TIP3    H143417   0.648   5.130  14.612 -0.1562 -1.2258  1.3025
 7334TIP3    H243418   0.621   5.276  14.583  2.1286 -1.0048  0.1279
 7335TIP3   OH243419   1.432   2.662   5.117  0.1451  0.3360 -0.2023
 7335TIP3    H143420   1.342   2.686   5.138 -0.2680  0.2818 -1.8689
 7335TIP3    H243421   1.473   2.645   5.202 -1.0917  1.4931  0.6342
 7336TIP3   OH243422   1.045   0.291   0.186  0.1180 -0.3265 -0.3657
 7336TIP3    H143423   1.141   0.292   0.176  0.3175 -0.3839  1.3745
 7336TIP3    H243424   1.020   0.383   0.182  0.4218 -0.1941  0.6789
 7337TIP3   OH243425   1.377   3.027   1.231 -0.4618  0.2815 -0.2909
 7337TIP3    H143426   1.329   2.948   1.206 -1.5632 -0.4290  3.7865
 7337TIP3    H243427   1.468   2.999   1.238 -0.7004 -0.3930  0.1605
 7338TIP3   OH243428   3.091   0.558  11.638 -0.0835  0.1809  0.0606
 7338TIP3    H143429   3.119   0.493  11.573  0.7183  0.4514  0.1267
 7338TIP3    H243430   3.145   0.635  11.620 -0.8606  0.7584  0.1304
 7339TIP3   OH243431   0.386   0.967  16.894 -0.6905  0.1894 -0.0810
 7339TIP3    H143432   0.452   0.970  16.825  2.1987 -0.7469  2.4980
 7339TIP3    H243433   0.360   1.059  16.906  1.8497  0.8943  0.3425
 7340TIP3   OH243434   2.417   2.967   0.016 -0.6111  0.1877  0.3042
 7340TIP3    H143435   2.339   2.968  -0.040  0.9173  1.6360 -1.9144
 7340TIP3    H243436   2.405   3.041   0.076 -1.4102 -0.2332  0.6686
 7341TIP3   OH243437   4.795   2.669   4.667 -0.0480 -0.0744 -0.6693
 7341TIP3    H143438   4.839   2.644   4.748  0.3845  1.0846 -0.5299
 7341TIP3    H243439   4.723   2.607   4.659 -0.3058  0.0023  0.7983
 7342TIP3   OH243440   5.309   1.970   3.321 -0.6173  0.6966 -0.5147
 7342TIP3    H143441   5.318   2.049   3.267 -0.0640  1.1068  0.1729
 7342TIP3    H243442   5.367   1.906   3.281 -1.2942  0.5304 -1.2555
 7343TIP3   OH243443   5.619   2.978  15.636 -0.4222  0.4419  0.4517
 7343TIP3    H143444   5.647   3.014  15.552  0.1059  0.1848  0.5107
 7343TIP3    H243445   5.677   3.019  15.700 -0.1186 -0.1611  0.5703
 7344TIP3   OH243446   5.395   6.068   0.109 -0.1717  0.3171 -0.4654
 7344TIP3    H143447   5.367   5.986   0.149  1.4834 -1.0661 -2.0575
 7344TIP3    H243448   5.317   6.125   0.114 -2.0164 -2.0564 -1.1939
 7345TIP3   OH243449   4.553   3.149  15.627 -0.0864 -0.3814  0.2574
 7345TIP3    H143450   4.563   3.084  15.558  0.0689 -1.5306  1.3413
 7345TIP3    H243451   4.631   3.203  15.622 -0.2454 -0.2367 -0.6901
 7346TIP3   OH243452   3.127   0.225  14.927 -0.1582  0.7515  0.2113
 7346TIP3    H143453   3.083   0.257  14.848 -0.0304  2.7192  0.9139
 7346TIP3    H243454   3.220   0.226  14.906 -0.1093  1.4841  0.4538
 7347TIP3   OH243455   6.420   6.013   2.338 -0.4835 -0.0027  0.2561
 7347TIP3    H143456   6.404   6.108   2.340 -0.4989  0.0017  0.0204
 7347TIP3    H243457   6.503   6.001   2.383 -0.3156  0.1617 -0.0041
 7348TIP3   OH243458   4.731   1.982   4.111 -0.1913 -0.4564 -0.4382
 7348TIP3    H143459   4.771   1.947   4.031 -0.0706 -1.2656 -0.0299
 7348TIP3    H243460   4.639   1.957   4.104 -0.2220 -0.3480 -0.4225
 7349TIP3   OH243461   0.261   5.138   0.856  0.2079  0.1315  0.2009
 7349TIP3    H143462   0.355   5.153   0.849  0.0170  1.2208 -0.1776
 7349TIP3    H243463   0.222   5.206   0.800 -0.7382 -1.1641 -0.7365
 7350TIP3   OH243464   2.644   1.061   1.520  0.3326  0.2636  1.0535
 7350TIP3    H143465   2.627   1.099   1.434  1.2118  1.8903  1.5869
 7350TIP3    H243466   2.592   1.113   1.581  1.2430  0.3926  1.7422
 7351TIP3   OH243467   5.296   4.658  11.787 -0.2835 -0.4470 -0.3105
 7351TIP3    H143468   5.249   4.579  11.761 -0.1457 -0.3688 -0.8135
 7351TIP3    H243469   5.275   4.669  11.880 -1.0427 -0.5627 -0.4627
 7352TIP3   OH243470   0.022   0.852   4.317  0.2212 -0.0042  0.4607
 7352TIP3    H143471  -0.033   0.794   4.370 -1.7429  1.9345  0.6060
 7352TIP3    H243472   0.028   0.808   4.232 -2.1916  0.0879  0.2111
 7353TIP3   OH243473   3.882   0.743  14.520  0.2323  0.0867  0.0775
 7353TIP3    H143474   3.966   0.745  14.474  0.6026 -1.3134  0.6654
 7353TIP3    H243475   3.845   0.658  14.497  0.0459 -0.2786  1.6931
 7354TIP3   OH243476   3.607   6.263   3.786  0.2149  0.1689  0.3857
 7354TIP3    H143477   3.554   6.194   3.825 -0.1412  0.4294  0.3593
 7354TIP3    H243478   3.618   6.328   3.855  0.9261 -0.1202  0.5517
 7355TIP3   OH243479   0.848   0.219  12.824  0.0977 -0.1982  0.1427
 7355TIP3    H143480   0.834   0.180  12.911 -0.5941  1.7457  0.9430
 7355TIP3    H243481   0.777   0.283  12.816  0.9052  0.5083 -1.3413
 7356TIP3   OH243482   3.351   4.555  13.809  0.5115 -0.2547  0.5541
 7356TIP3    H143483   3.407   4.615  13.760 -1.2734 -0.0362 -1.2481
 7356TIP3    H243484   3.400   4.538  13.890  2.3809  1.2804 -0.2150
 7357TIP3   OH243485   2.132   5.871  17.224 -0.0305 -0.0794  0.0908
 7357TIP3    H143486   2.153   5.822  17.144 -0.6143 -1.0751  0.5377
 7357TIP3    H243487   2.170   5.818  17.295 -0.1584  0.4125  0.5305
 7358TIP3   OH243488   5.087   4.333   3.647  0.4486  0.7399  0.3513
 7358TIP3    H143489   5.161   4.329   3.586  0.8342 -1.0141  0.8787
 7358TIP3    H243490   5.014   4.296   3.598  0.5879 -0.0191  0.7077
 7359TIP3   OH243491   0.625   1.619   0.538 -0.3534 -0.1514  0.4907
 7359TIP3    H143492   0.686   1.665   0.480  0.3722  0.3184  1.6107
 7359TIP3    H243493   0.585   1.553   0.482  1.1992 -0.4797 -0.2741
 7360TIP3   OH243494   4.994   1.189  11.443 -0.1468  0.4307  0.3089
 7360TIP3    H143495   4.994   1.219  11.534 -2.1111 -0.1435  0.5201
 7360TIP3    H243496   5.028   1.099  11.448  1.1228  0.9013  0.2832
 7361TIP3   OH243497   1.590   4.153  12.189  0.2106  0.0637 -0.4320
 7361TIP3    H143498   1.613   4.239  12.155  1.3229 -0.5701 -1.3062
 7361TIP3    H243499   1.521   4.121  12.131  0.0365  0.2111 -0.3096
 7362TIP3   OH243500   2.959   4.228   4.306 -0.5810 -0.8511  0.2635
 7362TIP3    H143501   3.041   4.178   4.298 -0.1110  0.0756 -0.8319
 7362TIP3    H243502   2.967   4.272   4.390  1.0988  1.0521 -0.8377
 7363TIP3   OH243503   2.666   6.653  15.196 -0.4216  0.4100 -0.4687
 7363TIP3    H143504   2.635   6.596  15.127  1.3157 -0.4965 -0.5353
 7363TIP3    H243505   2.686   6.595  15.269 -0.2777  1.1124  0.0657
 7364TIP3   OH243506   2.788   3.495  14.199  0.3643  0.7419  0.5844
 7364TIP3    H143507   2.835   3.474  14.279  1.1449 -1.2744 -0.3636
 7364TIP3    H243508   2.853   3.482  14.129 -1.1486 -0.5535 -0.6114
 7365TIP3   OH243509   3.292   5.155   2.814  0.3572 -0.7470 -0.0924
 7365TIP3    H143510   3.373   5.142   2.765  0.6553 -1.3133  0.5340
 7365TIP3    H243511   3.312   5.120   2.901 -0.1748  0.1867  0.4095
 7366TIP3   OH243512   1.254   0.101  12.810  0.2811 -0.0590  0.0739
 7366TIP3    H143513   1.286   0.164  12.745  1.1052 -0.7316 -0.1708
 7366TIP3    H243514   1.290   0.132  12.893  0.4892 -0.0799 -0.0114
 7367TIP3   OH243515   6.466   0.410  14.767 -0.1638 -0.7742  0.3427
 7367TIP3    H143516   6.391   0.364  14.728 -1.2238  0.5713  0.7382
 7367TIP3    H243517   6.438   0.502  14.770  0.9547 -0.4657  1.8124
 7368TIP3   OH243518   0.404   1.298   5.042 -0.8709 -0.1166 -0.2519
 7368TIP3    H143519   0.334   1.314   5.106 -0.6728 -0.4696  0.0519
 7368TIP3    H243520   0.359   1.300   4.957 -1.6394 -2.5648  0.0759
 7369TIP3   OH243521   0.688   1.214   2.791 -0.1664  0.3642 -0.3218
 7369TIP3    H143522   0.694   1.119   2.781 -0.8048  0.2863  0.0411
 7369TIP3    H243523   0.775   1.240   2.824 -0.1305 -0.1478 -0.0074
 7370TIP3   OH243524   6.101   2.699  12.912  0.0259  0.0006 -0.0168
 7370TIP3    H143525   6.012   2.733  12.915 -0.6837 -1.7576 -0.5723
 7370TIP3    H243526   6.140   2.740  12.835 -0.2134  0.9546  0.3619
 7371TIP3   OH243527   0.503   6.555  12.991 -0.7923  0.4232  0.3100
 7371TIP3    H143528   0.495   6.470  13.035  0.6849  0.0965 -0.0059
 7371TIP3    H243529   0.433   6.608  13.027 -2.3729 -1.2503 -0.2098
 7372TIP3   OH243530   6.402   5.738   4.748  0.4635 -0.0851 -0.3035
 7372TIP3    H143531   6.323   5.721   4.801  1.7846 -1.6518  1.2517
 7372TIP3    H243532   6.369   5.780   4.669 -1.8350  0.2177  0.7539
 7373TIP3   OH243533   1.791   0.960   2.442  0.4046  0.0283  0.4228
 7373TIP3    H143534   1.788   1.033   2.381  2.1354 -0.0153  0.2554
 7373TIP3    H243535   1.703   0.922   2.440  0.6563 -0.4941 -2.6996
 7374TIP3   OH243536   6.272   5.078  11.157  0.0633 -0.0202 -0.0987
 7374TIP3    H143537   6.272   5.013  11.087  0.1066 -0.1224 -0.0015
 7374TIP3    H243538   6.264   5.162  11.111 -0.0091 -0.0937 -0.2206
 7375TIP3   OH243539   1.292   2.167  13.999 -0.0783 -0.1842 -0.6837
 7375TIP3    H143540   1.202   2.187  14.024 -0.1070 -2.6510  1.4632
 7375TIP3    H243541   1.322   2.244  13.951 -2.2819  1.9843  1.3023
 7376TIP3   OH243542   0.484   1.250  11.702  0.3846  0.1493 -0.8677
 7376TIP3    H143543   0.480   1.155  11.715  2.5160  0.1587  0.1592
 7376TIP3    H243544   0.489   1.286  11.791  1.8698  1.0752 -1.3115
 7377TIP3   OH243545   5.280   2.755   5.522  0.6787 -0.1093  0.1404
 7377TIP3    H143546   5.330   2.832   5.550  0.1225  0.5068 -0.5616
 7377TIP3    H243547   5.246   2.717   5.603  0.2358  0.8744  0.4167
 7378TIP3   OH243548   4.221   3.717  11.571 -0.2072  0.5284 -0.1061
 7378TIP3    H143549   4.248   3.658  11.501 -1.4519 -2.3269  1.7315
 7378TIP3    H243550   4.302   3.754  11.605  0.5615  0.0747 -1.4144
 7379TIP3   OH243551   3.074   3.313  16.790 -0.3910 -0.4465  0.3084
 7379TIP3    H143552   3.089   3.379  16.723  2.3221 -1.1846  0.1217
 7379TIP3    H243553   3.113   3.233  16.755 -0.6552 -1.3241  1.9261
 7380TIP3   OH243554   0.524   5.220  14.192 -0.6831  0.5590  0.0122
 7380TIP3    H143555   0.497   5.188  14.106  0.5189  1.0306 -0.5563
 7380TIP3    H243556   0.449   5.271  14.223 -2.0714 -1.5927  0.3160
 7381TIP3   OH243557   5.730   1.575   3.150  0.1275  0.2004  0.1142
 7381TIP3    H143558   5.672   1.507   3.116 -0.2506  0.1999  0.7496
 7381TIP3    H243559   5.689   1.657   3.125 -0.4597  0.2063  1.0564
 7382TIP3   OH243560   5.784   6.270   3.597 -0.1878  0.8295  0.0415
 7382TIP3    H143561   5.741   6.244   3.678  0.4371  0.0480  0.1258
 7382TIP3    H243562   5.714   6.272   3.532 -0.2106 -1.3566 -0.0357
 7383TIP3   OH243563   6.567   0.456   0.109 -0.1729 -0.3309  0.4518
 7383TIP3    H143564   6.522   0.373   0.092  0.2688 -0.6095  0.6138
 7383TIP3    H243565   6.540   0.480   0.197 -0.8506  0.0579  0.1396
 7384TIP3   OH243566   4.975   4.849   0.014 -0.0430  0.1409  0.5100
 7384TIP3    H143567   4.915   4.920  -0.011  0.2528  0.8369  1.7794
 7384TIP3    H243568   5.057   4.893   0.036 -0.6855 -0.2864  4.0731
 7385TIP3   OH243569   3.108   1.182   4.876  0.0162 -0.4160 -0.2008
 7385TIP3    H143570   3.028   1.146   4.913  0.6527 -0.7093  0.9309
 7385TIP3    H243571   3.172   1.177   4.948  0.5301  1.5378 -0.4944
 7386TIP3   OH243572   6.274   4.201   5.516  0.3372  0.2732 -0.1735
 7386TIP3    H143573   6.361   4.162   5.504  0.0618 -1.0989  1.9864
 7386TIP3    H243574   6.221   4.130   5.552 -0.3648  2.4268  3.1931
 7387TIP3   OH243575   6.638   4.938   3.841 -0.7761 -0.6548 -0.4564
 7387TIP3    H143576   6.594   4.907   3.920  0.8009 -0.5648  0.4670
 7387TIP3    H243577   6.568   4.946   3.777 -2.7517  2.8849  1.9830
 7388TIP3   OH243578   4.624   2.602  13.469  0.5430 -1.3580 -0.1797
 7388TIP3    H143579   4.570   2.668  13.513  1.7533 -0.8954  0.6200
 7388TIP3    H243580   4.696   2.652  13.431  1.2217 -2.1666  0.0419
 7389TIP3   OH243581   1.286   1.745   5.320 -0.2697  0.5562  0.1332
 7389TIP3    H143582   1.323   1.822   5.277 -1.4713  0.5399 -0.9506
 7389TIP3    H243583   1.280   1.769   5.413  1.4840  0.9232  0.1653
 7390TIP3   OH243584   3.892   3.891   0.901  0.1545 -0.1908  0.5388
 7390TIP3    H143585   3.956   3.904   0.971 -0.3331 -0.5013  1.0465
 7390TIP3    H243586   3.807   3.892   0.946 -0.0492 -2.5558  0.2595
 7391TIP3   OH243587   5.186   6.023  11.396 -0.1392  0.4794 -0.3886
 7391TIP3    H143588   5.161   5.982  11.478  0.0626  1.1494  0.0113
 7391TIP3    H243589   5.110   6.077  11.372  1.3752  3.5661  1.5100
 7392TIP3   OH243590   0.543   6.690   3.814  0.1146  0.2559 -0.5732
 7392TIP3    H143591   0.603   6.645   3.873  0.9326 -1.2496 -2.4833
 7392TIP3    H243592   0.502   6.758   3.867  0.6121 -1.2367  1.7797
 7393TIP3   OH243593   1.674   5.652  10.965 -0.4768 -0.3656 -0.0098
 7393TIP3    H143594   1.583   5.623  10.956  0.3414 -3.2230  0.1716
 7393TIP3    H243595   1.706   5.603  11.041  1.3305  0.2769 -0.3517
 7394TIP3   OH243596   1.495   1.005  14.623 -0.3722  0.5065  0.4222
 7394TIP3    H143597   1.443   0.947  14.679 -0.3285 -0.0714 -0.1378
 7394TIP3    H243598   1.585   0.993  14.653 -0.4550  0.9054  0.8521
 7395TIP3   OH243599   2.589   1.109  11.617 -0.3814  0.2476  1.1112
 7395TIP3    H143600   2.585   1.066  11.703 -0.5739  1.0682  1.5144
 7395TIP3    H243601   2.544   1.192  11.629 -0.8265  0.1624  0.0801
 7396TIP3   OH243602   3.538   4.860  12.916 -0.4461  0.1776 -0.7083
 7396TIP3    H143603   3.452   4.844  12.954 -0.0786 -1.9702 -0.7452
 7396TIP3    H243604   3.598   4.855  12.990 -0.1142 -0.4741 -1.0233
 7397TIP3   OH243605   5.261   6.123  13.548  0.8264  0.2618 -0.1548
 7397TIP3    H143606   5.289   6.060  13.614 -0.4264  0.0835  0.2164
 7397TIP3    H243607   5.323   6.112  13.476  1.9364  0.1518  0.8077
 7398TIP3   OH243608   3.433   0.383  17.107  0.2046  0.0687  0.0621
 7398TIP3    H143609   3.473   0.310  17.059  0.0041  1.2256 -1.9257
 7398TIP3    H243610   3.342   0.385  17.078  0.5130  1.8614 -0.8571
 7399TIP3   OH243611   4.182   2.300   0.119 -0.1815  0.0771  0.4756
 7399TIP3    H143612   4.114   2.340   0.065  0.6858  0.5594 -0.2597
 7399TIP3    H243613   4.136   2.272   0.198 -1.6811 -1.5153 -0.8913
 7400TIP3   OH243614   1.944   2.473  12.456  0.2661 -0.0060 -0.0607
 7400TIP3    H143615   1.857   2.509  12.468 -0.2132 -1.1133 -0.1408
 7400TIP3    H243616   1.946   2.396  12.512  0.7751 -0.6796 -0.9834
 7401TIP3   OH243617   3.821   4.718   4.306 -0.2090  0.0212 -0.2119
 7401TIP3    H143618   3.750   4.723   4.242 -0.5592  1.3552  0.2549
 7401TIP3    H243619   3.780   4.679   4.383 -0.3568  0.4710 -0.0596
 7402TIP3   OH243620   0.772   4.539   4.948  0.2586  0.7011 -0.5689
 7402TIP3    H143621   0.726   4.465   4.985 -0.9378  1.5886 -0.2617
 7402TIP3    H243622   0.716   4.614   4.965  1.5431  1.7151 -0.6934
 7403TIP3   OH243623   3.332   1.533  12.149  0.1247  0.3722 -0.0188
 7403TIP3    H143624   3.389   1.547  12.225  2.4659 -1.3522 -1.4034
 7403TIP3    H243625   3.301   1.444  12.158 -2.3077  1.2579  0.6411
 7404TIP3   OH243626   0.221   0.977  15.164  0.2014  0.8879  0.1961
 7404TIP3    H143627   0.188   1.055  15.209 -1.2357 -0.1132  0.9068
 7404TIP3    H243628   0.143   0.929  15.138  1.0745 -0.2521 -0.3799
 7405TIP3   OH243629   2.631   3.030   2.427 -0.2341  0.3018 -0.3190
 7405TIP3    H143630   2.541   3.038   2.458 -1.0232 -0.7165 -2.2837
 7405TIP3    H243631   2.649   2.936   2.430 -0.0440  0.2709 -2.1451
 7406TIP3   OH243632   1.165   4.102  15.719 -0.6050 -0.3460  0.2898
 7406TIP3    H143633   1.229   4.136  15.655 -0.5078 -0.6194  0.2411
 7406TIP3    H243634   1.167   4.165  15.791  0.1944 -0.6963  0.5792
 7407TIP3   OH243635   1.509   4.941   2.404  0.2954  0.4384  0.0540
 7407TIP3    H143636   1.570   4.980   2.341  1.0175 -1.7387 -0.6480
 7407TIP3    H243637   1.563   4.881   2.456 -0.9182 -0.2431  0.5590
 7408TIP3   OH243638   3.020   2.669  14.173  0.2227  0.2188 -0.0907
 7408TIP3    H143639   2.943   2.651  14.228 -0.2243 -1.2521 -1.1854
 7408TIP3    H243640   3.010   2.760  14.146 -1.5620 -0.2048 -0.8844
 7409TIP3   OH243641   5.941   4.811   1.449  0.4562  0.0333  0.4888
 7409TIP3    H143642   5.891   4.824   1.368  0.3740 -2.4688  0.1092
 7409TIP3    H243643   5.884   4.756   1.503  2.6123 -2.5408  0.2150
 7410TIP3   OH243644   3.120   5.634   2.669  0.5354 -0.3658  0.0957
 7410TIP3    H143645   3.047   5.678   2.625  0.8348  2.1977  1.9742
 7410TIP3    H243646   3.078   5.572   2.728 -0.0392 -0.5890 -0.5488
 7411TIP3   OH243647   1.714   0.021  17.215 -0.3572  0.0757  0.0741
 7411TIP3    H143648   1.660   0.100  17.223 -0.3372  0.1363 -0.3924
 7411TIP3    H243649   1.689  -0.016  17.130  2.5283  1.7575 -1.5753
 7412TIP3   OH243650   5.960   6.490  16.075 -0.5113  0.5324 -0.4659
 7412TIP3    H143651   5.870   6.476  16.105 -0.0616  1.8175  1.5634
 7412TIP3    H243652   5.979   6.582  16.097  2.4157 -0.6184  2.2382
 7413TIP3   OH243653   3.746   5.308  17.136 -0.7620 -0.4001 -0.4444
 7413TIP3    H143654   3.656   5.320  17.104 -0.6333 -1.1796 -1.0941
 7413TIP3    H243655   3.745   5.222  17.178 -0.7376  0.2971  0.9892
 7414TIP3   OH243656   3.286   5.710  16.443  0.1778  0.5447 -0.0969
 7414TIP3    H143657   3.292   5.723  16.348  0.3780  1.8317  0.0835
 7414TIP3    H243658   3.370   5.670  16.466 -0.6008 -1.4947 -0.7188
 7415TIP3   OH243659   4.599   0.262   5.908 -0.2319  0.2682 -0.5604
 7415TIP3    H143660   4.607   0.269   6.003 -0.0259 -1.7536 -0.4223
 7415TIP3    H243661   4.529   0.323   5.885  0.1019  1.1915  0.8163
 7416TIP3   OH243662   0.425   4.373  13.741 -0.0039 -0.5691  0.5791
 7416TIP3    H143663   0.445   4.457  13.782 -1.7766  0.8215 -1.3116
 7416TIP3    H243664   0.372   4.327  13.806 -0.7000  0.5996  0.8679
 7417TIP3   OH243665   6.452   2.206  10.793  0.5811  0.1944 -0.1852
 7417TIP3    H143666   6.401   2.223  10.872  1.2502  0.2350  0.2464
 7417TIP3    H243667   6.387   2.199  10.723  0.0599  1.3354  0.1677
 7418TIP3   OH243668   3.326   0.368  11.232  0.2561 -0.0740  0.3441
 7418TIP3    H143669   3.298   0.328  11.314  0.7137 -0.3467  0.3731
 7418TIP3    H243670   3.393   0.431  11.258 -0.4492  0.6939  0.2938
 7419TIP3   OH243671   3.827   4.852   3.263  0.0971  0.1071  0.4281
 7419TIP3    H143672   3.869   4.824   3.344  1.6024  1.5661  0.1814
 7419TIP3    H243673   3.834   4.775   3.205  2.7758  0.3844  0.2839
 7420TIP3   OH243674   6.635   0.037  16.016 -0.2037  0.0644  0.4120
 7420TIP3    H143675   6.706   0.094  15.986 -0.4227  0.3748  0.4782
 7420TIP3    H243676   6.646  -0.044  15.966 -0.0588  0.2689  0.1074
 7421TIP3   OH243677   6.541   4.443   3.936 -0.6891 -0.3704  0.2079
 7421TIP3    H143678   6.526   4.357   3.977 -0.4534 -0.9070 -0.8285
 7421TIP3    H243679   6.455   4.471   3.906 -0.6494 -0.5738 -0.0971
 7422TIP3   OH243680   3.592   0.032  12.339 -0.0020  0.1918 -0.7521
 7422TIP3    H143681   3.511  -0.014  12.359  0.3105 -0.6591 -1.4184
 7422TIP3    H243682   3.635   0.041  12.424  0.6147 -2.0783 -0.7856
 7423TIP3   OH243683   4.737   5.074   5.054  0.4751  0.1971  0.0362
 7423TIP3    H143684   4.694   5.051   5.136 -0.7512 -0.3860 -0.7571
 7423TIP3    H243685   4.830   5.081   5.076  0.0960  0.5100  1.5674
 7424TIP3   OH243686   2.655   2.476   3.231 -0.0842  0.1000 -0.8797
 7424TIP3    H143687   2.663   2.385   3.203  1.2227  0.3904 -1.4690
 7424TIP3    H243688   2.718   2.524   3.177  2.1746  0.7583  2.1817
 7425TIP3   OH243689   4.422   0.083   4.051 -1.0008  0.4770 -0.1352
 7425TIP3    H143690   4.470   0.102   3.970 -0.0824  0.3627  0.3795
 7425TIP3    H243691   4.332   0.070   4.022 -0.9467  1.8085 -0.9761
 7426TIP3   OH243692   3.893   3.740  14.728 -0.2504  0.3027 -0.9217
 7426TIP3    H143693   3.975   3.719  14.774 -0.3028  0.9977 -0.4978
 7426TIP3    H243694   3.873   3.829  14.755 -2.5728 -0.7697  1.1243
 7427TIP3   OH243695   4.339   4.668  13.345  0.0437 -0.0497 -0.2816
 7427TIP3    H143696   4.270   4.734  13.356  0.2909  0.2871 -0.6897
 7427TIP3    H243697   4.409   4.715  13.300  0.0930 -0.6780 -0.8735
 7428TIP3   OH243698   0.128   3.058   4.514 -0.9712  0.0879  0.0402
 7428TIP3    H143699   0.051   3.003   4.530  0.2625 -1.2159  1.5720
 7428TIP3    H243700   0.112   3.096   4.428 -1.1522 -3.9100 -1.8070
 7429TIP3   OH243701   4.060   5.313   6.166  0.1552 -0.0126  0.0515
 7429TIP3    H143702   4.120   5.239   6.169 -0.4264 -0.4516  2.3262
 7429TIP3    H243703   3.987   5.286   6.223 -0.3951  2.0228  0.3402
 7430TIP3   OH243704   2.315   0.571   2.750 -0.2382  0.8605 -0.3892
 7430TIP3    H143705   2.375   0.516   2.699 -0.6931 -0.4167  0.4467
 7430TIP3    H243706   2.332   0.548   2.841 -2.6596 -0.2317 -0.1693
 7431TIP3   OH243707   4.606   3.003   2.974 -0.0173 -0.6836 -0.5604
 7431TIP3    H143708   4.638   2.937   3.035 -1.9084 -1.7577 -0.7021
 7431TIP3    H243709   4.653   2.986   2.892  1.4981 -0.1118  0.1729
 7432TIP3   OH243710   1.111   5.883   1.879  0.1095  0.3991  0.0653
 7432TIP3    H143711   1.116   5.938   1.957 -1.2179  0.4654  0.1146
 7432TIP3    H243712   1.170   5.925   1.816  1.8508 -0.1461  1.3082
 7433TIP3   OH243713   2.604   1.876   2.344  0.2608 -0.4190 -0.1198
 7433TIP3    H143714   2.542   1.831   2.287 -0.7213  0.6896  0.0564
 7433TIP3    H243715   2.681   1.891   2.289 -0.3574 -0.1015 -0.9065
 7434TIP3   OH243716   3.174   4.996   0.146  0.2169  0.4149  0.1465
 7434TIP3    H143717   3.150   5.017   0.057 -0.5405  1.5948  0.6226
 7434TIP3    H243718   3.264   5.028   0.155  1.2360 -1.9565 -0.9289
 7435TIP3   OH243719   4.660   6.345   3.220  0.0483 -0.3948  0.3985
 7435TIP3    H143720   4.755   6.348   3.212  0.1562 -0.8301  1.3993
 7435TIP3    H243721   4.631   6.299   3.142  0.7498 -1.2194  0.6102
 7436TIP3   OH243722   3.435   5.307  11.717 -0.0357 -0.6681  0.2804
 7436TIP3    H143723   3.373   5.263  11.775  1.5569 -2.1469  0.9023
 7436TIP3    H243724   3.437   5.254  11.638 -0.4426  0.0460 -0.2201
 7437TIP3   OH243725   1.774   4.399  13.320  0.3682  0.4153  0.1548
 7437TIP3    H143726   1.867   4.378  13.322  0.3116  0.1458  0.0376
 7437TIP3    H243727   1.759   4.452  13.398  0.2733 -1.0245  1.1449
 7438TIP3   OH243728   2.832   4.114   2.519 -0.4044 -0.3731  0.2322
 7438TIP3    H143729   2.899   4.164   2.471 -0.2824 -0.5136  0.2547
 7438TIP3    H243730   2.810   4.169   2.594  2.0934 -1.7464  2.0821
 7439TIP3   OH243731   1.126   0.380  16.860  0.3616 -0.3320  0.0628
 7439TIP3    H143732   1.135   0.286  16.876 -0.9033 -0.6357 -0.9402
 7439TIP3    H243733   1.165   0.421  16.937  0.8110 -1.6750  0.5688
 7440TIP3   OH243734   2.621   5.397  16.389 -0.1450 -0.0056 -0.2468
 7440TIP3    H143735   2.656   5.322  16.437 -1.7807  0.5357  1.8678
 7440TIP3    H243736   2.534   5.412  16.427 -0.8132  1.5130 -2.2388
 7441TIP3   OH243737   2.619   0.412  14.920 -0.2850 -0.3852  0.5171
 7441TIP3    H143738   2.645   0.461  14.843 -2.9156 -0.0222 -0.1857
 7441TIP3    H243739   2.691   0.351  14.935 -0.0732 -0.9773 -2.6575
 7442TIP3   OH243740   4.067   0.224  15.022 -0.0085 -0.0558 -0.4594
 7442TIP3    H143741   4.086   0.316  15.008  0.3004 -0.0976 -0.3298
 7442TIP3    H243742   4.073   0.213  15.117 -2.4052  0.3050 -0.2424
 7443TIP3   OH243743   2.909   6.047  17.135  0.5363 -0.0035  0.0539
 7443TIP3    H143744   2.867   6.042  17.049 -1.3321 -0.0943  0.9461
 7443TIP3    H243745   2.969   6.122  17.128 -0.2002  0.4986 -1.0746
 7444TIP3   OH243746   1.521   5.389   4.268  0.1474 -0.2630 -0.3848
 7444TIP3    H143747   1.576   5.311   4.264 -0.7467 -0.8603 -1.0587
 7444TIP3    H243748   1.457   5.377   4.199 -1.1250  0.2105  0.6883
 7445TIP3   OH243749   5.205   4.262  11.931  0.0907 -0.0102  0.3946
 7445TIP3    H143750   5.292   4.223  11.945  0.1401 -0.0271  0.0270
 7445TIP3    H243751   5.204   4.287  11.839 -0.3452 -0.1390  0.3630
 7446TIP3   OH243752   0.912   3.404   3.177  0.5848 -0.0036 -0.3151
 7446TIP3    H143753   0.967   3.481   3.196 -1.4574  1.7671 -1.3755
 7446TIP3    H243754   0.853   3.434   3.108 -0.5664 -2.4034 -0.3927
 7447TIP3   OH243755   0.820   0.231  14.308  0.1176 -0.3323 -0.4930
 7447TIP3    H143756   0.815   0.301  14.242  0.8130  1.0761  0.9312
 7447TIP3    H243757   0.738   0.182  14.296 -1.2996  1.8839 -0.2528
 7448TIP3   OH243758   2.886   6.023   2.937 -0.2969  0.2075 -0.5929
 7448TIP3    H143759   2.793   6.045   2.941 -0.2549  0.2762  0.0684
 7448TIP3    H243760   2.911   6.039   2.846 -0.8774  0.4036 -0.7185
 7449TIP3   OH243761   4.589   4.394  14.726 -0.3726  0.0128 -0.3662
 7449TIP3    H143762   4.506   4.366  14.763 -1.1603 -1.2580 -3.0103
 7449TIP3    H243763   4.621   4.318  14.677  0.4876  1.6875 -2.4975
 7450TIP3   OH243764   5.121   2.542   4.237  0.2602 -0.2562 -0.3040
 7450TIP3    H143765   5.064   2.575   4.307 -0.4979 -0.5652 -0.7666
 7450TIP3    H243766   5.209   2.561   4.267 -0.0656 -0.3850  0.7388
 7451TIP3   OH243767   5.512   1.349  16.795  0.3362 -0.0830  0.5030
 7451TIP3    H143768   5.427   1.329  16.756  0.2492  0.3244  0.4872
 7451TIP3    H243769   5.551   1.263  16.812 -0.4847 -0.2986  1.3929
 7452TIP3   OH243770   4.359   3.138  13.639 -0.5257 -0.0976 -0.2567
 7452TIP3    H143771   4.432   3.114  13.697  0.6840  0.0674 -1.6766
 7452TIP3    H243772   4.298   3.065  13.646 -0.0747 -0.3868  0.7177
 7453TIP3   OH243773   5.907   4.113   1.150  0.9137  0.4695  0.2410
 7453TIP3    H143774   5.970   4.068   1.206  1.0524  1.0569  0.5512
 7453TIP3    H243775   5.912   4.205   1.176 -1.8019  0.1952  1.9525
 7454TIP3   OH243776   2.808   2.008  14.816 -0.1628 -0.1978 -0.1081
 7454TIP3    H143777   2.819   2.034  14.908 -2.3807 -0.9504  0.4130
 7454TIP3    H243778   2.886   1.957  14.796  1.6203  2.2141  0.5279
 7455TIP3   OH243779   5.011   4.300   0.509 -0.2836 -0.3018  0.0698
 7455TIP3    H143780   5.061   4.230   0.551  0.2599 -1.3071 -2.2258
 7455TIP3    H243781   4.928   4.302   0.557  0.2525 -1.5177  1.0920
 7456TIP3   OH243782   1.133   0.270   3.828 -0.2329  0.5345  0.0405
 7456TIP3    H143783   1.085   0.325   3.889 -0.7925  0.5307 -0.3889
 7456TIP3    H243784   1.221   0.261   3.867 -0.7662  0.0244  1.1457
 7457TIP3   OH243785   5.384   6.305   0.484  0.1964  0.3241  0.1924
 7457TIP3    H143786   5.316   6.242   0.458  1.6979 -0.9467 -0.7700
 7457TIP3    H243787   5.393   6.363   0.409  0.8416 -0.1060 -0.0680
 7458TIP3   OH243788   3.559   5.334  16.505  0.1837  0.1689  0.2229
 7458TIP3    H143789   3.512   5.339  16.422 -1.1466  0.7509  0.9842
 7458TIP3    H243790   3.543   5.245  16.536  1.2149 -0.2553 -0.4324
 7459TIP3   OH243791   6.026   0.321  15.496  0.0514 -0.0079  0.5657
 7459TIP3    H143792   6.106   0.292  15.541  1.7928  0.6470 -2.0051
 7459TIP3    H243793   6.009   0.253  15.431  0.3299  1.3989 -1.0024
 7460TIP3   OH243794   3.126   3.797  16.718  0.0367  0.3296 -0.2982
 7460TIP3    H143795   3.119   3.799  16.623  2.1639  0.8668 -0.4840
 7460TIP3    H243796   3.093   3.711  16.743 -0.6431  0.2255 -1.5040
 7461TIP3   OH243797   1.296   0.741  11.794 -0.0508  0.4710 -0.1544
 7461TIP3    H143798   1.333   0.663  11.753 -0.1309 -0.3602  1.2951
 7461TIP3    H243799   1.368   0.777  11.845 -0.5866  0.1450  0.8480
 7462TIP3   OH243800   6.413   6.064   3.241 -0.1884  0.3972 -0.0643
 7462TIP3    H143801   6.359   6.057   3.320  0.5818  0.0830  0.4275
 7462TIP3    H243802   6.465   5.984   3.239  0.0883  0.5883 -0.6793
 7463TIP3   OH243803   6.702   2.319   2.921 -0.6532 -0.2397  0.2840
 7463TIP3    H143804   6.776   2.315   2.982 -0.3845  2.4296  0.2016
 7463TIP3    H243805   6.625   2.331   2.977 -0.7037 -0.4253  0.2517
 7464TIP3   OH243806   2.995   3.053   0.180  0.2992 -0.1609 -0.3287
 7464TIP3    H143807   3.087   3.074   0.162  0.4217 -0.7517 -0.4086
 7464TIP3    H243808   2.962   3.129   0.227  1.4096 -0.8174  1.6120
 7465TIP3   OH243809   1.618   3.326   0.968  0.2928 -0.0805  0.6861
 7465TIP3    H143810   1.553   3.257   0.983 -1.0856  0.6190 -1.7226
 7465TIP3    H243811   1.702   3.281   0.967 -0.6339 -1.8800 -1.4502
 7466TIP3   OH243812   2.246   3.167  16.461  0.1092 -0.0502 -0.4453
 7466TIP3    H143813   2.235   3.151  16.555 -0.7111  1.3552 -0.2905
 7466TIP3    H243814   2.338   3.192  16.451  0.1875 -0.1638 -0.0198
 7467TIP3   OH243815   2.472   4.482   1.999 -0.6387  0.2207  0.4238
 7467TIP3    H143816   2.509   4.441   2.078 -2.0206 -1.2680  0.3087
 7467TIP3    H243817   2.549   4.507   1.947  0.2497 -2.5579  0.3205
 7468TIP3   OH243818   2.049   4.523   5.362 -0.3159  0.2099 -0.6130
 7468TIP3    H143819   2.040   4.556   5.273 -0.3319  1.7000 -0.0885
 7468TIP3    H243820   2.081   4.599   5.412  0.1379 -0.7292  0.5478
 7469TIP3   OH243821   5.639   4.347   5.062  0.3180  0.0783 -0.1739
 7469TIP3    H143822   5.558   4.367   5.015 -0.0887 -0.2252  0.3926
 7469TIP3    H243823   5.651   4.253   5.048 -0.2869 -0.1889  1.0782
 7470TIP3   OH243824   4.825   1.734  15.605 -0.3919  0.2963 -0.7022
 7470TIP3    H143825   4.891   1.670  15.577 -0.9129 -0.2159 -0.7707
 7470TIP3    H243826   4.866   1.819  15.589 -0.7791  0.0238 -3.2869
 7471TIP3   OH243827   2.946   2.535   1.475  0.1561  0.0543  0.4553
 7471TIP3    H143828   2.920   2.450   1.440  0.3855  0.1631  0.0028
 7471TIP3    H243829   2.947   2.524   1.570 -1.0355 -0.0894  0.4479
 7472TIP3   OH243830   6.328   0.665  13.486  0.0875 -0.3252  0.1018
 7472TIP3    H143831   6.360   0.608  13.556  1.0044 -0.5812 -0.5199
 7472TIP3    H243832   6.278   0.733  13.532 -2.8400 -2.7429  0.7246
 7473TIP3   OH243833   4.112   4.283  11.727  0.3761 -0.3193  0.0514
 7473TIP3    H143834   4.114   4.216  11.658 -0.4900 -0.5454  0.2343
 7473TIP3    H243835   4.038   4.339  11.702 -0.6731 -1.0704  1.4064
 7474TIP3   OH243836   0.392   1.900   1.512 -0.0743 -0.5391  0.4313
 7474TIP3    H143837   0.487   1.906   1.528 -0.0833  0.0443  0.2747
 7474TIP3    H243838   0.379   1.811   1.480  0.8164  0.1963 -2.1036
 7475TIP3   OH243839   2.772   0.994  17.135 -0.4478  0.2958 -0.1367
 7475TIP3    H143840   2.830   1.068  17.114  0.1962 -0.5519 -1.3713
 7475TIP3    H243841   2.826   0.917  17.121 -1.0844 -0.4213  1.2708
 7476TIP3   OH243842   0.098   0.673  13.819  0.1965 -0.2298  0.4329
 7476TIP3    H143843   0.120   0.582  13.841  2.0523 -0.1557 -0.9574
 7476TIP3    H243844   0.026   0.695  13.878  0.7632 -2.0861  1.8916
 7477TIP3   OH243845   0.166   1.081   4.625 -0.4039  0.5006  0.3427
 7477TIP3    H143846   0.083   1.052   4.664 -0.6778  1.8752  0.8202
 7477TIP3    H243847   0.203   1.002   4.586 -0.9836 -0.5582  1.8668
 7478TIP3   OH243848   0.385   6.479  14.434 -0.1707 -0.6833  0.4996
 7478TIP3    H143849   0.457   6.541  14.447  0.5620 -0.8934 -2.1137
 7478TIP3    H243850   0.312   6.516  14.484  0.6300  1.6575  0.0073
 7479TIP3   OH243851   0.859   5.302  13.094 -0.0635  0.3092 -0.2364
 7479TIP3    H143852   0.920   5.280  13.165 -1.1743 -2.3462 -0.0432
 7479TIP3    H243853   0.774   5.312  13.137  0.0201  2.9645 -0.6426
 7480TIP3   OH243854   3.254   2.718   0.761 -0.2798 -0.4745 -0.6862
 7480TIP3    H143855   3.300   2.642   0.725 -0.9556  0.3692 -3.4099
 7480TIP3    H243856   3.315   2.791   0.750 -0.7278 -0.0936 -0.6724
 7481TIP3   OH243857   1.856   2.925   2.650 -0.3834  0.2953 -0.2473
 7481TIP3    H143858   1.832   3.012   2.616  0.3688  1.2097  1.4848
 7481TIP3    H243859   1.949   2.932   2.669 -0.3206 -0.9152 -0.1092
 7482TIP3   OH243860   2.159   6.667  11.688  0.6859  0.5604 -0.1755
 7482TIP3    H143861   2.067   6.643  11.678  0.8593 -1.1120  1.8393
 7482TIP3    H243862   2.158   6.761  11.705 -0.9216  0.0384  2.9212
 7483TIP3   OH243863   2.187   4.348  10.506  0.4842 -0.7383  0.2414
 7483TIP3    H143864   2.229   4.264  10.526 -0.8553 -1.5279 -0.1878
 7483TIP3    H243865   2.151   4.336  10.418 -1.9235 -0.6093  1.1697
 7484TIP3   OH243866   4.687   1.448  11.084 -0.0042 -0.2601  0.0192
 7484TIP3    H143867   4.765   1.394  11.089 -1.4209 -2.8232 -3.3395
 7484TIP3    H243868   4.715   1.528  11.038  0.9870 -0.3853  0.3961
 7485TIP3   OH243869   4.630   1.811   0.200 -0.3235  0.3610 -0.0550
 7485TIP3    H143870   4.627   1.716   0.187 -0.1487  0.3523 -0.0353
 7485TIP3    H243871   4.620   1.822   0.295  2.3330  0.2197  0.2862
 7486TIP3   OH243872   0.854   0.283  16.815 -0.5326  0.5835  0.1482
 7486TIP3    H143873   0.875   0.377  16.818  0.1655  0.4207  0.2628
 7486TIP3    H243874   0.806   0.267  16.896 -1.1764  0.9651 -0.1514
 7487TIP3   OH243875   1.364   1.712   0.277 -0.3484 -0.8408  0.3084
 7487TIP3    H143876   1.441   1.657   0.259 -0.6383 -1.4522  0.9088
 7487TIP3    H243877   1.400   1.793   0.312  0.0557 -0.8966  0.0233
 7488TIP3   OH243878   6.049   5.101  10.621 -0.3219  0.3791 -0.5206
 7488TIP3    H143879   6.076   5.150  10.699 -0.9171  0.1493 -0.1647
 7488TIP3    H243880   6.130   5.085  10.573  0.0428  0.5441  0.0353
 7489TIP3   OH243881   4.439   0.579  12.708  0.2985  0.2781  0.9146
 7489TIP3    H143882   4.503   0.629  12.759 -0.6361  0.2988  2.0906
 7489TIP3    H243883   4.430   0.496  12.755  0.2705 -0.1609  0.1407
 7490TIP3   OH243884   5.873   6.041  13.228 -0.1917 -0.0584 -0.5908
 7490TIP3    H143885   5.860   6.133  13.208 -0.9214 -0.7854 -3.7902
 7490TIP3    H243886   5.822   5.994  13.162  1.3295 -2.7611  0.0440
 7491TIP3   OH243887   3.791   6.525   0.121  0.4291 -0.2449  0.1218
 7491TIP3    H143888   3.815   6.476   0.200 -0.0782 -0.5381  0.0996
 7491TIP3    H243889   3.839   6.607   0.128 -0.3503  0.1388  1.2287
 7492TIP3   OH243890   1.384   6.240   5.421 -0.0360 -0.5928 -0.0079
 7492TIP3    H143891   1.440   6.197   5.355  1.2739 -2.0888  2.0138
 7492TIP3    H243892   1.304   6.263   5.373  1.1199 -1.1031 -2.2577
 7493TIP3   OH243893   0.514   6.531   3.590  0.0286 -0.0818 -0.3813
 7493TIP3    H143894   0.533   6.601   3.652  1.7075 -2.2406  1.6354
 7493TIP3    H243895   0.469   6.464   3.641  0.4888 -1.4587 -1.7297
 7494TIP3   OH243896   4.064   5.888  16.314  0.4681 -0.4425  0.0623
 7494TIP3    H143897   4.129   5.820  16.298 -0.8981 -1.2768 -2.1985
 7494TIP3    H243898   3.989   5.841  16.351  0.4646  0.2212  0.8981
 7495TIP3   OH243899   6.511   2.009   2.517  0.1244  0.0780  0.0087
 7495TIP3    H143900   6.452   1.992   2.590 -0.9466  1.7152 -0.4293
 7495TIP3    H243901   6.590   1.959   2.537 -0.7806 -0.8073  1.4459
 7496TIP3   OH243902   4.500   3.623  15.222 -0.7104 -0.1923  0.6069
 7496TIP3    H143903   4.483   3.541  15.269  2.0325 -2.0354 -1.4733
 7496TIP3    H243904   4.504   3.598  15.130  0.5354  2.2137 -0.0382
 7497TIP3   OH243905   0.677   2.873   1.446 -0.0242 -0.2752 -0.0918
 7497TIP3    H143906   0.658   2.889   1.539 -0.4315  1.0739 -0.3965
 7497TIP3    H243907   0.592   2.871   1.404  0.1846 -0.4321 -0.5075
 7498TIP3   OH243908   1.087   0.320  15.213  0.1941  0.0027  0.5830
 7498TIP3    H143909   0.996   0.344  15.197  0.2994  0.1892  0.2629
 7498TIP3    H243910   1.112   0.367  15.292  0.4195  0.9915 -0.0727
 7499TIP3   OH243911   3.921   2.711  14.851  0.6934  0.0822  0.4291
 7499TIP3    H143912   3.909   2.646  14.920 -3.2253  1.9689  1.6947
 7499TIP3    H243913   3.983   2.774  14.888 -0.1643  0.2451  1.6215
 7500TIP3   OH243914   3.624   2.684   1.140 -0.1600 -0.6409  1.1033
 7500TIP3    H143915   3.595   2.766   1.099 -1.8975 -1.5764  0.3737
 7500TIP3    H243916   3.610   2.697   1.233  0.9868  0.4282  1.1323
 7501TIP3   OH243917   1.021   5.245  17.082  0.0449  0.4188 -0.2112
 7501TIP3    H143918   0.926   5.248  17.087  0.0605  1.4896 -0.4960
 7501TIP3    H243919   1.045   5.171  17.138 -1.0341 -0.8614 -1.4041
 7502TIP3   OH243920   4.197   4.415  15.288  0.1461 -0.3237  0.6316
 7502TIP3    H143921   4.255   4.473  15.337 -0.9453  0.8057  0.6253
 7502TIP3    H243922   4.166   4.352  15.352  1.0740 -0.7052  0.7142
 7503TIP3   OH243923   0.545   0.722  10.750  0.1488  0.1247 -0.1612
 7503TIP3    H143924   0.510   0.636  10.729  1.2900 -0.9771  2.2582
 7503TIP3    H243925   0.617   0.734  10.688  0.3197 -0.8951 -0.1662
 7504TIP3   OH243926   3.134   3.153   2.241  0.4569 -0.2575 -0.1763
 7504TIP3    H143927   3.140   3.245   2.268  0.9890 -0.4603  0.3913
 7504TIP3    H243928   3.184   3.105   2.306 -1.3970 -1.1747  0.6160
 7505TIP3   OH243929   0.248   5.678   3.546 -0.1529  0.1351 -0.0563
 7505TIP3    H143930   0.299   5.756   3.527 -0.3749 -0.0871 -1.5988
 7505TIP3    H243931   0.309   5.605   3.535 -0.1073  0.0326  0.7819
 7506TIP3   OH243932   4.958   1.264   1.111 -0.5600  0.2418 -0.5225
 7506TIP3    H143933   4.899   1.299   1.178  1.6890  1.3496  0.9115
 7506TIP3    H243934   4.959   1.331   1.043  0.5712  1.1273  0.3577
 7507TIP3   OH243935   6.293   2.108   3.913 -0.1839 -0.1462 -0.3521
 7507TIP3    H143936   6.377   2.142   3.944 -0.1590 -0.1276 -0.4381
 7507TIP3    H243937   6.246   2.186   3.882  0.0620 -0.2501 -0.9888
 7508TIP3   OH243938   3.982   2.147  15.147  0.0209 -0.2502 -0.1386
 7508TIP3    H143939   4.042   2.074  15.128  0.0909 -0.8670  2.2634
 7508TIP3    H243940   3.911   2.107  15.198 -0.6861  1.0960 -0.0437
 7509TIP3   OH243941   2.110   5.025   3.521 -0.3176 -0.5828  0.1617
 7509TIP3    H143942   2.175   5.079   3.476  0.8462 -0.1093  2.3615
 7509TIP3    H243943   2.161   4.969   3.578 -1.7779 -1.1556  0.9223
 7510TIP3   OH243944   0.940   0.988  14.386 -0.2539 -0.4085 -0.3055
 7510TIP3    H143945   0.923   0.951  14.472  1.8174  2.6477  1.5299
 7510TIP3    H243946   1.036   0.994  14.381 -0.4311  1.6295 -1.8215
 7511TIP3   OH243947   3.763   1.755   0.679  0.0639  0.2480 -0.2891
 7511TIP3    H143948   3.687   1.766   0.621  0.4906  1.7856 -0.5817
 7511TIP3    H243949   3.775   1.661   0.685 -2.0309 -0.0260 -0.0432
 7512TIP3   OH243950   3.956   4.731  14.198  0.3271 -0.3592 -0.1873
 7512TIP3    H143951   4.003   4.812  14.178  0.0322  0.0374  0.7159
 7512TIP3    H243952   4.024   4.671  14.229  0.4158 -0.1709 -0.0148
 7513TIP3   OH243953   3.202   5.573  15.384 -0.1713 -0.0135  0.2594
 7513TIP3    H143954   3.231   5.484  15.365  0.5296  0.5218 -1.2768
 7513TIP3    H243955   3.110   5.564  15.409  0.1251 -1.2524  0.9712
 7514TIP3   OH243956   3.329   4.802  11.776 -0.4009 -0.1371  0.1532
 7514TIP3    H143957   3.245   4.762  11.796  0.6672 -1.9868  1.0594
 7514TIP3    H243958   3.358   4.839  11.859  0.8586 -1.8020  0.4911
 7515TIP3   OH243959   5.202   5.633  16.585  0.3163  0.0528 -0.1080
 7515TIP3    H143960   5.217   5.691  16.660 -0.0460  0.0186 -0.0064
 7515TIP3    H243961   5.137   5.679  16.532  0.0344 -0.2549 -0.0307
 7516TIP3   OH243962   6.543   1.682  13.086 -0.2731  0.1040 -0.1392
 7516TIP3    H143963   6.508   1.746  13.025  1.8034  0.6318 -0.8075
 7516TIP3    H243964   6.468   1.626  13.108 -1.0801  0.0034 -3.0175
 7517TIP3   OH243965   0.115   6.099  17.107 -0.0432 -0.4013  0.7309
 7517TIP3    H143966   0.205   6.070  17.092  0.2866  0.3312  1.2973
 7517TIP3    H243967   0.118   6.193  17.095 -0.8418 -0.4341  0.2519
 7518TIP3   OH243968   2.400   2.179  12.672  0.5688 -0.0744  0.1158
 7518TIP3    H143969   2.324   2.132  12.706  0.2071  1.4172  1.4865
 7518TIP3    H243970   2.388   2.269  12.703  1.0373  1.0298 -2.7195
 7519TIP3   OH243971   5.111   4.322   5.864  0.1788 -0.5444  0.8528
 7519TIP3    H143972   5.193   4.350   5.822 -1.1251  0.6630 -0.9736
 7519TIP3    H243973   5.115   4.360   5.952  1.5725 -0.4886  0.7798
 7520TIP3   OH243974   1.300   5.354  13.725 -0.0333  0.1877 -0.4487
 7520TIP3    H143975   1.258   5.390  13.646 -0.7105 -2.1465 -1.1950
 7520TIP3    H243976   1.280   5.260  13.722  0.4439 -0.0407  2.2003
 7521TIP3   OH243977   4.454   0.535   2.017  0.3229 -0.2431 -0.2171
 7521TIP3    H143978   4.515   0.591   2.065 -0.7126  0.3157  0.4644
 7521TIP3    H243979   4.398   0.596   1.968  0.5396 -0.7621 -1.1261
 7522TIP3   OH243980   0.934   1.206  16.537 -0.7827  0.5114 -0.3185
 7522TIP3    H143981   0.930   1.168  16.624  0.4643 -0.2620 -0.5855
 7522TIP3    H243982   1.027   1.217  16.519 -1.0646  2.6306 -0.7313
 7523TIP3   OH243983   5.992   3.218   6.277  0.5813 -0.2096  0.7296
 7523TIP3    H143984   6.039   3.226   6.194  0.4193 -2.9729  0.3268
 7523TIP3    H243985   5.903   3.247   6.257 -0.0619 -2.9861 -0.6871
 7524TIP3   OH243986   6.750   0.514  15.442 -0.0169 -0.4057  0.4610
 7524TIP3    H143987   6.772   0.568  15.366  0.9764  0.3921  1.2932
 7524TIP3    H243988   6.694   0.571  15.495  0.3151 -0.5149  0.9249
 7525TIP3   OH243989   0.073   5.857   2.517 -0.0470 -0.1832  0.8765
 7525TIP3    H143990   0.010   5.871   2.587  0.3304  0.6008  1.0594
 7525TIP3    H243991   0.020   5.826   2.443 -0.6588  0.6242  0.9776
 7526TIP3   OH243992   3.902   4.780   6.068  0.1592  0.0431 -0.2799
 7526TIP3    H143993   3.880   4.857   6.121  1.8222 -0.7025  1.5792
 7526TIP3    H243994   3.979   4.807   6.018  0.7717 -0.3886  0.4080
 7527TIP3   OH243995   5.584   6.646   0.006  0.1835 -0.8525  0.1677
 7527TIP3    H143996   5.619   6.622  -0.080  0.9300 -0.1230  0.2572
 7527TIP3    H243997   5.501   6.599   0.012 -0.1951 -0.4010 -1.2246
 7528TIP3   OH243998   4.691   3.247  13.290  0.2451  0.5439 -0.0793
 7528TIP3    H143999   4.726   3.230  13.202  1.8120  1.3331  0.3633
 7528TIP3    H244000   4.605   3.285  13.275  0.4402  0.5406 -1.2769
 7529TIP3   OH244001   4.857   5.997   3.596  0.1574 -0.1445 -0.0298
 7529TIP3    H144002   4.873   6.004   3.690 -3.3128  0.4515  0.5741
 7529TIP3    H244003   4.846   6.087   3.567 -0.0577 -0.4029 -0.7620
 7530TIP3   OH244004   3.884   3.957  16.294  0.2777 -0.0391 -0.8868
 7530TIP3    H144005   3.816   4.020  16.272 -0.3656 -0.6982 -0.8261
 7530TIP3    H244006   3.860   3.878  16.245  0.1208 -0.7834  0.3650
 7531TIP3   OH244007   1.670   3.408  13.075 -0.0449  0.0268  0.2544
 7531TIP3    H144008   1.682   3.406  12.981  1.1362 -1.1248  0.4114
 7531TIP3    H244009   1.676   3.316  13.102  1.1559  0.4875  1.6310
 7532TIP3   OH244010   1.909   2.526   1.036  0.3027 -0.3072  0.1525
 7532TIP3    H144011   1.995   2.561   1.014  0.8194 -2.8444 -2.2398
 7532TIP3    H244012   1.919   2.490   1.124  1.7266 -0.5817 -0.1110
 7533TIP3   OH244013   6.198   1.107   4.234  0.5783  0.1007  0.3746
 7533TIP3    H144014   6.234   1.019   4.222 -1.2867 -0.5784 -0.5224
 7533TIP3    H244015   6.177   1.135   4.145 -1.2025  0.4033  0.8702
 7534TIP3   OH244016   6.362   4.058   2.798  0.2242 -0.0772 -0.4823
 7534TIP3    H144017   6.307   3.985   2.825  0.3861 -0.0256 -0.0227
 7534TIP3    H244018   6.422   4.020   2.733  1.9207 -0.9054  1.5169
 7535TIP3   OH244019   2.193   2.196   4.524 -0.2137  0.4827  0.7133
 7535TIP3    H144020   2.164   2.167   4.611  2.7051 -0.3173  1.4728
 7535TIP3    H244021   2.174   2.122   4.467 -1.0353  0.5479  0.8924
 7536TIP3   OH244022   5.921   0.460   6.379 -0.5338  0.0022  0.0860
 7536TIP3    H144023   5.840   0.505   6.354  0.2564  1.9937  1.0035
 7536TIP3    H244024   5.987   0.497   6.320 -0.0346 -0.5665  0.2988
 7537TIP3   OH244025   5.754   6.378   1.956 -0.3962 -0.5189 -0.5082
 7537TIP3    H144026   5.741   6.321   2.032 -0.8523 -0.5961 -0.6427
 7537TIP3    H244027   5.827   6.435   1.980 -0.9666 -0.1043  0.2467
 7538TIP3   OH244028   0.715   5.644   2.412 -0.1688  0.4481  0.2711
 7538TIP3    H144029   0.749   5.556   2.430  0.3231  0.6326  0.2343
 7538TIP3    H244030   0.674   5.637   2.326  0.5568  0.4498 -0.0777
 7539TIP3   OH244031   5.375   0.668  15.805  0.1339 -0.7596  0.4243
 7539TIP3    H144032   5.296   0.703  15.765 -0.8746 -0.8499  2.2527
 7539TIP3    H244033   5.445   0.688  15.743 -1.2076 -0.0049 -0.8673
 7540TIP3   OH244034   2.228   5.151  17.081  0.7479 -0.1537 -0.8353
 7540TIP3    H144035   2.318   5.129  17.058  0.9731  0.6691 -0.7641
 7540TIP3    H244036   2.174   5.086  17.036  1.3968 -0.8294 -0.6313
 7541TIP3   OH244037   3.303   5.496   5.611 -0.5511  0.0772  0.1957
 7541TIP3    H144038   3.284   5.421   5.556  0.6037  0.0090 -0.1312
 7541TIP3    H244039   3.264   5.571   5.566 -1.1101 -0.2248  0.1783
 7542TIP3   OH244040   4.768   1.969   5.663 -0.6273  0.1299 -0.0394
 7542TIP3    H144041   4.726   1.883   5.665  0.3352 -0.3350  0.8378
 7542TIP3    H244042   4.696   2.031   5.665 -1.2958 -0.6591  1.2238
 7543TIP3   OH244043   1.873   5.941   0.113 -0.5852 -0.5624  0.1771
 7543TIP3    H144044   1.961   5.934   0.078 -1.0421 -1.4244 -0.8407
 7543TIP3    H244045   1.883   5.932   0.207  0.2841 -1.8432 -0.0314
 7544TIP3   OH244046   4.605   2.983   2.443  0.2853 -0.2060  0.2119
 7544TIP3    H144047   4.661   2.912   2.412  1.5205  0.9630 -0.2532
 7544TIP3    H244048   4.659   3.061   2.435 -1.1870  0.8366  0.4050
 7545TIP3   OH244049   2.469   0.573  10.867 -0.1538 -0.6771 -0.1717
 7545TIP3    H144050   2.374   0.563  10.874 -0.1243 -1.4206 -0.6929
 7545TIP3    H244051   2.484   0.589  10.774  0.1540  0.4252  0.0604
 7546TIP3   OH244052   0.815   4.203   1.899 -0.3374 -0.1063 -0.8481
 7546TIP3    H144053   0.888   4.240   1.849  1.1266 -0.2996  1.0903
 7546TIP3    H244054   0.820   4.109   1.883  1.1511 -0.3417  0.9790
 7547TIP3   OH244055   1.965   2.558   3.504  0.0776 -0.0678  0.0233
 7547TIP3    H144056   1.915   2.487   3.545 -2.7653  0.8785 -1.6670
 7547TIP3    H244057   1.944   2.635   3.556  1.3262  0.0004  0.4469
 7548TIP3   OH244058   2.414   2.275  11.271 -0.8115  0.4757 -0.0844
 7548TIP3    H144059   2.461   2.218  11.210 -0.5558  2.4255 -1.7624
 7548TIP3    H244060   2.390   2.352  11.218 -1.0509  1.9694  2.1498
 7549TIP3   OH244061   2.092   6.384  16.000  0.2263  0.3551 -0.3814
 7549TIP3    H144062   2.094   6.377  16.095  1.2003  1.7268 -0.2946
 7549TIP3    H244063   2.008   6.345  15.975  0.9873 -2.1697  0.8412
 7550TIP3   OH244064   2.590   4.410   4.162 -0.0248  0.3627  0.2242
 7550TIP3    H144065   2.518   4.366   4.207  0.4903  0.5199  1.2127
 7550TIP3    H244066   2.637   4.340   4.116  1.3014 -0.2778  2.4772
 7551TIP3   OH244067   0.409   2.220  14.525 -0.3450 -0.9658  0.7262
 7551TIP3    H144068   0.496   2.234  14.563  0.2426  0.7472 -1.1914
 7551TIP3    H244069   0.418   2.140  14.473  0.5908  0.1393 -0.8622
 7552TIP3   OH244070   3.872   0.532   0.189 -0.4262 -0.5178  0.0409
 7552TIP3    H144071   3.901   0.471   0.257 -2.8435 -2.1150 -0.3058
 7552TIP3    H244072   3.804   0.485   0.141 -2.4896  2.5119 -0.1451
 7553TIP3   OH244073   0.098   2.446   5.811 -0.1160  0.1266 -0.0991
 7553TIP3    H144074   0.062   2.446   5.900 -0.8163  0.5663 -0.3710
 7553TIP3    H244075   0.064   2.527   5.773  0.9091  0.3828 -0.4794
 7554TIP3   OH244076   3.975   1.892   2.832 -0.8908 -0.1413 -0.1167
 7554TIP3    H144077   3.913   1.916   2.901  1.4025 -1.3454  2.4455
 7554TIP3    H244078   3.988   1.797   2.843  2.7592  0.3889  0.5943
 7555TIP3   OH244079   0.668   3.640   0.098  0.0133  0.5807 -0.8310
 7555TIP3    H144080   0.618   3.660   0.177  1.3984  1.8930 -0.2569
 7555TIP3    H244081   0.634   3.701   0.032 -1.9711 -1.3145 -1.6248
 7556TIP3   OH244082   5.584   3.830  12.154  0.0977  0.1204 -0.5694
 7556TIP3    H144083   5.661   3.860  12.202 -0.7037  1.2791 -0.0055
 7556TIP3    H244084   5.545   3.910  12.118 -0.8034 -0.4694 -0.9268
 7557TIP3   OH244085   5.279   0.863  12.905 -0.1890 -0.4563  0.0661
 7557TIP3    H144086   5.328   0.874  12.823 -2.6313 -0.8504 -1.4915
 7557TIP3    H244087   5.347   0.851  12.972  1.8816  1.2583 -1.6617
 7558TIP3   OH244088   5.961   1.683   0.701 -0.4953  0.3931  0.3345
 7558TIP3    H144089   5.966   1.614   0.634 -2.6666  1.4358 -0.9704
 7558TIP3    H244090   5.907   1.644   0.770 -1.6559  0.7113 -0.3661
 7559TIP3   OH244091   5.507   0.654   2.216 -0.1367  0.6098  0.0083
 7559TIP3    H144092   5.468   0.661   2.303  2.1975 -0.4480  1.1932
 7559TIP3    H244093   5.534   0.562   2.209  0.4123  0.8641 -1.5231
 7560TIP3   OH244094   4.306   6.434  11.321 -0.0648  0.1099  0.0044
 7560TIP3    H144095   4.280   6.342  11.312  1.5779 -0.3752  0.0299
 7560TIP3    H244096   4.314   6.448  11.416 -0.0372  0.1970 -0.0106
 7561TIP3   OH244097   5.088   2.662  15.744 -0.2598 -0.0390  0.1972
 7561TIP3    H144098   5.119   2.727  15.680  1.1341 -1.2627 -0.3989
 7561TIP3    H244099   5.002   2.635  15.710 -0.1166  0.2892 -0.4369
 7562TIP3   OH244100   6.657   3.743   0.038 -0.0214  0.2118  0.2248
 7562TIP3    H144101   6.697   3.684   0.102 -0.5828 -0.2012  0.1971
 7562TIP3    H244102   6.652   3.827   0.083 -1.2222 -0.2825  1.0511
 7563TIP3   OH244103   4.744   1.215   5.374 -0.2921  0.1086  0.1391
 7563TIP3    H144104   4.805   1.148   5.408 -0.2400 -0.1229 -0.3928
 7563TIP3    H244105   4.801   1.288   5.349 -0.3232  0.2487  0.4794
 7564TIP3   OH244106   6.231   2.792   2.587  0.4882  0.1452  0.9710
 7564TIP3    H144107   6.154   2.802   2.532  0.6796  3.2087  1.1361
 7564TIP3    H244108   6.294   2.745   2.532  0.4632  2.5909 -1.2860
 7565TIP3   OH244109   4.716   4.037   5.889  0.3407 -0.2137 -0.2969
 7565TIP3    H144110   4.696   4.014   5.799 -0.0203 -0.0721 -0.2526
 7565TIP3    H244111   4.632   4.034   5.935 -0.1738  3.5523 -0.7966
 7566TIP3   OH244112   2.270   4.569   2.883 -0.3297 -0.5744 -0.5020
 7566TIP3    H144113   2.186   4.543   2.845 -0.9126 -1.5806  1.3738
 7566TIP3    H244114   2.331   4.500   2.857  0.1897  0.6751 -2.7130
 7567TIP3   OH244115   3.372   3.918  13.262 -0.0269 -0.0839  0.4022
 7567TIP3    H144116   3.286   3.953  13.286 -0.1680 -0.1438 -0.0200
 7567TIP3    H244117   3.357   3.825  13.247 -0.0482  0.0620 -0.4888
 7568TIP3   OH244118   1.178   1.042  16.902 -0.9845 -0.1144 -0.0494
 7568TIP3    H144119   1.098   1.014  16.857 -1.8092  1.7739  0.1875
 7568TIP3    H244120   1.212   1.114  16.848  0.0488 -0.2910  0.3455
 7569TIP3   OH244121   4.878   3.258   5.489 -0.8430  0.3771  0.0268
 7569TIP3    H144122   4.880   3.246   5.584  3.7791 -0.9742 -0.1331
 7569TIP3    H244123   4.869   3.169   5.454 -1.1565  0.7367 -0.8210
 7570TIP3   OH244124   4.500   0.828  14.734  0.0488 -0.3168  0.0125
 7570TIP3    H144125   4.576   0.820  14.677  0.3594 -3.1170  0.7538
 7570TIP3    H244126   4.456   0.908  14.704  2.4040  0.4895 -1.4404
 7571TIP3   OH244127   2.475   0.265   0.303  0.0733  0.2403  0.0443
 7571TIP3    H144128   2.496   0.186   0.351  0.0468  1.8042  2.7284
 7571TIP3    H244129   2.382   0.255   0.280 -0.2135 -0.0313  1.3042
 7572TIP3   OH244130   2.319   0.461  14.030  0.1180  0.2970 -0.1926
 7572TIP3    H144131   2.293   0.441  13.940  1.3174 -1.8071 -0.1161
 7572TIP3    H244132   2.237   0.463  14.079 -0.6100  2.2649 -1.4707
 7573TIP3   OH244133   0.211   2.521   2.670 -0.0123 -0.0033 -0.0434
 7573TIP3    H144134   0.147   2.574   2.716  1.2889  2.1237 -0.6063
 7573TIP3    H244135   0.229   2.448   2.729 -0.0896  1.4359  1.7977
 7574TIP3   OH244136   6.082   1.120   4.967 -0.3128 -0.1050 -0.4869
 7574TIP3    H144137   6.066   1.026   4.965  0.3053 -0.1981 -0.8072
 7574TIP3    H244138   6.068   1.149   4.877  1.7159 -0.2470 -0.8611
 7575TIP3   OH244139   1.858   3.001  12.476  0.0004  0.6952 -0.2679
 7575TIP3    H144140   1.913   2.985  12.400 -0.3166  0.0034 -0.3519
 7575TIP3    H244141   1.883   2.933  12.538 -1.4762 -0.2443 -0.6971
 7576TIP3   OH244142   3.761   2.480   4.919 -0.5945 -0.2564  0.0990
 7576TIP3    H144143   3.725   2.557   4.964  0.4525 -0.0759  0.6270
 7576TIP3    H244144   3.754   2.503   4.826 -0.7895  0.2509  0.2334
 7577TIP3   OH244145   6.707   5.109  14.580 -0.6021 -0.3129  0.0365
 7577TIP3    H144146   6.699   5.157  14.498  0.0453 -0.7426 -0.2748
 7577TIP3    H244147   6.693   5.018  14.557 -2.4512 -0.2245  0.7330
 7578TIP3   OH244148   1.186   4.248   0.470 -0.1812  0.0039 -0.3087
 7578TIP3    H144149   1.255   4.252   0.536 -0.7793 -0.0054  0.3113
 7578TIP3    H244150   1.125   4.317   0.494 -2.3002 -2.3504  1.2628
 7579TIP3   OH244151   1.892   1.220  11.760 -0.2835 -0.3244  0.0768
 7579TIP3    H144152   1.930   1.306  11.780  0.5410 -1.0123  1.5442
 7579TIP3    H244153   1.845   1.196  11.840 -2.0888 -0.4168 -0.9888
 7580TIP3   OH244154   0.723   4.266   5.432 -0.2672  0.2794 -0.5643
 7580TIP3    H144155   0.742   4.219   5.352  0.4887  2.2964 -1.6099
 7580TIP3    H244156   0.658   4.212   5.477  1.5037 -2.3821 -1.0804
 7581TIP3   OH244157   3.701   4.742  13.404 -1.0723  0.4959 -0.1425
 7581TIP3    H144158   3.705   4.801  13.329 -0.3594  1.4016  0.5991
 7581TIP3    H244159   3.624   4.770  13.452 -0.1378  1.5349  0.7788
 7582TIP3   OH244160   2.239   4.581   1.644 -0.0664  0.1734  0.4281
 7582TIP3    H144161   2.163   4.639   1.646 -0.2494 -0.1093  2.3111
 7582TIP3    H244162   2.259   4.571   1.550 -4.0275 -1.9881 -0.3103
 7583TIP3   OH244163   1.098   4.378   2.263  0.6690 -0.0788  0.5119
 7583TIP3    H144164   1.030   4.319   2.230 -0.8207  1.2078  1.2184
 7583TIP3    H244165   1.180   4.340   2.231 -0.4361 -1.1365 -1.1626
 7584TIP3   OH244166   0.202   4.970  14.258 -0.4899 -0.6273  0.3069
 7584TIP3    H144167   0.251   4.902  14.305  0.2916  0.2033  0.7148
 7584TIP3    H244168   0.228   5.052  14.300  0.5324  0.1847 -1.8291
 7585TIP3   OH244169   2.753   0.510  14.682 -0.0864  0.4641  0.2262
 7585TIP3    H144170   2.772   0.603  14.697  0.3945  0.3164  0.5429
 7585TIP3    H244171   2.718   0.507  14.593  1.3145  0.7595 -0.3481
 7586TIP3   OH244172   3.353   0.684   6.001  0.1052 -0.2478 -0.4724
 7586TIP3    H144173   3.380   0.668   6.091  1.8167  0.1820 -0.8981
 7586TIP3    H244174   3.314   0.601   5.973 -1.4065 -0.0552  0.9871
 7587TIP3   OH244175   6.762   1.426  13.267  0.4251 -0.3680 -0.2802
 7587TIP3    H144176   6.780   1.408  13.359  4.0893  2.5895 -0.3194
 7587TIP3    H244177   6.773   1.521  13.258  1.0702 -0.7143 -3.9474
 7588TIP3   OH244178   0.419   5.906   1.559 -0.4758  0.1326 -0.6145
 7588TIP3    H144179   0.354   5.948   1.503 -0.1305  1.3578 -0.1113
 7588TIP3    H244180   0.398   5.937   1.647  0.5305  0.2063 -0.3984
 7589TIP3   OH244181   0.392   3.029   0.079  0.8283 -0.2034  0.5028
 7589TIP3    H144182   0.414   2.982   0.160  0.1202  1.0860  1.4675
 7589TIP3    H244183   0.458   3.099   0.073 -0.3442  0.9780  1.0879
 7590TIP3   OH244184   5.995   2.425   3.972 -0.3994  0.3609 -0.7000
 7590TIP3    H144185   6.011   2.442   4.065  0.3234  1.8689 -1.0803
 7590TIP3    H244186   5.905   2.393   3.969 -0.6245  0.8511  0.4676
 7591TIP3   OH244187   6.002   1.183   4.711  0.2074 -0.2999 -0.7915
 7591TIP3    H144188   5.994   1.276   4.735 -0.7410 -0.0958 -1.8334
 7591TIP3    H244189   6.056   1.183   4.632  0.9669 -0.7186 -0.2736
 7592TIP3   OH244190   3.766   5.871   3.858  0.2043 -0.1561 -0.6267
 7592TIP3    H144191   3.749   5.909   3.771 -1.5015 -0.3266 -0.3863
 7592TIP3    H244192   3.787   5.780   3.840  2.4561  0.4164 -1.0560
 7593TIP3   OH244193   6.616   3.146  12.787  0.2213 -0.6274  0.4789
 7593TIP3    H144194   6.613   3.117  12.878 -3.0007 -0.6232  0.4187
 7593TIP3    H244195   6.572   3.231  12.787 -2.3594 -1.8975 -1.5107
 7594TIP3   OH244196   4.341   3.867   0.677  0.3394  0.0048  0.0221
 7594TIP3    H144197   4.354   3.779   0.644 -0.1113 -0.7065  1.6957
 7594TIP3    H244198   4.260   3.897   0.635  2.0066  0.7601 -2.7991
 7595TIP3   OH244199   0.821   2.648  15.483 -0.0505  0.5819 -0.3896
 7595TIP3    H144200   0.818   2.629  15.389  0.5652  0.5408 -0.4065
 7595TIP3    H244201   0.730   2.661  15.508 -0.2138  0.6376 -1.0049
 7596TIP3   OH244202   1.432   3.135   4.296 -0.0623 -0.4087  0.3863
 7596TIP3    H144203   1.341   3.159   4.314 -0.0052  2.0077 -2.1384
 7596TIP3    H244204   1.474   3.133   4.382 -1.8156  1.4944  1.3227
 7597TIP3   OH244205   5.462   1.747   3.833 -0.1214 -0.3186 -0.7398
 7597TIP3    H144206   5.532   1.691   3.798 -0.0402  0.7273 -2.2641
 7597TIP3    H244207   5.507   1.829   3.856 -0.4237 -0.5023  0.5579
 7598TIP3   OH244208   0.318   0.666   2.798 -0.0672 -0.9233 -0.3108
 7598TIP3    H144209   0.237   0.715   2.779  0.9568  1.2070  0.6870
 7598TIP3    H244210   0.314   0.648   2.892  1.2223  0.3559  0.0051
 7599TIP3   OH244211   1.364   4.795  15.096 -0.2522  0.4826  0.5517
 7599TIP3    H144212   1.395   4.886  15.094 -1.7122  0.9876  0.3234
 7599TIP3    H244213   1.424   4.751  15.156  1.1929  1.3202 -0.2324
 7600TIP3   OH244214   1.034   4.429   3.955 -0.2264 -0.1935 -0.4398
 7600TIP3    H144215   0.992   4.357   4.002 -1.3201  0.3732 -0.5231
 7600TIP3    H244216   0.961   4.478   3.916  0.4828  1.1101 -0.1561
 7601TIP3   OH244217   6.192   4.457  14.809  0.1638  0.1057  0.1331
 7601TIP3    H144218   6.199   4.543  14.850 -0.5940  0.6736 -0.9387
 7601TIP3    H244219   6.263   4.406  14.849 -1.1169  0.3460  2.8858
 7602TIP3   OH244220   4.975   0.730  13.976  0.1948  0.1675  0.1314
 7602TIP3    H144221   4.952   0.724  14.068 -0.3498  2.9199  0.2464
 7602TIP3    H244222   4.891   0.741  13.931  0.5595  0.5020 -0.4846
 7603TIP3   OH244223   2.556   4.466  15.940 -1.0010 -0.0172  0.0697
 7603TIP3    H144224   2.580   4.559  15.939 -0.3384 -0.1784  0.6388
 7603TIP3    H244225   2.620   4.425  15.999 -1.0555 -0.9010 -0.4791
 7604TIP3   OH244226   2.358   2.082  13.067 -0.0318  0.2561 -0.6560
 7604TIP3    H144227   2.433   2.102  13.011  0.0419 -0.7498 -0.9248
 7604TIP3    H244228   2.377   2.128  13.149  2.5537 -2.6557  0.4914
 7605TIP3   OH244229   1.447   0.924   4.658 -0.1326  0.3640 -0.2003
 7605TIP3    H144230   1.449   0.915   4.562  0.3951  1.0387 -0.2529
 7605TIP3    H244231   1.366   0.973   4.675 -0.2502  0.2050 -0.2989
 7606TIP3   OH244232   0.345   2.283   5.909 -0.1742  0.6454 -0.0927
 7606TIP3    H144233   0.297   2.361   5.879 -2.8799  0.0598  2.4275
 7606TIP3    H244234   0.348   2.293   6.004  1.3398 -1.3160  0.0859
 7607TIP3   OH244235   5.363   5.602  13.916  0.4606  0.0565 -0.3178
 7607TIP3    H144236   5.394   5.611  13.826 -1.6470  2.0175 -0.8993
 7607TIP3    H244237   5.268   5.614  13.909  0.5791  3.2193  2.5258
 7608TIP3   OH244238   3.006   4.066   5.169  0.2220 -0.4297  0.3773
 7608TIP3    H144239   3.073   4.017   5.217  0.8137 -1.0957 -1.1036
 7608TIP3    H244240   3.009   4.154   5.208  2.2133 -0.3547  0.1205
 7609TIP3   OH244241   0.226   1.725   2.339 -0.7141 -0.5656 -0.0106
 7609TIP3    H144242   0.158   1.663   2.366  0.9491 -2.8206 -0.8405
 7609TIP3    H244243   0.302   1.670   2.320  1.7351  1.9918  2.0045
 7610TIP3   OH244244   1.850   1.017  13.520 -0.2265  0.2595  0.0663
 7610TIP3    H144245   1.894   0.978  13.443 -1.5025  0.3284 -0.7150
 7610TIP3    H244246   1.922   1.040  13.579  0.8279  0.7486 -1.3577
 7611TIP3   OH244247   4.834   1.516   5.283 -0.0900 -0.2356 -0.1203
 7611TIP3    H144248   4.883   1.542   5.361  0.0769  1.4877 -0.7681
 7611TIP3    H244249   4.838   1.593   5.226 -1.2941 -1.0174 -1.2873
 7612TIP3   OH244250   5.353   3.647  12.212 -0.6645  0.0714  0.6980
 7612TIP3    H144251   5.293   3.701  12.160 -0.0324  0.3621  0.2710
 7612TIP3    H244252   5.437   3.692  12.207 -0.2135 -0.7602  0.6331
 7613TIP3   OH244253   3.579   2.473   1.873 -0.6197  0.0194 -0.3620
 7613TIP3    H144254   3.563   2.522   1.954  0.5654  0.7735 -0.5591
 7613TIP3    H244255   3.667   2.437   1.884 -0.4080  0.2176 -1.3626
 7614TIP3   OH244256   0.927   2.094   4.150  0.3310 -0.2064  0.3023
 7614TIP3    H144257   0.954   2.185   4.147 -0.2735 -0.0165  0.4207
 7614TIP3    H244258   0.840   2.093   4.110 -0.9437 -0.2318  2.9214
 7615TIP3   OH244259   4.851   3.147  11.322  0.1803  0.0701 -0.4989
 7615TIP3    H144260   4.905   3.215  11.362 -0.4698 -0.2878  1.0497
 7615TIP3    H244261   4.762   3.185  11.321 -0.1891 -0.7400  0.4085
 7616TIP3   OH244262   4.246   6.021  11.823 -0.1185 -0.0380  0.6279
 7616TIP3    H144263   4.286   5.942  11.860 -0.4367 -0.5157 -0.0274
 7616TIP3    H244264   4.311   6.090  11.835  0.9802 -0.8385 -0.5634
 7617TIP3   OH244265   1.066   0.469   3.013 -0.3168  0.1880 -0.0225
 7617TIP3    H144266   1.108   0.399   3.062  0.6273 -0.0991 -1.2003
 7617TIP3    H244267   1.088   0.549   3.060 -0.5550 -0.1994  0.7578
 7618TIP3   OH244268   0.361   3.058  14.942  0.4913  0.2867  0.0894
 7618TIP3    H144269   0.364   3.151  14.917 -0.8482  0.5182  0.7568
 7618TIP3    H244270   0.348   3.012  14.859  0.9328  0.7025 -0.2192
 7619TIP3   OH244271   1.555   1.810   6.102  0.1589 -0.4346  0.2361
 7619TIP3    H144272   1.540   1.746   6.172  0.1930  0.7334  1.3204
 7619TIP3    H244273   1.579   1.891   6.147 -0.4239  0.5060 -1.0996
 7620TIP3   OH244274   6.201   1.271  16.251 -0.1174  0.1770 -0.0031
 7620TIP3    H144275   6.200   1.339  16.183 -0.0671 -0.0587 -0.2372
 7620TIP3    H244276   6.248   1.312  16.324  0.2040  0.2812 -0.2658
 7621TIP3   OH244277   6.533   4.210   0.911 -0.6121 -0.4192  0.3501
 7621TIP3    H144278   6.476   4.284   0.932  0.1594  0.5469 -0.9139
 7621TIP3    H244279   6.605   4.217   0.974  0.0379  0.5738 -0.4959
 7622TIP3   OH244280   2.363   2.550   3.666  0.1568  0.3547 -0.3465
 7622TIP3    H144281   2.416   2.483   3.622  1.4628  0.7427  0.6160
 7622TIP3    H244282   2.297   2.500   3.714  0.4411 -0.1958 -0.5235
 7623TIP3   OH244283   4.595   5.066   1.101  0.2219 -0.7638 -0.6088
 7623TIP3    H144284   4.634   5.109   1.025  1.5343 -1.3172 -0.2613
 7623TIP3    H244285   4.663   5.007   1.133  0.0578  0.1914  1.6006
 7624TIP3   OH244286   1.237   6.015  11.182  0.4586 -0.6082 -0.2399
 7624TIP3    H144287   1.218   6.030  11.090  0.1333 -0.0408 -0.0873
 7624TIP3    H244288   1.321   5.969  11.183  1.3754  0.9846 -0.7670
 7625TIP3   OH244289   0.032   0.301  11.792  0.6866  0.2248 -0.0656
 7625TIP3    H144290  -0.036   0.368  11.785  0.2088 -0.1666  0.7306
 7625TIP3    H244291   0.114   0.350  11.799  0.5763  0.6935 -1.7830
 7626TIP3   OH244292   6.077   0.400   0.923 -0.0451  0.3317  0.0066
 7626TIP3    H144293   6.118   0.487   0.928 -0.1568  0.3893 -0.0889
 7626TIP3    H244294   6.069   0.372   1.014 -0.7842  0.7797  0.0821
 7627TIP3   OH244295   1.974   2.712  13.184  0.2007 -0.3330 -0.5655
 7627TIP3    H144296   2.035   2.781  13.158 -0.2646 -0.0921 -1.0284
 7627TIP3    H244297   1.990   2.699  13.277 -0.1054  0.7998 -0.3540
 7628TIP3   OH244298   4.434   0.362   3.300 -0.1980  0.1650 -0.3670
 7628TIP3    H144299   4.516   0.400   3.330 -0.5362  1.8451 -1.4654
 7628TIP3    H244300   4.406   0.305   3.372  1.8070 -0.2839  0.0868
 7629TIP3   OH244301   3.714   2.117  14.851 -0.5230 -0.0300 -0.8485
 7629TIP3    H144302   3.706   2.106  14.946  0.3047  0.5796 -0.7070
 7629TIP3    H244303   3.752   2.204  14.840  0.1088 -0.4110 -1.7159
 7630TIP3   OH244304   4.042   2.249   0.335 -0.0237 -0.6288 -0.7368
 7630TIP3    H144305   4.082   2.274   0.418 -0.0501  0.1137 -0.9494
 7630TIP3    H244306   3.983   2.177   0.358 -0.4605 -0.0518 -0.0193
 7631TIP3   OH244307   1.407   5.606   2.989  0.3374 -0.6515 -1.0411
 7631TIP3    H144308   1.368   5.582   3.073 -0.6138  3.3136 -0.2588
 7631TIP3    H244309   1.355   5.558   2.924 -0.1503 -2.2321  0.4593
 7632TIP3   OH244310   4.473   3.754  16.171 -0.2582 -0.5578 -0.5651
 7632TIP3    H144311   4.523   3.830  16.141  0.7825 -0.9035  0.3113
 7632TIP3    H244312   4.500   3.683  16.113 -1.3508 -0.2536 -1.4903
 7633TIP3   OH244313   0.419   3.725  14.083  0.3049  0.3452 -0.6083
 7633TIP3    H144314   0.388   3.764  14.002  2.8953  0.5228 -1.5602
 7633TIP3    H244315   0.364   3.764  14.151  0.6481  3.1773 -1.8947
 7634TIP3   OH244316   1.563   3.412  15.976  0.2787  0.0336 -0.4871
 7634TIP3    H144317   1.574   3.478  16.043  1.3071 -0.6633  0.0473
 7634TIP3    H244318   1.609   3.335  16.010 -0.2878 -0.7312 -1.4108
 7635TIP3   OH244319   1.303   3.620  13.917  0.0464  0.1443  0.1911
 7635TIP3    H144320   1.389   3.591  13.887  0.0301  0.0459  0.2398
 7635TIP3    H244321   1.320   3.706  13.956  0.4124 -0.6240  1.7532
 7636TIP3   OH244322   5.014   0.412   5.543 -0.0016  0.1826  0.4329
 7636TIP3    H144323   5.063   0.465   5.605 -0.7142  0.8163  0.4615
 7636TIP3    H244324   4.931   0.394   5.588 -0.8630  1.3413 -0.6485
 7637TIP3   OH244325   6.256   1.474   4.499 -0.8777 -0.1284  0.0573
 7637TIP3    H144326   6.333   1.525   4.524 -0.1967 -1.2813  0.3623
 7637TIP3    H244327   6.246   1.490   4.405 -0.7085  0.6094  0.1595
 7638TIP3   OH244328   4.424   5.085   0.038 -0.3546 -0.3558 -0.2843
 7638TIP3    H144329   4.358   5.028  -0.002 -1.0702  0.2725 -0.0227
 7638TIP3    H244330   4.375   5.137   0.101  0.2515  0.6608 -0.6364
 7639TIP3   OH244331   2.474   1.993  14.140 -0.0010  0.3062 -0.0954
 7639TIP3    H144332   2.405   2.011  14.204 -0.3223 -0.4216 -0.2385
 7639TIP3    H244333   2.520   2.077  14.130 -0.4307  0.6154  0.5126
 7640TIP3   OH244334   1.557   4.719  12.580  0.1575  0.1615  0.0767
 7640TIP3    H144335   1.486   4.741  12.640 -1.1316 -1.2055 -0.9158
 7640TIP3    H244336   1.630   4.694  12.637 -0.7709 -0.2792  1.0793
 7641TIP3   OH244337   3.296   0.180   1.813  0.2091 -0.3238  0.4682
 7641TIP3    H144338   3.375   0.185   1.866  0.5362 -0.1934 -0.0251
 7641TIP3    H244339   3.327   0.159   1.725 -0.4000 -1.4084  0.5010
 7642TIP3   OH244340   5.940   3.756  13.531  0.0214 -0.3242 -0.3782
 7642TIP3    H144341   5.862   3.794  13.571  0.6771 -0.7164  1.3209
 7642TIP3    H244342   5.953   3.673  13.577  0.3223 -1.2035 -2.0018
 7643TIP3   OH244343   3.507   2.756  11.704 -0.3057  0.4657 -0.1005
 7643TIP3    H144344   3.513   2.677  11.758 -0.1088  2.0120  2.2418
 7643TIP3    H244345   3.576   2.747  11.639 -0.2969 -1.2897  0.1293
 7644TIP3   OH244346   3.257   4.403   0.177  0.4288 -0.0376 -0.1603
 7644TIP3    H144347   3.240   4.397   0.272 -0.1105  1.1339 -0.1699
 7644TIP3    H244348   3.262   4.312   0.148  1.3275 -0.4115  1.1252
 7645TIP3   OH244349   4.453   1.698   0.433  0.5832 -0.3703  0.2505
 7645TIP3    H144350   4.439   1.742   0.517 -1.0041 -1.0490  0.3538
 7645TIP3    H244351   4.530   1.643   0.448  1.4823  0.9941  0.6679
 7646TIP3   OH244352   0.071   4.000   4.333  0.7833  0.1642 -0.0110
 7646TIP3    H144353  -0.019   4.010   4.301  0.7686 -0.8821 -0.3041
 7646TIP3    H244354   0.078   3.907   4.355  2.4308 -0.2023 -1.9434
 7647TIP3   OH244355   3.687   0.887   4.767  0.7489  0.5159 -0.7230
 7647TIP3    H144356   3.708   0.794   4.775 -1.7917  0.0965  1.3704
 7647TIP3    H244357   3.748   0.930   4.826  0.4208 -0.0447  0.0367
 7648TIP3   OH244358   3.729   2.735  11.529 -0.5065 -0.1599 -0.3722
 7648TIP3    H144359   3.779   2.784  11.593 -1.1715  0.1379 -0.0737
 7648TIP3    H244360   3.773   2.650  11.523  0.0281  0.1018 -0.1200
 7649TIP3   OH244361   5.557   1.550  12.083 -0.0314 -0.0703 -0.4414
 7649TIP3    H144362   5.625   1.485  12.102  0.4309  0.9495  1.5787
 7649TIP3    H244363   5.601   1.614  12.026  0.8677  0.8202  1.2161
 7650TIP3   OH244364   5.561   4.965  13.254  0.0691  0.0362 -0.0332
 7650TIP3    H144365   5.551   4.970  13.159  1.5953 -0.1013 -0.2079
 7650TIP3    H244366   5.601   5.049  13.278 -0.0843 -0.0328  0.4669
 7651TIP3   OH244367   6.766   2.065   1.798  0.5692  0.1872  0.3308
 7651TIP3    H144368   6.792   2.101   1.883 -0.1789  1.5316  0.0255
 7651TIP3    H244369   6.839   2.085   1.739  0.5523  0.3973  0.3798
 7652TIP3   OH244370   5.577   3.073  11.439  0.1078  0.1350 -0.2236
 7652TIP3    H144371   5.545   3.159  11.466  1.3765  0.2427  0.9603
 7652TIP3    H244372   5.560   3.070  11.345 -0.3893  1.4860 -0.1862
 7653TIP3   OH244373   2.833   3.996  12.480  0.2076  0.2110  0.8336
 7653TIP3    H144374   2.861   3.947  12.558  0.3490 -0.8953  0.0996
 7653TIP3    H244375   2.738   3.992  12.482  0.1630  1.4685  1.7506
 7654TIP3   OH244376   5.484   6.262   3.141 -0.8962  0.1958  0.8098
 7654TIP3    H144377   5.526   6.185   3.180  1.5875  0.4215 -1.2426
 7654TIP3    H244378   5.469   6.236   3.050  0.2287  2.2356  0.0292
 7655TIP3   OH244379   1.206   4.547   1.880  0.2128  0.1953 -0.2125
 7655TIP3    H144380   1.126   4.599   1.891  0.0688 -0.0723  0.0229
 7655TIP3    H244381   1.180   4.458   1.905  1.3397  0.6501  2.8325
 7656TIP3   OH244382   0.311   5.974  16.436  0.3541 -0.2922 -0.3410
 7656TIP3    H144383   0.328   6.045  16.375  1.7096 -1.4096 -1.2993
 7656TIP3    H244384   0.291   6.017  16.519  1.9710  1.1808 -0.6939
 7657TIP3   OH244385   3.285   1.142   5.122 -0.0312 -0.2021  0.3835
 7657TIP3    H144386   3.377   1.126   5.142  0.3027 -0.3065 -1.1753
 7657TIP3    H244387   3.258   1.210   5.184  1.4326  0.6949  0.0503
 7658TIP3   OH244388   0.601   3.979  13.451  0.3605  0.4510  0.4749
 7658TIP3    H144389   0.573   4.067  13.425 -0.1613  0.2768  0.4382
 7658TIP3    H244390   0.636   3.941  13.370 -3.8080 -1.0932 -0.7424
 7659TIP3   OH244391   1.381   2.678  13.107  0.1067  0.3242  0.1465
 7659TIP3    H144392   1.341   2.604  13.060 -1.4734  0.4696  1.2115
 7659TIP3    H244393   1.423   2.729  13.038 -0.3640 -0.5956 -0.8536
 7660TIP3   OH244394   4.175   2.248   1.538  0.7391 -0.2435  0.9823
 7660TIP3    H144395   4.176   2.273   1.630 -1.0142  2.3020  0.3663
 7660TIP3    H244396   4.145   2.326   1.492 -2.5940 -2.7422 -1.3337
 7661TIP3   OH244397   6.117   2.063   4.986  0.3347 -0.0904  0.0150
 7661TIP3    H144398   6.139   2.042   4.895  0.6519 -1.8423  0.4801
 7661TIP3    H244399   6.202   2.079   5.028  0.1486  1.3687 -0.1349
 7662TIP3   OH244400   2.342   5.046   5.580  0.3077 -0.0380 -0.4448
 7662TIP3    H144401   2.319   5.110   5.513  0.0692  0.2085 -0.1286
 7662TIP3    H244402   2.392   5.096   5.645  0.0104 -0.1426 -0.1338
 7663TIP3   OH244403   5.574   1.199  12.925  0.2996 -0.1838  0.2488
 7663TIP3    H144404   5.490   1.240  12.905 -0.2296 -0.5403  1.6893
 7663TIP3    H244405   5.623   1.266  12.973  1.2754  0.4093 -1.5458
 7664TIP3   OH244406   5.337   4.243   2.948  0.5731  0.0702  0.2293
 7664TIP3    H144407   5.258   4.274   2.991  0.6379  1.4007 -0.5650
 7664TIP3    H244408   5.364   4.167   2.999 -1.4001 -0.6094  0.3087
 7665TIP3   OH244409   4.693   6.121  13.651  0.2985 -0.0837  0.2457
 7665TIP3    H144410   4.626   6.058  13.675 -0.0522  0.6144  1.1226
 7665TIP3    H244411   4.732   6.085  13.571 -0.4714 -0.9674  0.2566
 7666TIP3   OH244412   1.113   2.566   1.867 -0.1044  0.6918 -0.6682
 7666TIP3    H144413   1.100   2.504   1.795 -1.1454  0.1444 -0.0237
 7666TIP3    H244414   1.088   2.517   1.946 -2.2021  2.3364 -0.2809
 7667TIP3   OH244415   3.966   2.345   1.768 -0.4395 -0.1706  0.0468
 7667TIP3    H144416   3.957   2.436   1.796 -1.1382  0.1228 -1.1109
 7667TIP3    H244417   3.997   2.299   1.846  3.7665  1.7458 -0.3573
 7668TIP3   OH244418   3.586   3.571  13.302 -0.3768 -0.1779  0.0754
 7668TIP3    H144419   3.496   3.600  13.312  0.1509  2.3942 -1.8983
 7668TIP3    H244420   3.603   3.578  13.207  2.2082  0.5692  0.5348
 7669TIP3   OH244421   4.017   4.603  16.248 -0.0110 -0.0453 -0.3553
 7669TIP3    H144422   4.032   4.688  16.207 -1.0577 -0.1040 -0.8564
 7669TIP3    H244423   4.015   4.541  16.176  1.1262 -0.5591  0.0440
 7670TIP3   OH244424   0.409   0.561  16.812  0.1858 -0.0990 -0.3356
 7670TIP3    H144425   0.400   0.490  16.875 -0.2069  2.0423  2.1347
 7670TIP3    H244426   0.501   0.589  16.820 -0.1398  0.8800  0.1231
 7671TIP3   OH244427   4.815   5.612  16.568  0.5325 -0.3146  0.4048
 7671TIP3    H144428   4.879   5.552  16.606  0.0205 -0.7593  0.5698
 7671TIP3    H244429   4.730   5.577  16.595  0.2524  0.8996  1.1341
 7672TIP3   OH244430   2.379   3.357   0.340  1.0091  0.2158  0.0412
 7672TIP3    H144431   2.389   3.336   0.433  1.0661  2.3735  0.5510
 7672TIP3    H244432   2.337   3.279   0.303  2.5084 -1.3650  1.5167
 7673TIP3   OH244433   2.229   2.687   2.608 -0.1095  0.7109  0.4562
 7673TIP3    H144434   2.140   2.670   2.578  0.5968 -0.1624 -1.2058
 7673TIP3    H244435   2.243   2.625   2.680 -0.5194  0.1713  0.0765
 7674TIP3   OH244436   2.818   1.048  14.805  0.2614 -0.7470 -0.1082
 7674TIP3    H144437   2.726   1.067  14.786  0.1848 -0.3049  0.6988
 7674TIP3    H244438   2.862   1.132  14.794  0.7106 -1.1350 -1.3293
 7675TIP3   OH244439   0.831   1.737  15.660 -0.0218  0.0919 -0.0756
 7675TIP3    H144440   0.898   1.692  15.711  0.8290  1.3960 -0.0129
 7675TIP3    H244441   0.749   1.717  15.705  0.5536  0.0761  0.9855
 7676TIP3   OH244442   0.663   2.797  12.193 -0.0986 -0.4860  0.5512
 7676TIP3    H144443   0.640   2.854  12.120  2.0382  2.3313  2.0177
 7676TIP3    H244444   0.742   2.752  12.164  1.2431  1.2725  1.4203
 7677TIP3   OH244445   5.704   5.470   5.042 -0.1156  0.1885  0.0028
 7677TIP3    H144446   5.766   5.472   5.114 -2.0703 -2.0824  1.8304
 7677TIP3    H244447   5.635   5.532   5.067 -0.3757  0.0488 -0.3568
 7678TIP3   OH244448   6.480   4.808   6.028  0.4854 -0.4549 -0.3380
 7678TIP3    H144449   6.468   4.715   6.011 -1.0060 -0.2507 -0.4890
 7678TIP3    H244450   6.555   4.812   6.087 -0.1006 -1.8348  0.5292
 7679TIP3   OH244451   6.630   1.892  11.638  0.2263  0.3377  0.0707
 7679TIP3    H144452   6.657   1.802  11.655  0.9675  0.4812 -0.3556
 7679TIP3    H244453   6.711   1.940  11.626 -0.2114  0.4632 -2.8243
 7680TIP3   OH244454   4.942   3.555  16.649  0.0924  0.4231  0.2663
 7680TIP3    H144455   5.022   3.552  16.701  1.4224 -0.7230 -1.7901
 7680TIP3    H244456   4.926   3.649  16.638  2.0036  0.6873 -0.5504
 7681TIP3   OH244457   6.563   5.932  10.415 -0.2190 -0.5120 -0.3220
 7681TIP3    H144458   6.586   5.903  10.327  0.2040 -0.9429 -0.0669
 7681TIP3    H244459   6.481   5.887  10.434 -0.0920 -0.7467 -0.3301
 7682TIP3   OH244460   2.349   2.943   0.369 -0.3863 -0.1216 -0.1728
 7682TIP3    H144461   2.357   2.857   0.409 -2.9217 -0.3163  0.0237
 7682TIP3    H244462   2.309   2.997   0.438  0.2043  0.9301 -0.6446
 7683TIP3   OH244463   5.337   0.083  14.733 -0.0620  0.4841 -0.1107
 7683TIP3    H144464   5.302   0.102  14.820  1.8950  2.5194  0.2409
 7683TIP3    H244465   5.337  -0.013  14.728 -0.0261  0.3434  2.1925
 7684TIP3   OH244466   1.013   1.553  16.050  0.1151  0.1992 -0.4609
 7684TIP3    H144467   0.927   1.583  16.078 -0.6449 -0.0354 -2.4387
 7684TIP3    H244468   1.074   1.597  16.108 -1.3853 -0.5066  1.7087
 7685TIP3   OH244469   6.180   2.435  12.977 -0.2935  0.4116 -0.1061
 7685TIP3    H144470   6.259   2.421  12.925  0.1408  0.9646  0.4031
 7685TIP3    H244471   6.154   2.525  12.958  0.1453  0.7824  1.0149
 7686TIP3   OH244472   2.901   1.003   2.196 -0.1271 -0.1946  0.0335
 7686TIP3    H144473   2.992   0.977   2.208  0.0795  0.5418  0.1136
 7686TIP3    H244474   2.902   1.099   2.202 -0.8435 -0.1526 -0.3811
 7687TIP3   OH244475   1.153   6.184  16.223 -0.6599 -0.0693 -0.4638
 7687TIP3    H144476   1.191   6.241  16.290  2.5693 -2.0455 -0.4945
 7687TIP3    H244477   1.173   6.228  16.140 -0.4089  0.0053 -0.3616
 7688TIP3   OH244478   2.372   3.404  11.352  0.1421  0.4194 -0.0879
 7688TIP3    H144479   2.403   3.315  11.368 -2.1367 -0.8801 -2.6290
 7688TIP3    H244480   2.293   3.412  11.406  0.9113  1.2900  0.9317
 7689TIP3   OH244481   2.306   0.949   2.896  0.8079  0.8105  0.1583
 7689TIP3    H144482   2.294   1.044   2.887 -0.0176  0.5497 -1.8531
 7689TIP3    H244483   2.263   0.913   2.818 -0.4593 -1.3405  1.8249
 7690TIP3   OH244484   4.823   0.013   4.183 -0.0267  0.0160 -0.0497
 7690TIP3    H144485   4.858   0.102   4.176  1.6890 -0.4754  1.7635
 7690TIP3    H244486   4.899  -0.040   4.207 -1.1065 -1.8845 -0.7941
 7691TIP3   OH244487   6.020   0.683  13.613 -0.7676  0.6278 -0.6632
 7691TIP3    H144488   5.973   0.748  13.560 -2.2940  0.1441  0.0911
 7691TIP3    H244489   5.956   0.615  13.631 -0.0527  0.4063  1.1637
 7692TIP3   OH244490   4.106   5.075   0.224 -0.1675  0.1003  0.6200
 7692TIP3    H144491   4.078   5.163   0.199 -0.4383 -0.1485  0.0558
 7692TIP3    H244492   4.129   5.032   0.142  1.3230  0.1098  1.0156
 7693TIP3   OH244493   5.926   1.374  16.237 -0.6263  0.5360  0.0036
 7693TIP3    H144494   5.908   1.393  16.329  0.8962 -0.5433  0.5347
 7693TIP3    H244495   6.018   1.349  16.235 -0.4161  1.3784 -1.9486
 7694TIP3   OH244496   5.340   4.558   1.786  0.2515 -0.2905  0.5041
 7694TIP3    H144497   5.262   4.565   1.732 -0.3470  0.0690  1.3899
 7694TIP3    H244498   5.341   4.467   1.815  0.6035 -0.4979 -0.1500
 7695TIP3   OH244499   1.983   2.318  14.271 -0.7248  0.0741 -0.2555
 7695TIP3    H144500   1.925   2.365  14.331 -1.0715  1.9710 -2.0132
 7695TIP3    H244501   2.038   2.387  14.232 -0.9532 -1.0179 -2.5932
 7696TIP3   OH244502   3.532   1.205  15.490 -0.0171 -0.6821 -0.2059
 7696TIP3    H144503   3.567   1.158  15.414  0.3441 -1.8582  0.6788
 7696TIP3    H244504   3.510   1.137  15.553  0.2896  0.3169  1.0073
 7697TIP3   OH244505   4.186   5.320   4.957 -0.4868  0.3846  0.5714
 7697TIP3    H144506   4.180   5.362   5.042  1.6300  2.8412 -0.4041
 7697TIP3    H244507   4.264   5.265   4.963 -0.5874  0.2188  0.3765
 7698TIP3   OH244508   1.326   1.705  13.479  0.2269 -0.2269 -0.3899
 7698TIP3    H144509   1.373   1.776  13.522  0.0479  0.4213 -1.2529
 7698TIP3    H244510   1.346   1.715  13.386 -1.9181  0.3243 -0.8394
 7699TIP3   OH244511   2.069   3.445   3.625 -0.4596 -0.1610 -0.7554
 7699TIP3    H144512   1.989   3.393   3.620 -0.2917 -0.7361  1.6740
 7699TIP3    H244513   2.137   3.389   3.589 -0.7187 -0.6732 -0.4560
 7700TIP3   OH244514   2.985   6.567   0.884  0.4374 -0.6700  0.1466
 7700TIP3    H144515   2.895   6.538   0.898  0.5618 -0.4648  1.5036
 7700TIP3    H244516   2.977   6.648   0.835 -0.2206  0.2162  1.6797
 7701TIP3   OH244517   5.365   4.575  12.737 -0.4164  0.1114  0.1920
 7701TIP3    H144518   5.370   4.595  12.830  0.2380 -1.7706  0.5803
 7701TIP3    H244519   5.298   4.635  12.703  1.0809  2.5428  1.3595
 7702TIP3   OH244520   1.665   4.283   4.183 -0.3083  0.1945  0.4173
 7702TIP3    H144521   1.758   4.305   4.178 -0.6016  1.3799 -0.0221
 7702TIP3    H244522   1.658   4.223   4.257  1.1892 -1.9354 -1.1042
 7703TIP3   OH244523   0.014   1.875  12.588 -0.0847 -0.1883  0.0853
 7703TIP3    H144524  -0.025   1.963  12.583 -0.8093 -0.5097  0.0568
 7703TIP3    H244525   0.054   1.862  12.503 -2.1098 -0.8672 -0.7939
 7704TIP3   OH244526   2.223   0.896  15.600  0.0098  0.1912  0.1405
 7704TIP3    H144527   2.279   0.847  15.540 -0.1059  0.7369 -0.4184
 7704TIP3    H244528   2.234   0.987  15.573  0.9047  0.5596  1.7360
 7705TIP3   OH244529   6.518   6.524  11.656 -0.0579 -0.6701 -1.2482
 7705TIP3    H144530   6.462   6.545  11.581 -0.4027  1.3456 -0.4492
 7705TIP3    H244531   6.480   6.444  11.693 -1.4905 -0.1716 -1.6119
 7706TIP3   OH244532   2.309   3.666   5.397  1.0679  0.3434  0.1298
 7706TIP3    H144533   2.278   3.659   5.307  0.1150  1.4008  0.3599
 7706TIP3    H244534   2.365   3.589   5.410  0.3381 -0.3843 -1.0153
 7707TIP3   OH244535   1.686   2.044   2.248 -0.0602 -0.1150 -0.1131
 7707TIP3    H144536   1.620   2.002   2.192  0.2861  0.8744 -1.2734
 7707TIP3    H244537   1.639   2.113   2.294 -0.6242 -1.6825  1.7781
 7708TIP3   OH244538   1.194   4.779  14.135 -0.5739 -0.4108  0.4823
 7708TIP3    H144539   1.241   4.836  14.195  0.4654  0.2180 -0.9131
 7708TIP3    H244540   1.153   4.713  14.192  0.9836 -0.2604  1.8010
 7709TIP3   OH244541   1.553   0.926  14.916  0.0408 -0.2750  0.2221
 7709TIP3    H144542   1.545   1.012  14.958 -0.5117 -1.0488  1.7206
 7709TIP3    H244543   1.462   0.896  14.906  0.1995 -0.4240 -0.8780
 7710TIP3   OH244544   6.014   2.149   2.339  0.3110 -0.3316 -0.2338
 7710TIP3    H144545   5.939   2.096   2.364  0.3294  0.9306  2.7420
 7710TIP3    H244546   6.085   2.120   2.397  1.7357 -0.5013 -2.0096
 7711TIP3   OH244547   1.283   0.002  16.621 -0.2252 -0.0247  0.1664
 7711TIP3    H144548   1.265  -0.069  16.682  1.2642 -1.2741 -0.8062
 7711TIP3    H244549   1.346   0.058  16.668  0.5195 -0.7002 -0.0253
 7712TIP3   OH244550   1.904   3.344  12.086 -0.3230 -0.2583  0.3828
 7712TIP3    H144551   1.931   3.424  12.042 -0.0508 -0.0838  0.8631
 7712TIP3    H244552   1.908   3.277  12.018 -3.8244  0.7314 -0.9104
 7713TIP3   OH244553   3.526   5.284   1.464 -0.1821 -0.3316  0.4256
 7713TIP3    H144554   3.574   5.327   1.392  0.9591 -0.2027  1.2477
 7713TIP3    H244555   3.488   5.356   1.514  0.4136 -0.3347  0.8952
 7714TIP3   OH244556   0.841   2.663  11.358 -0.2106  0.1641 -0.2499
 7714TIP3    H144557   0.836   2.576  11.397 -1.6560 -0.5503 -1.9879
 7714TIP3    H244558   0.754   2.679  11.323  0.0290  2.3472  0.0812
 7715TIP3   OH244559   6.154   5.441   3.726 -0.0083  0.8883  0.3973
 7715TIP3    H144560   6.059   5.430   3.730  0.1775 -1.8582 -1.1831
 7715TIP3    H244561   6.168   5.512   3.664 -1.0194  0.3647 -0.4512
 7716TIP3   OH244562   0.049   1.211  14.450 -0.1911  0.6262 -0.3872
 7716TIP3    H144563   0.028   1.183  14.361 -3.1921  0.8680  0.2061
 7716TIP3    H244564  -0.011   1.283  14.468  1.0949  1.2827  1.4788
 7717TIP3   OH244565   2.403   1.212  10.872  0.0304  0.1252 -0.2351
 7717TIP3    H144566   2.328   1.157  10.853  0.0642 -0.3905  1.0620
 7717TIP3    H244567   2.370   1.278  10.933  0.8187 -0.6543  1.0616
 7718TIP3   OH244568   1.456   2.467   2.318 -0.2255 -0.3016 -0.4587
 7718TIP3    H144569   1.454   2.554   2.357 -0.4801  0.1135 -1.4099
 7718TIP3    H244570   1.529   2.470   2.256 -0.3998 -0.6843 -0.6857
 7719TIP3   OH244571   2.945   5.232   3.371  0.0720 -0.8853  0.2723
 7719TIP3    H144572   2.859   5.210   3.336 -0.3648  0.6469  0.3582
 7719TIP3    H244573   2.995   5.260   3.294  0.1484 -0.7187  0.3828
 7720TIP3   OH244574   4.982   3.586   0.914 -0.2656 -0.1677 -0.2727
 7720TIP3    H144575   4.924   3.657   0.943 -0.6091 -0.9145  0.8906
 7720TIP3    H244576   5.016   3.549   0.995  1.3712 -0.1416 -0.9328
 7721TIP3   OH244577   1.831   3.899   5.399  0.1007 -0.2578  0.8971
 7721TIP3    H144578   1.814   3.851   5.480  0.0414 -1.3901  0.2299
 7721TIP3    H244579   1.926   3.892   5.386  0.0458 -0.5173  0.6135
 7722TIP3   OH244580   4.739   6.607   0.293 -0.1736 -0.3297  0.0095
 7722TIP3    H144581   4.697   6.687   0.322  1.7290  0.4685  0.6464
 7722TIP3    H244582   4.738   6.612   0.197 -0.1618  0.3896  0.0473
 7723TIP3   OH244583   5.393   0.330  12.044  0.3328  0.0602 -0.4127
 7723TIP3    H144584   5.300   0.350  12.030  0.5540 -0.2462 -2.4228
 7723TIP3    H244585   5.434   0.342  11.958  1.8668 -1.3515  0.0854
 7724TIP3   OH244586   3.260   3.694  11.669  0.0451 -0.6660 -0.3946
 7724TIP3    H144587   3.254   3.715  11.576  0.3568 -0.9601 -0.4822
 7724TIP3    H244588   3.347   3.656  11.680 -0.2588 -1.2957 -0.1229
 7725TIP3   OH244589   5.446   0.954  13.957  0.2539 -0.2073  0.7426
 7725TIP3    H144590   5.541   0.943  13.950  0.7673  2.5773  2.8040
 7725TIP3    H244591   5.417   0.964  13.866  2.1647  0.6383  0.2041
 7726TIP3   OH244592   2.632   5.817   1.662 -0.0258  0.1553  0.5987
 7726TIP3    H144593   2.559   5.756   1.668 -0.2542  0.5240  1.7464
 7726TIP3    H244594   2.683   5.801   1.741  0.6900  0.4511  0.1935
 7727TIP3   OH244595   4.739   6.645   0.609  0.0323  0.4514 -0.1959
 7727TIP3    H144596   4.657   6.598   0.623 -0.2471  0.9405 -0.2016
 7727TIP3    H244597   4.778   6.653   0.696 -1.1458  2.4661  0.1730
 7728TIP3   OH244598   2.720   5.717   2.805  0.1311  0.0863 -0.0561
 7728TIP3    H144599   2.679   5.758   2.729 -1.0681 -2.1335 -0.6388
 7728TIP3    H244600   2.649   5.666   2.846  1.3451 -0.6411  1.1857
 7729TIP3   OH244601   5.747   5.684   4.517  0.6089 -0.4022 -0.6066
 7729TIP3    H144602   5.796   5.747   4.570 -2.1732  1.5889 -0.3064
 7729TIP3    H244603   5.721   5.732   4.439  0.9019 -2.0530 -1.7624
 7730TIP3   OH244604   2.433   6.142   6.059  0.2152 -0.1477  0.4781
 7730TIP3    H144605   2.508   6.194   6.088  0.3311  0.7919 -1.4124
 7730TIP3    H244606   2.396   6.107   6.139  1.4108  1.1227  1.6207
 7731TIP3   OH244607   1.322   3.775   3.824 -0.2631 -0.1919  0.2784
 7731TIP3    H144608   1.401   3.764   3.876  0.6268 -0.1140 -1.0169
 7731TIP3    H244609   1.325   3.704   3.761 -0.6202  0.4898 -0.5253
 7732TIP3   OH244610   0.930   0.191  16.285  0.0065  0.3992 -0.5400
 7732TIP3    H144611   0.966   0.227  16.366 -0.9899 -1.8060  0.9042
 7732TIP3    H244612   0.862   0.254  16.260 -0.8681  0.2027  1.2766
 7733TIP3   OH244613   5.773   6.668   4.360  0.1577  0.3550 -0.2641
 7733TIP3    H144614   5.821   6.586   4.367 -1.2439 -0.3058  2.0809
 7733TIP3    H244615   5.681   6.642   4.361 -0.3142  2.0034  1.1396
 7734TIP3   OH244616   1.975   0.217   5.628 -0.4322 -0.4425  0.5304
 7734TIP3    H144617   1.973   0.311   5.608  0.1897 -0.5652 -0.1164
 7734TIP3    H244618   2.048   0.207   5.689 -0.7031 -0.4542  0.8498
 7735TIP3   OH244619   0.577   0.147  16.340 -0.1156  0.5522 -0.0927
 7735TIP3    H144620   0.616   0.214  16.284 -0.6610  1.1921  0.2940
 7735TIP3    H244621   0.627   0.152  16.421  0.7369 -0.4381 -0.5322
 7736TIP3   OH244622   0.900   6.607  11.611 -0.4957  0.3814 -0.2486
 7736TIP3    H144623   0.905   6.678  11.546 -1.8501  0.2627 -0.4988
 7736TIP3    H244624   0.977   6.620  11.667 -0.5896  1.8988 -0.4542
 7737TIP3   OH244625   1.765   4.053  11.062 -0.2924  0.3078  0.2180
 7737TIP3    H144626   1.748   4.145  11.040 -0.5754 -0.0277 -0.9992
 7737TIP3    H244627   1.854   4.037  11.029 -1.3261 -0.6556 -2.2818
 7738TIP3   OH244628   6.275   3.682  13.587 -0.7569 -0.5175  0.0069
 7738TIP3    H144629   6.287   3.668  13.681 -0.5982  0.2167  0.1042
 7738TIP3    H244630   6.202   3.744  13.582 -0.4247 -0.1508 -0.3313
 7739TIP3   OH244631   0.340   1.618   1.372  0.0222 -0.0458 -0.3686
 7739TIP3    H144632   0.291   1.683   1.322 -0.1951 -0.1772 -0.3297
 7739TIP3    H244633   0.304   1.623   1.460  0.4910  0.2722 -0.1950
 7740TIP3   OH244634   2.004   3.640  13.844  0.0694 -0.7542  0.0533
 7740TIP3    H144635   2.035   3.631  13.934  0.3757  0.2059  0.0433
 7740TIP3    H244636   1.911   3.662  13.853  0.3032  0.2043  0.1543
 7741TIP3   OH244637   0.840   3.642  13.902  0.4284  0.8044 -0.0531
 7741TIP3    H144638   0.793   3.684  13.974  0.9193 -0.2144  0.8938
 7741TIP3    H244639   0.901   3.709  13.871  1.9577  0.4833  2.1537
 7742TIP3   OH244640   0.499   2.945  14.225 -0.0262  0.1909  0.4876
 7742TIP3    H144641   0.529   3.032  14.199 -1.3612  0.1773 -1.1444
 7742TIP3    H244642   0.508   2.945  14.321  0.3280  1.9862  0.4790
 7743TIP3   OH244643   5.286   0.223   1.960 -0.1414  0.1330 -0.3408
 7743TIP3    H144644   5.211   0.281   1.944  0.1267  0.6045  0.1124
 7743TIP3    H244645   5.274   0.191   2.049 -0.5944 -0.9696 -0.7916
 7744TIP3   OH244646   6.613   0.834   3.404  0.2084  0.1738 -0.1599
 7744TIP3    H144647   6.580   0.910   3.453  2.9314 -0.4256  2.7611
 7744TIP3    H244648   6.642   0.772   3.471  2.3075 -1.5243 -2.5016
 7745TIP3   OH244649   5.278   0.177  13.594 -0.1383  0.0375 -0.6389
 7745TIP3    H144650   5.280   0.128  13.676 -0.2658  0.8706 -0.1394
 7745TIP3    H244651   5.370   0.195  13.575 -0.1029 -0.2284 -0.7336
 7746TIP3   OH244652   0.213   5.063   1.156 -0.4007 -0.1386  0.1850
 7746TIP3    H144653   0.289   5.085   1.102  1.5167  0.2984  2.9769
 7746TIP3    H244654   0.153   5.019   1.096  2.3237 -1.0850 -1.9380
 7747TIP3   OH244655   1.812   1.171  11.248  0.1572  0.3767  0.1512
 7747TIP3    H144656   1.862   1.116  11.188  0.0262 -0.8276  1.1350
 7747TIP3    H244657   1.720   1.157  11.223  0.0733 -0.4674  0.9001
 7748TIP3   OH244658   3.674   2.211   5.893  0.3214 -0.4282 -0.2015
 7748TIP3    H144659   3.696   2.304   5.896 -0.0528 -0.3448 -0.0184
 7748TIP3    H244660   3.649   2.189   5.983  0.1181 -0.6367 -0.3072
 7749TIP3   OH244661   4.962   5.741  15.332 -0.6435 -0.3515 -0.1451
 7749TIP3    H144662   4.867   5.748  15.343 -0.6355 -0.2879 -0.1054
 7749TIP3    H244663   4.974   5.666  15.274 -0.7603  0.2013 -0.8913
 7750TIP3   OH244664   2.725   1.332  15.210  0.5003 -0.1401 -0.4277
 7750TIP3    H144665   2.690   1.331  15.120 -1.9471  1.3570  0.4740
 7750TIP3    H244666   2.689   1.252  15.249 -1.0864  0.8461  0.1690
 7751TIP3   OH244667   2.629   5.584  16.189  0.3848  0.4127 -0.6168
 7751TIP3    H144668   2.644   5.501  16.235  0.0885  0.6408 -0.0947
 7751TIP3    H244669   2.716   5.624  16.182  0.1723  1.3784  1.7163
 7752TIP3   OH244670   2.068   1.066  13.687  0.1483 -0.3017 -0.4126
 7752TIP3    H144671   2.082   1.146  13.737  0.2373 -0.5655 -0.0125
 7752TIP3    H244672   2.155   1.027  13.679 -0.0261 -0.8257  0.1938
 7753TIP3   OH244673   5.803   2.241  12.696  0.2758  0.0033 -0.1128
 7753TIP3    H144674   5.863   2.191  12.641 -0.0819  0.5680 -1.0273
 7753TIP3    H244675   5.843   2.240  12.783  0.9545 -0.7101 -0.4346
 7754TIP3   OH244676   0.190   2.035  12.751 -0.0399  0.1216  0.4715
 7754TIP3    H144677   0.267   1.985  12.777 -1.1918 -1.3477  1.1620
 7754TIP3    H244678   0.140   1.975  12.695  0.7402  2.0750 -2.4127
 7755TIP3   OH244679   4.633   0.548   4.703  0.1975 -0.1670  0.3047
 7755TIP3    H144680   4.591   0.480   4.651  1.1218  0.4637 -1.3065
 7755TIP3    H244681   4.702   0.502   4.751 -0.3292 -0.6645  0.5889
 7756TIP3   OH244682   5.831   3.913   2.213  0.1652 -0.2202 -0.2381
 7756TIP3    H144683   5.741   3.938   2.190  0.6773  0.5309 -1.4868
 7756TIP3    H244684   5.872   3.996   2.239  1.3213 -0.0388 -2.5259
 7757TIP3   OH244685   5.623   3.885  12.719  0.3806  0.4693 -0.3770
 7757TIP3    H144686   5.648   3.899  12.627 -1.3094  2.0823 -0.6276
 7757TIP3    H244687   5.624   3.973  12.757  1.7983 -0.2799  1.3576
 7758TIP3   OH244688   4.373   4.253  14.877 -0.2970  0.2310 -0.3963
 7758TIP3    H144689   4.398   4.164  14.900 -1.5126 -0.1096 -0.3742
 7758TIP3    H244690   4.334   4.245  14.790  0.8583  0.9589 -1.0021
 7759TIP3   OH244691   0.151   2.827  12.292  0.0051  0.3743 -0.1047
 7759TIP3    H144692   0.239   2.808  12.324  0.6523  0.1201 -1.9946
 7759TIP3    H244693   0.136   2.764  12.221 -1.8574  0.1522  0.4441
 7760TIP3   OH244694   2.597   2.495  12.928  0.2201  0.7659 -0.0225
 7760TIP3    H144695   2.678   2.471  12.883  0.6010  3.0200 -0.5822
 7760TIP3    H244696   2.606   2.459  13.016  1.8212  1.0035 -0.0838
 7761TIP3   OH244697   6.512   0.422  14.473  0.2008 -0.2028  0.2251
 7761TIP3    H144698   6.581   0.442  14.536 -1.2820  0.8101  1.5982
 7761TIP3    H244699   6.519   0.328  14.458 -1.0532 -1.0049  3.9987
 7762TIP3   OH244700   4.945   5.423   2.376  0.2947  0.2051 -0.6490
 7762TIP3    H144701   4.967   5.435   2.283  0.1680 -0.5788 -0.7855
 7762TIP3    H244702   4.890   5.344   2.377  1.4872 -0.6325  0.2548
 7763TIP3   OH244703   6.146   0.448  14.323  0.5203  0.1182  0.2398
 7763TIP3    H144704   6.060   0.487  14.338  0.3587 -0.6721  1.3849
 7763TIP3    H244705   6.139   0.406  14.237 -0.0255  0.5988  0.0463
 7764TIP3   OH244706   4.916   1.547  14.977 -0.1251  0.0361  0.0295
 7764TIP3    H144707   4.927   1.605  14.902  0.2744 -0.0459  0.0197
 7764TIP3    H244708   4.870   1.600  15.042  0.7832  0.5733  0.2505
 7765TIP3   OH244709   1.369   4.731   4.921  0.0066 -0.2299 -0.2692
 7765TIP3    H144710   1.413   4.646   4.930 -0.6648 -0.5355  0.1840
 7765TIP3    H244711   1.301   4.729   4.988  2.8015  2.4851  2.8130
 7766TIP3   OH244712   4.316   6.103   4.156  0.0762  0.5008  0.2359
 7766TIP3    H144713   4.300   6.192   4.187 -2.2599  0.0753  0.3407
 7766TIP3    H244714   4.347   6.056   4.233 -1.1025  0.6266  0.8060
 7767TIP3   OH244715   5.106   2.973   2.822  0.1621  0.1998  0.4902
 7767TIP3    H144716   5.166   2.902   2.844  1.3783  0.9110 -0.4514
 7767TIP3    H244717   5.081   3.010   2.907 -0.7002 -1.5089  0.9962
 7768TIP3   OH244718   1.529   6.676  16.516  0.1724  0.2636  0.1543
 7768TIP3    H144719   1.439   6.709  16.509  0.2577  0.2977 -0.9046
 7768TIP3    H244720   1.520   6.581  16.512  0.1333  0.2443  0.6799
 7769TIP3   OH244721   0.751   2.649  10.867  0.2536 -0.0196 -0.5155
 7769TIP3    H144722   0.816   2.603  10.920 -0.8995  0.8067  1.6444
 7769TIP3    H244723   0.667   2.625  10.905 -0.4813  2.0531 -0.7801
 7770TIP3   OH244724   0.669   1.868   1.616 -0.1457 -0.0012  0.4712
 7770TIP3    H144725   0.632   1.848   1.702  0.7224 -1.7117  0.4727
 7770TIP3    H244726   0.764   1.870   1.631  0.0077 -0.2571 -0.4252
 7771TIP3   OH244727   5.734   6.007   1.027  0.3625  0.1047 -0.1961
 7771TIP3    H144728   5.706   6.018   0.936 -0.5252 -2.1882 -0.2336
 7771TIP3    H244729   5.809   5.948   1.022 -0.1486 -0.6216  0.6047
 7772TIP3   OH244730   4.525   6.422  14.229 -0.1069  0.9017 -0.1342
 7772TIP3    H144731   4.442   6.374  14.231  0.8135 -0.9497 -2.7742
 7772TIP3    H244732   4.564   6.407  14.315 -0.3833 -2.2166 -0.4955
 7773TIP3   OH244733   3.621   4.770  12.637 -0.1890  0.6432  0.4457
 7773TIP3    H144734   3.531   4.801  12.637 -0.1439  0.8665 -1.9038
 7773TIP3    H244735   3.657   4.799  12.721 -1.8902  1.7621  0.7991
 7774TIP3   OH244736   3.661   6.128  11.778  0.2981  0.3715  0.2621
 7774TIP3    H144737   3.718   6.189  11.731 -0.9440  0.5364 -1.0610
 7774TIP3    H244738   3.608   6.087  11.709 -1.5357  0.5876  1.5029
 7775TIP3   OH244739   0.499   2.456   2.416 -0.1112  0.9751  0.2614
 7775TIP3    H144740   0.552   2.430   2.491 -1.6430  0.3801  1.1521
 7775TIP3    H244741   0.438   2.383   2.403  0.7898  0.6237 -2.1905
 7776TIP3   OH244742   1.767   4.416   1.489 -0.1274  0.5270  0.0153
 7776TIP3    H144743   1.727   4.499   1.465 -0.0762  0.2897 -0.9254
 7776TIP3    H244744   1.814   4.388   1.410 -1.4266 -1.1414 -0.2071
 7777TIP3   OH244745   4.131   2.001  16.036  0.1610 -0.4105  0.4730
 7777TIP3    H144746   4.075   1.944  15.984 -0.1031  1.2874 -1.1395
 7777TIP3    H244747   4.106   2.090  16.011  2.2205  0.3960  1.1631
 7778TIP3   OH244748   6.375   5.108  15.092  0.1791  0.2457  0.6204
 7778TIP3    H144749   6.296   5.158  15.109 -0.4971 -0.8095  0.6199
 7778TIP3    H244750   6.446   5.160  15.131 -0.4140  1.5448 -0.0172
 7779TIP3   OH244751   6.201   1.544  13.255  0.4195 -0.1030  0.0810
 7779TIP3    H144752   6.138   1.615  13.245 -1.0724 -0.8232  3.6007
 7779TIP3    H244753   6.156   1.467  13.221  0.0058 -0.3156  1.0969
 7780TIP3   OH244754   5.514   5.890   4.573 -0.0234 -0.1732 -0.3674
 7780TIP3    H144755   5.559   5.893   4.488  1.7034  0.1589  0.5561
 7780TIP3    H244756   5.560   5.823   4.623  0.9624  1.7953  1.4321
 7781TIP3   OH244757   4.399   6.646   5.485  0.6846 -0.1665 -0.1664
 7781TIP3    H144758   4.494   6.654   5.477  0.5012  2.0371 -0.2449
 7781TIP3    H244759   4.372   6.721   5.538 -1.1641 -0.0388 -1.2258
 7782TIP3   OH244760   2.955   2.937  14.056  0.3380  0.0185  0.3075
 7782TIP3    H144761   2.868   2.912  14.024  0.8037 -0.0777 -0.9288
 7782TIP3    H244762   2.939   3.009  14.117 -0.5679  0.3835 -0.3503
 7783TIP3   OH244763   4.181   3.127   5.814  0.3810 -0.0214 -0.4179
 7783TIP3    H144764   4.215   3.048   5.772 -1.4075 -1.1688  0.2654
 7783TIP3    H244765   4.095   3.102   5.847  0.8836  1.4246  2.1551
 7784TIP3   OH244766   0.158   2.523   2.371 -0.0585  0.1939 -0.3650
 7784TIP3    H144767   0.213   2.449   2.346 -0.1002  0.6815 -1.9964
 7784TIP3    H244768   0.132   2.505   2.461 -0.7618 -2.2286 -1.0030
 7785TIP3   OH244769   6.576   2.728  14.289 -0.0170 -0.4861 -0.1820
 7785TIP3    H144770   6.648   2.675  14.256 -0.0045 -0.1656 -0.6789
 7785TIP3    H244771   6.617   2.791  14.348  0.0433 -0.6392 -0.0604
 7786TIP3   OH244772   3.371   2.359   2.546  0.1898  0.4292 -0.1305
 7786TIP3    H144773   3.317   2.435   2.525  0.7755  0.6143 -1.0266
 7786TIP3    H244774   3.321   2.310   2.611 -0.9681  0.6895 -0.8188
 7787TIP3   OH244775   3.122   0.003   2.178 -0.0150 -0.2964  0.5196
 7787TIP3    H144776   3.035  -0.037   2.172  0.0711 -0.4467  0.2903
 7787TIP3    H244777   3.167  -0.024   2.098  0.0794  0.1672  0.4130
 7788TIP3   OH244778   6.358   3.796  16.927  0.5657  0.4057  0.0178
 7788TIP3    H144779   6.367   3.745  16.846 -1.3594  1.4689 -0.8993
 7788TIP3    H244780   6.316   3.736  16.988 -0.2552  0.3865 -0.5615
 7789TIP3   OH244781   1.742   2.171  14.804  0.1277 -0.1143 -0.3015
 7789TIP3    H144782   1.679   2.241  14.821 -0.2370  0.0950 -2.4178
 7789TIP3    H244783   1.825   2.205  14.838 -0.3839  0.6327  0.2207
 7790TIP3   OH244784   2.469   1.817  12.532 -0.6099 -0.0723 -0.1401
 7790TIP3    H144785   2.540   1.813  12.468 -1.6790  1.2721 -1.4592
 7790TIP3    H244786   2.408   1.882  12.496 -1.2388  0.7197  2.2495
 7791TIP3   OH244787   4.412   3.870   3.490 -0.3314 -0.4588  0.1902
 7791TIP3    H144788   4.379   3.788   3.454 -0.2199 -0.6450  0.5165
 7791TIP3    H244789   4.505   3.854   3.505 -0.3341 -0.3103  0.3650
 7792TIP3   OH244790   4.523   3.522   4.923 -0.2528  0.5020  0.3026
 7792TIP3    H144791   4.608   3.506   4.883 -0.7462  0.1696 -0.6562
 7792TIP3    H244792   4.540   3.580   4.997  1.1452 -1.7139  1.7598
 7793TIP3   OH244793   4.730   0.385  16.981 -0.1617  0.5439  0.3625
 7793TIP3    H144794   4.782   0.362  17.058  0.7972 -0.0579 -0.4282
 7793TIP3    H244795   4.699   0.301  16.948 -0.4011  0.7754 -0.0022
 7794TIP3   OH244796   6.747   3.787  15.089 -0.1244 -0.4194  0.0474
 7794TIP3    H144797   6.694   3.866  15.092  0.1705 -0.1835 -0.6746
 7794TIP3    H244798   6.718   3.734  15.163 -0.6264  0.1738  0.2688
 7795TIP3   OH244799   6.573   3.390  15.878 -0.0746  0.0100  0.5742
 7795TIP3    H144800   6.518   3.463  15.849  1.1699  1.2296  1.2363
 7795TIP3    H244801   6.616   3.422  15.957 -1.1284 -2.2231  2.0797
 7796TIP3   OH244802   2.720   5.765  12.439  0.3228 -0.6390 -0.6498
 7796TIP3    H144803   2.774   5.738  12.513 -0.4800 -0.4646  0.0032
 7796TIP3    H244804   2.680   5.684  12.407  0.0211 -0.5989 -0.3743
 7797TIP3   OH244805   1.890   0.657   4.761 -0.0397 -0.5661 -0.1534
 7797TIP3    H144806   1.889   0.650   4.665 -0.1643 -1.1441 -0.1157
 7797TIP3    H244807   1.855   0.573   4.790  0.0291 -0.3993  0.4019
 7798TIP3   OH244808   1.226   0.916   1.490 -0.2934 -0.2290  0.4451
 7798TIP3    H144809   1.161   0.904   1.560 -0.9077 -1.7371 -0.3684
 7798TIP3    H244810   1.216   1.008   1.465 -0.2342  0.2702  2.1524
 7799TIP3   OH244811   2.692   4.403  15.347 -0.1245  1.1572 -0.0770
 7799TIP3    H144812   2.773   4.436  15.308 -0.1698  1.2850 -0.0649
 7799TIP3    H244813   2.649   4.481  15.383 -0.7219  1.2401 -0.9334
 7800TIP3   OH244814   6.735   1.759   5.881 -0.6938  0.4284 -0.0242
 7800TIP3    H144815   6.796   1.726   5.815  0.5394  0.1562  1.2376
 7800TIP3    H244816   6.678   1.819   5.833  2.0967  2.5670 -0.7500
 7801TIP3   OH244817   5.829   0.331  14.106 -0.0737 -0.2397  0.0101
 7801TIP3    H144818   5.774   0.323  14.185  0.4558 -1.1687  0.2920
 7801TIP3    H244819   5.767   0.323  14.033 -0.4191 -0.5604  0.3311
 7802TIP3   OH244820   4.434   1.712   4.731 -0.6121 -0.0735 -0.6176
 7802TIP3    H144821   4.425   1.804   4.707 -0.0450 -0.0181 -0.6106
 7802TIP3    H244822   4.496   1.712   4.804 -2.2710 -0.2454  0.8345
 7803TIP3   OH244823   1.218   6.184   1.752  0.1683 -0.1272 -0.2886
 7803TIP3    H144824   1.308   6.152   1.745  0.1868  0.1738 -1.4303
 7803TIP3    H244825   1.222   6.273   1.717  0.3466  1.5836  3.8029
 7804TIP3   OH244826   5.916   3.952   0.480 -0.2497  0.1950 -0.3851
 7804TIP3    H144827   5.871   3.938   0.563 -0.9922 -1.7020 -1.0894
 7804TIP3    H244828   5.991   4.007   0.503  0.7390 -1.9865  1.9503
 7805TIP3   OH244829   4.204   5.911  14.633  0.2881 -0.3090 -0.0569
 7805TIP3    H144830   4.234   5.823  14.612  1.4690  0.4220 -1.5828
 7805TIP3    H244831   4.227   5.924  14.725 -0.0484 -1.6372  0.2239
 7806TIP3   OH244832   2.608   3.940   2.583  0.0714 -0.0528  0.8832
 7806TIP3    H144833   2.577   3.998   2.652  1.1952  0.1524  1.2237
 7806TIP3    H244834   2.668   3.994   2.531  1.4434 -1.0007  1.4439
 7807TIP3   OH244835   4.645   5.552  11.182  0.2837 -0.3420  0.2089
 7807TIP3    H144836   4.608   5.529  11.097 -1.1329 -1.2089  1.0391
 7807TIP3    H244837   4.664   5.467  11.223 -0.9363  0.0097  1.5537
 7808TIP3   OH244838   3.020   2.140   0.467  0.6695 -0.7200  0.2299
 7808TIP3    H144839   3.043   2.075   0.534 -4.2718 -1.0621  1.7675
 7808TIP3    H244840   2.999   2.087   0.390 -1.7660 -0.9211  0.9939
 7809TIP3   OH244841   1.488   3.511   6.312 -0.2911 -0.2167 -0.5427
 7809TIP3    H144842   1.582   3.528   6.305 -0.2330 -0.2669  0.0993
 7809TIP3    H244843   1.470   3.449   6.242 -0.1114  0.9023 -1.5989
 7810TIP3   OH244844   6.244   3.923   5.809  0.2409 -0.4446  0.9462
 7810TIP3    H144845   6.192   3.943   5.887 -1.2252 -0.4222 -0.0099
 7810TIP3    H244846   6.331   3.959   5.828 -0.5198  0.9342  1.9483
 7811TIP3   OH244847   4.351   0.809  15.880  0.5590 -0.0187  0.5834
 7811TIP3    H144848   4.423   0.854  15.837 -1.1838  0.9780 -1.3824
 7811TIP3    H244849   4.353   0.841  15.970  0.8788  2.1239 -0.1574
 7812TIP3   OH244850   6.506   4.001   0.766  0.0648 -0.0716 -0.0500
 7812TIP3    H144851   6.477   4.079   0.814  0.7247 -0.1939  0.5435
 7812TIP3    H244852   6.529   4.035   0.679 -2.6298 -0.1009 -0.8172
 7813TIP3   OH244853   1.866   5.238   1.379  0.1517  0.4980 -0.1928
 7813TIP3    H144854   1.922   5.260   1.453 -1.3296  0.8103  0.8532
 7813TIP3    H244855   1.791   5.298   1.386 -1.0774 -0.9414 -0.6751
 7814TIP3   OH244856   6.255   0.187   0.117 -0.3352 -0.0872 -0.2827
 7814TIP3    H144857   6.174   0.209   0.073  0.0593 -0.8437 -1.4071
 7814TIP3    H244858   6.323   0.204   0.052  0.3488 -0.1038  0.4189
 7815TIP3   OH244859   6.625   4.960  14.806 -0.4433  0.7273  0.2707
 7815TIP3    H144860   6.705   4.937  14.853  0.2595 -0.8692 -1.6383
 7815TIP3    H244861   6.652   5.031  14.747 -0.4892  0.3490 -0.2044
 7816TIP3   OH244862   4.948   5.244   1.838  0.3366  0.7277 -0.6026
 7816TIP3    H144863   5.007   5.257   1.912 -1.6141  2.6325  0.6622
 7816TIP3    H244864   4.906   5.159   1.855  0.4061  0.8365  0.0929
 7817TIP3   OH244865   6.398   6.208   0.971 -0.3878  0.5882  0.4846
 7817TIP3    H144866   6.465   6.270   0.940 -0.8505  1.0735  0.4464
 7817TIP3    H244867   6.408   6.208   1.066  1.7649 -1.7282  0.3177
 7818TIP3   OH244868   3.089   1.294  12.925 -0.1332  0.7228 -0.6560
 7818TIP3    H144869   3.112   1.328  13.011 -1.3930 -1.6198  0.6798
 7818TIP3    H244870   3.006   1.247  12.939 -0.4653  0.4590 -3.1799
 7819TIP3   OH244871   6.662   6.062   5.526  0.1687  0.2110 -0.2268
 7819TIP3    H144872   6.726   5.992   5.534 -2.3168 -1.9815  1.3404
 7819TIP3    H244873   6.636   6.081   5.616 -1.6094  0.8004 -0.8347
 7820TIP3   OH244874   1.989   2.636   2.475 -0.1621  0.4356  0.0408
 7820TIP3    H144875   1.934   2.708   2.442 -0.3681  0.6006  0.7288
 7820TIP3    H244876   1.978   2.566   2.410  0.9263  1.4120 -1.2358
 7821TIP3   OH244877   4.298   1.736  14.482 -0.2359  0.1451  0.1043
 7821TIP3    H144878   4.293   1.642  14.498 -0.6096  0.3087  1.0162
 7821TIP3    H244879   4.285   1.775  14.569  0.1375  1.0273 -0.2321
 7822TIP3   OH244880   2.802   6.539  11.834  0.6958 -0.0312  0.0552
 7822TIP3    H144881   2.749   6.508  11.907  1.4526  0.1734  0.6951
 7822TIP3    H244882   2.887   6.496  11.846 -0.4644 -3.4758 -3.1442
 7823TIP3   OH244883   2.896   6.196   0.770 -0.4690  0.6978 -0.2667
 7823TIP3    H144884   2.907   6.103   0.748 -2.4670 -0.4881  3.2553
 7823TIP3    H244885   2.977   6.220   0.814 -0.9095 -0.0904  0.9865
 7824TIP3   OH244886   1.486   2.072  14.223 -0.3391 -0.4212  0.4655
 7824TIP3    H144887   1.421   2.120  14.172  0.7378 -0.0089 -0.5318
 7824TIP3    H244888   1.567   2.120  14.209  1.0292 -3.2001 -1.5407
 7825TIP3   OH244889   1.314   2.382   5.052  0.2715 -0.9450  0.5102
 7825TIP3    H144890   1.336   2.323   5.124  0.2910 -1.3941  0.1355
 7825TIP3    H244891   1.343   2.468   5.083 -0.4196 -1.0044  1.3570
 7826TIP3   OH244892   2.844   4.643  15.241  0.3210  0.0384  0.6174
 7826TIP3    H144893   2.912   4.594  15.195  0.6188 -0.2556  1.3664
 7826TIP3    H244894   2.791   4.682  15.171 -0.5264 -2.1702 -0.0171
 7827TIP3   OH244895   5.905   1.971  11.596 -0.4171  0.2577  0.2726
 7827TIP3    H144896   5.837   1.932  11.541  0.4233 -2.1061  0.8205
 7827TIP3    H244897   5.984   1.968  11.541  0.0986 -0.7649  1.0378
 7828TIP3   OH244898   5.996   5.571   4.392  0.1211  0.0201 -0.2436
 7828TIP3    H144899   5.901   5.573   4.389  0.1585  1.2831 -0.6376
 7828TIP3    H244900   6.022   5.660   4.417  1.2096 -0.1544 -0.7264
 7829TIP3   OH244901   1.773   4.412   2.198 -0.0056  1.0721 -0.4043
 7829TIP3    H144902   1.700   4.422   2.260  2.1118  0.5513  2.2994
 7829TIP3    H244903   1.763   4.323   2.164 -0.9316  1.1929 -0.4620
 7830TIP3   OH244904   2.703   1.968  12.652 -0.0478  0.2709 -0.1820
 7830TIP3    H144905   2.619   1.934  12.621 -0.7598  1.4364  0.4170
 7830TIP3    H244906   2.680   2.051  12.696  1.6098  1.3945 -1.4029
 7831TIP3   OH244907   5.757   5.113   3.249  0.5101  0.2255 -0.2496
 7831TIP3    H144908   5.815   5.093   3.322 -1.4328  1.2970  1.6401
 7831TIP3    H244909   5.706   5.188   3.278 -1.7305 -0.6044 -1.8892
 7832TIP3   OH244910   1.325   1.582   3.284  0.5978  0.1210 -0.0798
 7832TIP3    H144911   1.262   1.559   3.353  1.9521 -0.6019  0.9631
 7832TIP3    H244912   1.357   1.498   3.253 -1.6445  0.3556 -3.2368
 7833TIP3   OH244913   6.757   2.750   2.357  0.7722  0.6097 -0.5216
 7833TIP3    H144914   6.688   2.714   2.301 -0.7199  2.9377 -0.2656
 7833TIP3    H244915   6.794   2.674   2.402  0.3162 -1.0047 -2.7916
 7834TIP3   OH244916   5.010   3.619   3.217  0.0391  0.6980  0.1780
 7834TIP3    H144917   5.105   3.625   3.225  0.1644  1.2905 -1.5395
 7834TIP3    H244918   4.988   3.530   3.245  1.3228 -0.1214 -1.3671
 7835TIP3   OH244919   4.301   5.716  11.005  0.5072  0.7890 -0.3912
 7835TIP3    H144920   4.225   5.682  11.052  0.6477 -0.2998 -0.9499
 7835TIP3    H244921   4.306   5.808  11.032  0.4999  0.2229  1.6377
 7836TIP3   OH244922   5.198   3.164  11.372 -0.5129  0.0238 -0.4457
 7836TIP3    H144923   5.187   3.152  11.277 -0.3471 -2.0748 -0.2244
 7836TIP3    H244924   5.280   3.120  11.393 -1.1073 -0.4933  0.8512
 7837TIP3   OH244925   2.092   5.861   2.553 -0.3618 -0.6830 -0.2166
 7837TIP3    H144926   2.100   5.913   2.474 -1.5566 -1.0383 -0.5844
 7837TIP3    H244927   2.093   5.924   2.624 -3.2987  0.0150 -0.7295
 7838TIP3   OH244928   6.619   3.789  16.349 -0.2456  0.1485  0.2034
 7838TIP3    H144929   6.524   3.782  16.342 -0.3332  1.0316  0.4044
 7838TIP3    H244930   6.652   3.744  16.271 -0.9247  2.2184 -1.3115
 7839TIP3   OH244931   2.483   1.673   4.610  0.2174 -0.0580 -0.2868
 7839TIP3    H144932   2.517   1.586   4.630  1.4076  0.2780 -0.7627
 7839TIP3    H244933   2.516   1.729   4.681  0.3161  0.1927 -0.5273
 7840TIP3   OH244934   0.399   2.534  12.275  0.0158 -0.1987 -0.5775
 7840TIP3    H144935   0.337   2.467  12.246  1.4701 -3.3429  3.0914
 7840TIP3    H244936   0.484   2.503  12.244  0.6288  0.2479  0.6098
 7841TIP3   OH244937   5.424   0.892   2.077 -0.8111  0.2567  0.3469
 7841TIP3    H144938   5.410   0.975   2.121  1.1701  0.4705  0.6502
 7841TIP3    H244939   5.454   0.833   2.146 -1.4760 -0.4943 -0.0047
 7842TIP3   OH244940   4.163   6.558   0.940 -0.2357 -0.0634 -0.0085
 7842TIP3    H144941   4.225   6.575   1.010  0.2788  1.7684 -0.8757
 7842TIP3    H244942   4.080   6.542   0.984  0.5777 -1.2819  1.1002
 7843TIP3   OH244943   6.105   3.217  16.361  0.6802  0.1801  0.2258
 7843TIP3    H144944   6.135   3.224  16.451  0.9757  0.9870  0.0772
 7843TIP3    H244945   6.011   3.200  16.368  0.7714 -0.1405  0.6874
 7844TIP3   OH244946   0.941   4.712   1.466  0.3760 -0.2193  0.2853
 7844TIP3    H144947   0.870   4.673   1.517  3.2177 -1.3772  3.5350
 7844TIP3    H244948   0.993   4.638   1.437  0.9336  0.6838 -1.0636
 7845TIP3   OH244949   1.449   0.670  14.413  0.1961 -0.2794 -0.2524
 7845TIP3    H144950   1.378   0.723  14.449 -0.3750  0.0166 -1.7596
 7845TIP3    H244951   1.508   0.655  14.487 -1.0764  0.0611  0.8541
 7846TIP3   OH244952   1.838   1.671  11.587 -0.3331 -0.4499 -0.2500
 7846TIP3    H144953   1.781   1.727  11.640 -0.0244  0.0294 -0.4298
 7846TIP3    H244954   1.917   1.722  11.574  0.8332 -1.7474  1.4075
 7847TIP3   OH244955   3.680   4.621   0.216 -0.5117  0.5583 -0.1385
 7847TIP3    H144956   3.770   4.595   0.200 -0.8558 -1.8035  1.3887
 7847TIP3    H244957   3.632   4.538   0.218 -2.3989  1.6468  0.8831
 7848TIP3   OH244958   3.599   4.009   0.124 -0.0126 -0.3341  0.7983
 7848TIP3    H144959   3.689   4.011   0.155  0.4286 -0.8226 -0.4221
 7848TIP3    H244960   3.606   3.988   0.031 -1.2285  2.4222  0.0132
 7849TIP3   OH244961   3.880   4.398  11.920 -0.4128 -0.0224 -0.4570
 7849TIP3    H144962   3.858   4.312  11.956  1.7006 -0.5346 -0.3045
 7849TIP3    H244963   3.937   4.438  11.986 -0.0164  0.7884 -1.2760
 7850TIP3   OH244964   3.916   6.158   3.900 -0.0527 -0.5065  0.1991
 7850TIP3    H144965   3.859   6.081   3.903  0.6756 -1.0261  0.8198
 7850TIP3    H244966   3.892   6.209   3.977 -1.8420  0.8369 -1.2170
 7851TIP3   OH244967   4.937   2.133   5.815  0.3818  0.2367 -0.7462
 7851TIP3    H144968   4.949   2.047   5.775  0.8722 -0.3160  0.5565
 7851TIP3    H244969   4.924   2.192   5.741 -1.7172 -1.2164 -1.6003
 7852TIP3   OH244970   3.606   1.437   3.430 -0.2243 -0.0658  0.5081
 7852TIP3    H144971   3.583   1.345   3.418 -0.7891  0.3120 -1.4653
 7852TIP3    H244972   3.620   1.446   3.524 -0.5411 -2.0776  0.7710
 7853TIP3   OH244973   3.191   1.741  11.654 -0.0048  0.4235 -0.2238
 7853TIP3    H144974   3.245   1.703  11.723 -0.7685  1.0727  0.7384
 7853TIP3    H244975   3.101   1.720  11.679 -0.2488 -0.0906 -1.4789
 7854TIP3   OH244976   0.809   2.834   1.952 -0.0003  0.8251  0.0851
 7854TIP3    H144977   0.842   2.754   1.992 -0.0278  1.0692  0.5971
 7854TIP3    H244978   0.885   2.893   1.951 -0.2896  1.2152  0.8113
 7855TIP3   OH244979   3.016   0.253  11.711  0.0450 -0.1439  0.4805
 7855TIP3    H144980   3.015   0.320  11.779  1.0651  0.9917 -0.6164
 7855TIP3    H244981   2.926   0.250  11.679  0.2146  1.4032 -0.1467
 7856TIP3   OH244982   5.573   1.444   3.847 -0.4040  0.2159 -0.2106
 7856TIP3    H144983   5.667   1.434   3.829 -0.4553 -0.3912 -0.1632
 7856TIP3    H244984   5.569   1.473   3.938 -0.3050 -1.2091  0.2682
 7857TIP3   OH244985   3.581   4.850   4.737 -0.6915  0.4380  0.5624
 7857TIP3    H144986   3.677   4.843   4.741 -0.5476  0.3830 -1.9203
 7857TIP3    H244987   3.553   4.845   4.828  1.6119 -0.4409  1.2760
 7858TIP3   OH244988   6.124   5.231   2.808 -0.2949 -0.0434 -0.1671
 7858TIP3    H144989   6.121   5.315   2.764  2.1274  0.2152  0.0898
 7858TIP3    H244990   6.079   5.245   2.891 -1.6049  0.4443 -0.9393
 7859TIP3   OH244991   5.811   0.422  15.089  0.1628 -0.0144  0.5767
 7859TIP3    H144992   5.789   0.329  15.087 -1.1517  0.2897 -0.0233
 7859TIP3    H244993   5.901   0.425  15.120  0.3054 -1.5050  0.3492
 7860TIP3   OH244994   6.195   2.354   3.802 -0.2415 -0.2151 -0.8496
 7860TIP3    H144995   6.210   2.435   3.753  2.0392  1.1369  1.9157
 7860TIP3    H244996   6.122   2.375   3.860 -1.2780 -0.9850 -1.8556
 7861TIP3   OH244997   3.346   5.110  13.105  0.0796  0.6035 -0.1712
 7861TIP3    H144998   3.381   5.023  13.121 -0.9503 -0.1745 -1.9629
 7861TIP3    H244999   3.423   5.165  13.089  0.6604 -0.2865 -0.4407
 7862TIP3   OH245000   5.862   6.253   0.449 -0.2771 -0.1292  0.6358
 7862TIP3    H145001   5.946   6.219   0.419  0.5653  1.4837  1.1238
 7862TIP3    H245002   5.884   6.315   0.518 -1.7261  1.8717 -0.6507
 7863TIP3   OH245003   3.808   0.203  16.617  0.0541  0.4589 -0.0115
 7863TIP3    H145004   3.840   0.175  16.703 -0.6895  3.0912  1.1820
 7863TIP3    H245005   3.877   0.259  16.582 -0.1719  0.3701 -0.6111
 7864TIP3   OH245006   4.910   0.964  12.137 -0.9118  0.3633  0.6159
 7864TIP3    H145007   4.948   0.914  12.064 -1.1752 -0.5772  1.1080
 7864TIP3    H245008   4.948   1.051  12.129  0.8379 -0.3712  0.6890
 7865TIP3   OH245009   3.848   3.607   3.909 -0.0020  0.8641  0.3480
 7865TIP3    H145010   3.822   3.515   3.904  0.7765  0.7004 -0.9123
 7865TIP3    H245011   3.822   3.635   3.997  0.8613 -0.8771  1.1631
 7866TIP3   OH245012   6.420   4.202   0.298  0.2994  0.1159 -0.0640
 7866TIP3    H145013   6.384   4.249   0.373 -0.9692  2.6368 -2.1676
 7866TIP3    H245014   6.485   4.262   0.261  1.7649 -1.5882 -0.3149
 7867TIP3   OH245015   5.977   3.697   0.386 -0.2339 -0.1697  0.1715
 7867TIP3    H145016   6.051   3.716   0.444  0.1583 -0.7915 -0.1231
 7867TIP3    H245017   5.941   3.783   0.365  0.2438  0.1218  0.5344
 7868TIP3   OH245018   1.992   3.277  12.349 -0.0406 -0.0965  0.1014
 7868TIP3    H145019   1.972   3.327  12.270 -2.3061  0.1962  0.8134
 7868TIP3    H245020   1.962   3.188  12.330 -1.8244  0.2587  1.0398
 7869TIP3   OH245021   6.374   6.441  17.202  0.6661  0.4204 -0.1165
 7869TIP3    H145022   6.403   6.400  17.283  0.3867  0.6797  0.1137
 7869TIP3    H245023   6.404   6.532  17.208  0.0410  0.6218  0.0040
 7870TIP3   OH245024   1.681   1.500   1.914 -0.2089 -0.3557 -0.7337
 7870TIP3    H145025   1.589   1.479   1.898 -0.0642 -0.0757 -2.0257
 7870TIP3    H245026   1.686   1.595   1.900 -0.3335  0.1501  2.4035
 7871TIP3   OH245027   1.724   1.672  10.743 -0.2843  0.9990 -0.0686
 7871TIP3    H145028   1.769   1.726  10.808 -0.1599 -1.5118  2.0292
 7871TIP3    H245029   1.792   1.613  10.710 -1.1171 -0.0983  0.1322
 7872TIP3   OH245030   2.459   6.491  11.902 -1.3307  0.0292 -0.0503
 7872TIP3    H145031   2.434   6.569  11.952  1.8159  1.7028 -0.9226
 7872TIP3    H245032   2.434   6.511  11.812 -1.5747 -0.4661 -0.0932
 7873TIP3   OH245033   3.222   1.738   3.380  0.4066  0.3653  0.4201
 7873TIP3    H145034   3.307   1.745   3.425  0.0724  0.3656  1.0519
 7873TIP3    H245035   3.232   1.662   3.323  0.8290  0.3516  0.5086
 7874TIP3   OH245036   0.819   6.188  14.897 -0.9329 -0.6979  0.0036
 7874TIP3    H145037   0.779   6.103  14.915 -2.1659 -0.8879 -3.2449
 7874TIP3    H245038   0.745   6.244  14.872  0.1797  0.5227 -0.6040
 7875TIP3   OH245039   1.261   4.743  16.279  0.3287  0.3023  0.2896
 7875TIP3    H145040   1.279   4.651  16.300  1.2486  0.6161  0.8927
 7875TIP3    H245041   1.244   4.784  16.363  0.1973  0.7481  0.0458
 7876TIP3   OH245042   6.675   6.653  11.834  0.2160 -0.0865  0.2385
 7876TIP3    H145043   6.627   6.612  11.762 -0.6950 -0.3527  0.9864
 7876TIP3    H245044   6.659   6.596  11.909 -0.6216  1.3219  1.1602
 7877TIP3   OH245045   1.269   3.120   5.608  0.0268 -0.1061 -0.1292
 7877TIP3    H145046   1.277   3.169   5.526  3.3114 -1.3434 -0.6232
 7877TIP3    H245047   1.254   3.030   5.581 -3.6517  0.1589  0.7536
 7878TIP3   OH245048   3.266   2.566  16.917  0.7023  0.2118  0.0521
 7878TIP3    H145049   3.191   2.579  16.859 -0.7141 -0.4998  1.6863
 7878TIP3    H245050   3.328   2.516  16.864 -1.6516 -2.7711 -0.0580
 7879TIP3   OH245051   5.264   5.066  16.587 -0.5466 -0.6074  0.4685
 7879TIP3    H145052   5.213   4.985  16.585 -2.8930  0.7961  1.3120
 7879TIP3    H245053   5.209   5.130  16.541  1.4320  0.4316 -0.5009
 7880TIP3   OH245054   5.771   2.763  12.725 -0.0831  0.3052 -0.2082
 7880TIP3    H145055   5.682   2.773  12.689 -0.3310  0.6660  0.4916
 7880TIP3    H245056   5.803   2.682  12.686 -1.0983 -0.3449  0.2884
 7881TIP3   OH245057   4.795   5.436  12.816 -0.0420  0.5069 -0.0070
 7881TIP3    H145058   4.854   5.422  12.890 -2.0452 -2.5753  1.0843
 7881TIP3    H245059   4.762   5.525  12.827  1.7189  1.0106  1.2886
 7882TIP3   OH245060   5.756   2.666   5.160  0.1735  0.4403 -0.4537
 7882TIP3    H145061   5.725   2.629   5.077 -3.0193  2.7334 -0.3891
 7882TIP3    H245062   5.742   2.596   5.224 -0.9310 -0.0308 -1.1904
 7883TIP3   OH245063   3.260   2.027   5.693 -0.0684  0.0402 -0.8326
 7883TIP3    H145064   3.295   1.988   5.773 -0.9375 -1.0777 -0.9761
 7883TIP3    H245065   3.285   2.119   5.698 -0.1838  0.0071  0.7707
 7884TIP3   OH245066   1.805   0.199  11.156  0.1895  0.0193 -1.1553
 7884TIP3    H145067   1.829   0.107  11.167  0.2551 -0.1131 -2.3361
 7884TIP3    H245068   1.803   0.235  11.245 -1.5538 -1.5481 -0.5408
 7885TIP3   OH245069   5.912   2.973   4.268 -0.6473  0.0170  0.2844
 7885TIP3    H145070   5.858   3.005   4.196 -0.9362 -1.2837 -0.0742
 7885TIP3    H245071   5.936   2.884   4.243  0.5728  0.1215  1.0579
 7886TIP3   OH245072   4.828   1.903   0.019  0.4800 -0.5383  0.4301
 7886TIP3    H145073   4.890   1.927   0.088 -0.0279 -2.6640  1.6668
 7886TIP3    H245074   4.751   1.870   0.066  0.4044 -2.7123 -1.1440
 7887TIP3   OH245075   2.713   6.071  13.281  0.6069  0.0106 -0.1942
 7887TIP3    H145076   2.716   5.986  13.326  1.2114 -0.1095 -0.4584
 7887TIP3    H245077   2.671   6.130  13.345 -0.5235 -0.6533 -0.3037
 7888TIP3   OH245078   2.340   2.133   3.449  0.1915 -0.3254  0.2996
 7888TIP3    H145079   2.271   2.067   3.457  0.5563 -0.9609 -1.5957
 7888TIP3    H245080   2.332   2.167   3.360  0.6831  1.4589  0.9073
 7889TIP3   OH245081   3.419   2.386   1.312  0.0615  0.2911  0.1356
 7889TIP3    H145082   3.483   2.450   1.279  0.8268  0.6603  2.2828
 7889TIP3    H245083   3.367   2.435   1.375 -0.4884 -0.7677  0.4995
 7890TIP3   OH245084   6.551   4.732   0.399 -0.7103 -0.1068  0.1445
 7890TIP3    H145085   6.534   4.822   0.427 -1.1954 -0.3675  0.7205
 7890TIP3    H245086   6.581   4.739   0.309 -1.3828  0.5874 -0.0312
 7891TIP3   OH245087   6.408   1.700  11.517 -0.0623  0.5014 -0.0496
 7891TIP3    H145088   6.388   1.610  11.489 -0.3309  0.6477 -0.3240
 7891TIP3    H245089   6.503   1.700  11.530 -0.1581 -0.0329  0.6899
 7892TIP3   OH245090   3.267   3.820  15.336  0.2356 -0.6122 -0.2157
 7892TIP3    H145091   3.236   3.768  15.410 -1.8037  0.2449 -0.4407
 7892TIP3    H245092   3.347   3.776  15.308 -1.1480 -3.3434 -0.0575
 7893TIP3   OH245093   6.621   1.490   3.291  0.1409 -0.0321  0.3385
 7893TIP3    H145094   6.672   1.498   3.372  2.6804  1.1544 -1.2914
 7893TIP3    H245095   6.630   1.575   3.249 -3.5239  0.3003  0.1067
 7894TIP3   OH245096   1.931   5.496   4.762  0.2171 -0.1826 -0.4395
 7894TIP3    H145097   2.017   5.459   4.742  0.4745  0.1041  0.1167
 7894TIP3    H245098   1.947   5.553   4.838 -0.7989 -1.5286  0.8071
 7895TIP3   OH245099   1.427   3.789   5.365  0.0948  0.3675 -0.6128
 7895TIP3    H145100   1.435   3.875   5.406 -0.3000  1.8888 -3.5816
 7895TIP3    H245101   1.350   3.749   5.406 -1.1762  2.4571 -0.9102
 7896TIP3   OH245102   1.546   6.040   4.069  0.4361  0.2777 -0.2047
 7896TIP3    H145103   1.487   6.010   4.000  0.0952  1.1446 -0.3068
 7896TIP3    H245104   1.490   6.047   4.147 -0.0717  2.9092 -0.7363
 7897TIP3   OH245105   3.791   5.450  13.974 -0.1852 -0.0602 -0.1636
 7897TIP3    H145106   3.747   5.378  13.928  0.7364 -1.2473  0.7718
 7897TIP3    H245107   3.723   5.516  13.986 -1.2826 -1.1629 -0.2092
 7898TIP3   OH245108   1.207   1.918   3.783 -0.0211 -0.3794 -0.2096
 7898TIP3    H145109   1.263   1.968   3.724 -1.6681 -0.6401 -2.0354
 7898TIP3    H245110   1.138   1.883   3.727 -3.5600  2.1009  2.3610
 7899TIP3   OH245111   2.139   0.649  12.672  0.2658  0.0400 -0.2949
 7899TIP3    H145112   2.209   0.594  12.706 -1.1287 -1.0743  0.8064
 7899TIP3    H245113   2.141   0.635  12.578  0.9843 -0.5977 -0.1896
 7900TIP3   OH245114   5.092   4.658  11.385  0.1730 -0.8569  0.2387
 7900TIP3    H145115   5.125   4.583  11.334 -1.2475 -0.4674 -1.3118
 7900TIP3    H245116   5.049   4.713  11.320 -1.6827 -0.3287  1.8742
 7901TIP3   OH245117   1.294   2.658   6.103 -0.1472 -0.2162  0.0143
 7901TIP3    H145118   1.245   2.698   6.175 -3.7208  0.8879 -2.8482
 7901TIP3    H245119   1.285   2.564   6.116 -0.2146 -0.0279  1.3484
 7902TIP3   OH245120   1.320   2.600  11.351 -1.0860  0.4382  0.0075
 7902TIP3    H145121   1.360   2.581  11.266  0.1921 -0.3703  0.7761
 7902TIP3    H245122   1.237   2.553  11.349  0.1860 -1.8916  0.2590
 7903TIP3   OH245123   0.020   0.548   3.370 -0.8799  0.7734 -0.2380
 7903TIP3    H145124   0.026   0.588   3.457 -1.1571 -0.7476  0.4900
 7903TIP3    H245125   0.108   0.558   3.333  0.4025 -2.1613  1.8391
 7904TIP3   OH245126   3.941   1.617  11.301  0.4755  0.7729 -0.1274
 7904TIP3    H145127   3.960   1.650  11.213  0.2877  0.3693 -0.3205
 7904TIP3    H245128   3.943   1.522  11.292 -0.5757  0.7273  0.0866
 7905TIP3   OH245129   6.303   6.248  14.285  0.2395 -0.0158 -0.3774
 7905TIP3    H145130   6.227   6.192  14.270 -0.5975  0.3547  2.2234
 7905TIP3    H245131   6.266   6.335  14.304  1.1584 -0.2121  2.6408
 7906TIP3   OH245132   1.669   0.539   1.068 -0.6934  0.3968 -0.0882
 7906TIP3    H145133   1.731   0.470   1.091 -0.5965  0.6734  0.4841
 7906TIP3    H245134   1.642   0.517   0.979 -1.0636 -0.6704  0.2806
 7907TIP3   OH245135   3.758   2.583  16.801  0.2145 -0.0950  0.1126
 7907TIP3    H145136   3.786   2.555  16.714  1.2139 -1.0942  0.7459
 7907TIP3    H245137   3.789   2.673  16.808  2.1110 -0.7351  0.2679
 7908TIP3   OH245138   1.427   0.690  12.735 -0.3172  0.4864  0.1992
 7908TIP3    H145139   1.481   0.646  12.801  1.5348 -0.9833 -2.2441
 7908TIP3    H245140   1.454   0.652  12.652 -3.4969  1.4247 -1.3309
 7909TIP3   OH245141   0.065   3.896  11.824 -0.7828 -0.1938 -0.1962
 7909TIP3    H145142   0.022   3.843  11.891 -2.3368  1.0680 -0.1600
 7909TIP3    H245143   0.013   3.882  11.745 -1.2529  1.3077 -0.1657
 7910TIP3   OH245144   5.948   0.130   2.997 -0.4743 -0.0183 -0.1286
 7910TIP3    H145145   5.934   0.036   2.984 -1.5232 -0.1610  1.8007
 7910TIP3    H245146   5.979   0.138   3.087  0.9899  1.3716 -0.7336
 7911TIP3   OH245147   1.067   3.156  14.525  0.1703  0.8345 -0.1437
 7911TIP3    H145148   0.983   3.198  14.510  0.2214  0.8112 -0.4936
 7911TIP3    H245149   1.126   3.226  14.553 -0.2622  0.6673  1.2581
 7912TIP3   OH245150   0.488   5.804   5.365 -0.2771 -0.2509 -0.1136
 7912TIP3    H145151   0.549   5.737   5.334 -1.0249 -1.0495  0.1206
 7912TIP3    H245152   0.438   5.761   5.434 -1.6276  0.1448 -0.8287
 7913TIP3   OH245153   1.630   3.614   0.152  0.0283 -0.3032  0.2185
 7913TIP3    H145154   1.669   3.648   0.071 -1.2605 -1.1804 -0.7885
 7913TIP3    H245155   1.543   3.652   0.155 -0.5967 -1.6940  0.2474
 7914TIP3   OH245156   3.875   6.546   0.734 -0.2743  0.3216 -0.0213
 7914TIP3    H145157   3.882   6.525   0.827  1.4498 -0.5171 -0.3132
 7914TIP3    H245158   3.843   6.637   0.732 -1.1758  0.0403  1.3618
 7915TIP3   OH245159   0.401   5.595  12.912 -0.3585 -0.1606 -0.1060
 7915TIP3    H145160   0.441   5.631  12.832  0.5638 -0.1243  0.3607
 7915TIP3    H245161   0.367   5.672  12.958  1.4261  0.1305  0.7862
 7916TIP3   OH245162   0.902   5.784  15.255 -0.5892 -0.0591 -0.0154
 7916TIP3    H145163   0.827   5.766  15.198 -1.3264 -2.3361  1.6165
 7916TIP3    H245164   0.878   5.746  15.340  1.0999  1.9867  1.4222
 7917TIP3   OH245165   2.589   1.243  14.698 -0.6200  0.2303  0.3459
 7917TIP3    H145166   2.637   1.261  14.617  0.6893  1.1510  1.3088
 7917TIP3    H245167   2.498   1.236  14.671 -0.3290  1.6319 -1.0690
 7918TIP3   OH245168   6.385   3.932   5.386  0.0645  0.1045 -0.1938
 7918TIP3    H145169   6.394   4.020   5.350  1.7560  0.2855  0.6060
 7918TIP3    H245170   6.456   3.883   5.346  0.9536 -0.1125  1.6064
 7919TIP3   OH245171   3.632   4.169   1.282  0.0441  0.0477 -0.2742
 7919TIP3    H145172   3.600   4.259   1.271 -3.0491 -0.7092  1.7307
 7919TIP3    H245173   3.593   4.121   1.209 -1.9084 -0.4736  1.0608
 7920TIP3   OH245174   1.885   6.399  12.451 -0.2514 -0.4950  0.4208
 7920TIP3    H145175   1.966   6.362  12.488  0.7150  1.6188  0.4802
 7920TIP3    H245176   1.828   6.412  12.527 -0.6352 -1.9054  0.3902
 7921TIP3   OH245177   4.582   5.550  16.728  0.5152 -0.1206  0.0657
 7921TIP3    H145178   4.512   5.600  16.771  0.1406 -0.4240 -0.1857
 7921TIP3    H245179   4.628   5.507  16.800 -0.6435 -1.3104  0.1206
 7922TIP3   OH245180   2.710   3.546   3.654  0.6011  0.2380  0.0390
 7922TIP3    H145181   2.662   3.485   3.710  0.4350  2.7512  2.7300
 7922TIP3    H245182   2.750   3.491   3.587 -4.7114 -2.1653 -1.4113
 7923TIP3   OH245183   5.109   2.704   4.985 -0.3059  0.1961  0.1158
 7923TIP3    H145184   5.161   2.665   4.914 -1.8705 -1.4121 -0.1863
 7923TIP3    H245185   5.171   2.718   5.056  0.9541  0.2448 -0.9836
 7924TIP3   OH245186   6.489   6.573   2.714  0.0785 -0.4210 -0.2659
 7924TIP3    H145187   6.557   6.601   2.776  1.4153 -1.5758 -1.1760
 7924TIP3    H245188   6.537   6.543   2.638 -1.5160 -0.3224 -1.3331
 7925TIP3   OH245189   5.808   5.754   4.920  0.3136  0.1989 -0.0283
 7925TIP3    H145190   5.840   5.670   4.954 -0.4150  0.8050  2.2271
 7925TIP3    H245191   5.725   5.732   4.878 -0.3531 -0.0848  1.4029
 7926TIP3   OH245192   2.420   6.352  10.416 -0.1627 -0.6817  0.1450
 7926TIP3    H145193   2.333   6.385  10.394  0.7860  1.2200 -0.8777
 7926TIP3    H245194   2.444   6.296  10.342  0.9695  1.7622 -1.4312
 7927TIP3   OH245195   1.439   6.780   0.308 -0.2592 -0.0177  0.3889
 7927TIP3    H145196   1.478   6.818   0.229 -2.0934  0.5171 -0.2840
 7927TIP3    H245197   1.407   6.855   0.358 -1.1491 -0.4831  0.5346
 7928TIP3   OH245198   3.315   1.952  12.379 -0.1506 -0.3013  0.0023
 7928TIP3    H145199   3.305   1.915  12.467 -0.5826  0.7094  0.3794
 7928TIP3    H245200   3.352   1.880  12.327 -1.2595 -1.3578  0.6552
 7929TIP3   OH245201   3.050   3.877  11.489 -0.5107  0.0997 -0.1411
 7929TIP3    H145202   3.044   3.875  11.584 -0.5591  1.3504 -0.1079
 7929TIP3    H245203   3.106   3.802  11.467  0.9920  0.8571  1.0115
 7930TIP3   OH245204   3.789   0.256  14.626 -0.2480  0.1190  0.0051
 7930TIP3    H145205   3.699   0.288  14.626  0.0645  1.0142  0.4758
 7930TIP3    H245206   3.820   0.269  14.715  1.1874  2.2461 -0.7650
 7931TIP3   OH245207   4.636   1.218  10.868 -0.0211  0.0190 -0.2879
 7931TIP3    H145208   4.679   1.284  10.814  0.2442 -0.1383 -0.2700
 7931TIP3    H245209   4.595   1.158  10.805  3.0777 -2.0498 -0.4298
 7932TIP3   OH245210   6.350   3.409  13.846 -0.1412 -0.4063  0.4177
 7932TIP3    H145211   6.441   3.381  13.848 -0.6821 -2.3273 -0.8655
 7932TIP3    H245212   6.354   3.502  13.824  1.4997 -0.4129  0.6131
 7933TIP3   OH245213   3.578   2.234  16.646 -0.0533  0.1766  0.2308
 7933TIP3    H145214   3.665   2.195  16.652  1.1282  2.5506 -0.7476
 7933TIP3    H245215   3.560   2.238  16.552 -0.5855  1.0139  0.3620
 7934TIP3   OH245216   5.454   2.478  15.239  0.9538 -0.3224  0.3325
 7934TIP3    H145217   5.409   2.473  15.323  1.3738  1.8791  0.7322
 7934TIP3    H245218   5.423   2.402  15.189 -1.9797  0.2788  1.1802
 7935TIP3   OH245219   5.700   5.437  14.493 -0.2072  0.0729 -0.7714
 7935TIP3    H145220   5.690   5.476  14.580  1.8895  0.8093 -0.8193
 7935TIP3    H245221   5.641   5.362  14.493 -2.2173  1.6020  0.3309
 7936TIP3   OH245222   5.989   4.544  16.557 -0.1980 -0.7894 -0.1149
 7936TIP3    H145223   5.914   4.602  16.545  0.4160  0.3762  1.5160
 7936TIP3    H245224   6.062   4.590  16.515  0.0706 -0.8694  0.2572
 7937TIP3   OH245225   0.988   4.750  15.984 -0.3118 -0.0600 -0.1237
 7937TIP3    H145226   0.937   4.718  16.058 -1.8921 -0.0574 -1.1852
 7937TIP3    H245227   0.970   4.844  15.981 -0.0366 -0.0113 -0.3456
 7938TIP3   OH245228   3.170   6.126   5.934  0.1378  0.0228 -0.3434
 7938TIP3    H145229   3.140   6.125   6.025  2.1470 -0.0551  0.3394
 7938TIP3    H245230   3.260   6.158   5.938  0.2247  0.1056 -2.3195
 7939TIP3   OH245231   0.517   6.662  16.302  0.2629 -0.1537 -0.3693
 7939TIP3    H145232   0.503   6.644  16.395 -0.2653 -0.2695 -0.4685
 7939TIP3    H245233   0.529   6.757  16.299  1.8743 -0.3363  0.0094
 7940TIP3   OH245234   4.987   2.625   6.334  0.4296 -0.2417 -0.1765
 7940TIP3    H145235   4.914   2.644   6.392  0.0396  0.9221 -1.0158
 7940TIP3    H245236   5.064   2.629   6.391 -0.2302 -2.4830  0.9078
 7941TIP3   OH245237   5.293   4.881  16.257 -0.1986  0.3032  0.5200
 7941TIP3    H145238   5.210   4.919  16.227 -1.1148 -0.6114  1.8908
 7941TIP3    H245239   5.347   4.957  16.280 -0.7933  0.8843  0.0160
 7942TIP3   OH245240   0.648   1.449   3.843  0.1213 -0.6898  0.0006
 7942TIP3    H145241   0.714   1.512   3.816 -2.3313  0.5623 -3.4642
 7942TIP3    H245242   0.587   1.499   3.897  0.4521 -1.1372  0.7946
 7943TIP3   OH245243   2.338   0.168   3.398 -0.1040 -0.0871  0.1477
 7943TIP3    H145244   2.277   0.182   3.470 -1.7966 -1.1161 -1.0680
 7943TIP3    H245245   2.366   0.077   3.407  0.6687  0.1510  0.2348
 7944TIP3   OH245246   0.271   6.549   4.300  0.4148 -1.0121 -0.0154
 7944TIP3    H145247   0.242   6.640   4.297 -0.6804 -1.3398  0.3905
 7944TIP3    H245248   0.328   6.540   4.223  0.2906 -0.0680 -0.2282
 7945TIP3   OH245249   2.623   3.255  14.185 -0.3091  0.6252 -0.7568
 7945TIP3    H145250   2.676   3.324  14.224 -0.9911  0.8408 -0.1901
 7945TIP3    H245251   2.685   3.185  14.166  0.1594  0.8264  0.0018
 7946TIP3   OH245252   2.451   4.629  15.167  0.0296  0.2794 -0.1977
 7946TIP3    H145253   2.392   4.562  15.133  0.0094 -0.6413  1.5867
 7946TIP3    H245254   2.445   4.621  15.262  4.1164 -0.8326  0.0728
 7947TIP3   OH245255   1.020   0.807   2.559  0.3696 -0.3312  0.0804
 7947TIP3    H145256   0.997   0.895   2.529  0.5563 -0.2487  0.1766
 7947TIP3    H245257   1.002   0.807   2.653  0.0301 -0.5092  0.0178
 7948TIP3   OH245258   5.963   4.876  15.736  0.0436 -0.3448  0.1397
 7948TIP3    H145259   5.930   4.876  15.646 -1.9000  0.7624  0.8279
 7948TIP3    H245260   5.962   4.969  15.762 -1.6436 -0.8784  2.0877
 7949TIP3   OH245261   0.451   4.234  11.290  0.4978 -0.5361 -0.1527
 7949TIP3    H145262   0.528   4.250  11.346  0.6492 -0.2596 -0.4405
 7949TIP3    H245263   0.396   4.175  11.342  0.3531  0.2000  0.5418
 7950TIP3   OH245264   1.776   1.712  17.005 -0.2515 -0.8619 -0.3185
 7950TIP3    H145265   1.723   1.791  17.007  1.0425  0.0362 -1.0984
 7950TIP3    H245266   1.732   1.652  17.066 -0.5469  0.8909  1.2210
 7951TIP3   OH245267   2.146   0.113  13.084  0.0148 -0.3079 -0.4632
 7951TIP3    H145268   2.204   0.049  13.044 -1.1182 -1.9121  0.4315
 7951TIP3    H245269   2.133   0.082  13.173  0.3643  1.7954  0.3512
 7952TIP3   OH245270   1.495   2.586   1.147  0.1507 -0.2235 -0.2021
 7952TIP3    H145271   1.413   2.549   1.181  0.6000  0.7791  2.0941
 7952TIP3    H245272   1.563   2.525   1.178  0.2446 -1.4200 -2.6745
 7953TIP3   OH245273   6.206   1.889   5.450 -0.2818 -0.4993  0.3543
 7953TIP3    H145274   6.147   1.819   5.423 -0.7827 -0.0157  0.1818
 7953TIP3    H245275   6.238   1.862   5.536 -1.4186 -0.3594  0.8339
 7954TIP3   OH245276   1.627   1.889   3.014 -0.1574  0.5174  0.8165
 7954TIP3    H145277   1.675   1.881   3.097  0.4608 -1.2945  0.3144
 7954TIP3    H245278   1.549   1.836   3.027  0.8669 -1.3530 -0.3870
 7955TIP3   OH245279   0.352   6.490   1.166 -0.0469  0.3493 -0.0894
 7955TIP3    H145280   0.273   6.495   1.221  0.6276  0.1176  0.9104
 7955TIP3    H245281   0.403   6.567   1.189  1.4712 -1.0894  1.5611
 7956TIP3   OH245282   2.986   0.606  17.198  0.2706  0.3839 -0.1651
 7956TIP3    H145283   2.903   0.594  17.243  0.0083 -0.2921 -0.8358
 7956TIP3    H245284   3.047   0.630  17.268 -0.2807 -0.0126  0.4607
 7957TIP3   OH245285   2.792   4.422   0.941 -0.2903  0.4180 -0.5571
 7957TIP3    H145286   2.770   4.370   0.864 -0.7864 -1.8480  1.0567
 7957TIP3    H245287   2.882   4.451   0.926 -0.3747 -0.0243 -1.9698
 7958TIP3   OH245288   5.923   1.209  15.931 -0.0437  0.3863  0.4326
 7958TIP3    H145289   5.857   1.167  15.875  0.4189 -0.6882  0.6806
 7958TIP3    H245290   5.957   1.138  15.985  0.5796  1.1385  1.0346
 7959TIP3   OH245291   1.112   1.649  14.509  0.0817  0.0001  0.2905
 7959TIP3    H145292   1.145   1.724  14.458 -2.5070  0.3915 -0.8877
 7959TIP3    H245293   1.092   1.686  14.595  1.5813 -0.0123  0.6707
 7960TIP3   OH245294   1.421   0.409  13.762  0.2094 -0.3852  0.7728
 7960TIP3    H145295   1.430   0.453  13.677 -1.0093  2.1706  1.9293
 7960TIP3    H245296   1.333   0.431  13.791 -0.1507 -2.9764  1.7892
 7961TIP3   OH245297   4.514   4.186  15.341 -0.0431  0.4218  0.4680
 7961TIP3    H145298   4.573   4.174  15.267  1.4116 -1.3264  1.8490
 7961TIP3    H245299   4.538   4.271  15.378  0.1299  0.6941 -0.2731
 7962TIP3   OH245300   1.851   5.659   2.955 -0.2655  0.1303 -0.4010
 7962TIP3    H145301   1.906   5.667   2.877  0.1119  0.1309 -0.1413
 7962TIP3    H245302   1.904   5.608   3.016 -0.5163  0.2132 -0.1105
 7963TIP3   OH245303   5.614   3.691  14.149  0.3494  0.4229  0.0431
 7963TIP3    H145304   5.599   3.744  14.070 -1.1101  0.5859  0.4218
 7963TIP3    H245305   5.633   3.603  14.115  3.8672  1.3775 -0.6281
 7964TIP3   OH245306   5.025   5.025   3.585  0.8740  0.2181  0.4909
 7964TIP3    H145307   4.962   5.069   3.527  1.2945  0.7327  0.4154
 7964TIP3    H245308   4.974   5.001   3.662  0.5460  0.4742  0.3563
 7965TIP3   OH245309   6.375   0.481  16.468  0.6951  0.4249  0.6009
 7965TIP3    H145310   6.402   0.488  16.559 -0.4032 -0.5146  1.0032
 7965TIP3    H245311   6.330   0.563  16.449  0.8513  0.5843  0.9182
 7966TIP3   OH245312   1.218   6.475   4.942  0.2673 -0.7696 -0.4395
 7966TIP3    H145313   1.212   6.457   4.848  0.7173 -0.9449 -0.4344
 7966TIP3    H245314   1.290   6.421   4.973 -0.0632 -0.9297  0.0655
 7967TIP3   OH245315   6.220   3.964   0.791  0.0360  0.3621  0.5287
 7967TIP3    H145316   6.308   3.941   0.760 -0.1417 -0.1762  0.4172
 7967TIP3    H245317   6.231   3.980   0.885  0.1883 -0.0729  0.5881
 7968TIP3   OH245318   0.130   1.640  15.869 -0.2947 -0.4588 -0.3886
 7968TIP3    H145319   0.044   1.668  15.899 -0.9753  1.7962 -4.0730
 7968TIP3    H245320   0.114   1.559  15.821  0.0953 -1.5132  1.2124
 7969TIP3   OH245321   5.492   4.012   3.355  0.1182  0.1762 -0.1150
 7969TIP3    H145322   5.537   3.972   3.429 -0.2235  1.3713  0.7514
 7969TIP3    H245323   5.400   3.989   3.368  0.2815 -1.1866 -1.1977
 7970TIP3   OH245324   1.465   0.824   3.396 -0.4649  0.3390  0.2140
 7970TIP3    H145325   1.526   0.859   3.460 -1.2110  0.6772  0.7491
 7970TIP3    H245326   1.440   0.738   3.431 -2.2278  1.2612  1.2984
 7971TIP3   OH245327   1.697   3.406  10.875  0.0640 -0.2347 -0.4694
 7971TIP3    H145328   1.779   3.359  10.887  0.8645  0.6104 -2.3180
 7971TIP3    H245329   1.674   3.392  10.783 -1.6438 -0.0869 -0.0953
 7972TIP3   OH245330   5.990   4.384  15.128  0.1644 -0.0715  0.0262
 7972TIP3    H145331   5.900   4.393  15.159  0.2103  0.3073  0.0495
 7972TIP3    H245332   5.993   4.298  15.087 -0.7417  0.7606 -1.8080
 7973TIP3   OH245333   1.750   2.751   0.633 -0.2615  0.2546 -0.4451
 7973TIP3    H145334   1.726   2.842   0.655 -0.1233  0.2924 -0.4506
 7973TIP3    H245335   1.674   2.699   0.661 -0.1653  0.3252 -0.0512
 7974TIP3   OH245336   5.863   3.839   5.440  0.2470 -0.6314  0.3844
 7974TIP3    H145337   5.828   3.760   5.481 -1.6204  0.0629  0.1817
 7974TIP3    H245338   5.814   3.911   5.481  0.2892  0.2621 -1.0859
 7975TIP3   OH245339   3.485   6.044   2.247 -0.5363 -0.2306  0.4513
 7975TIP3    H145340   3.475   5.981   2.319 -1.3450 -1.0216 -0.3471
 7975TIP3    H245341   3.511   6.125   2.291 -1.9266 -0.4479  1.7472
 7976TIP3   OH245342   6.127   3.502   4.387 -0.3982 -0.2947  0.3815
 7976TIP3    H145343   6.090   3.523   4.301 -1.5793 -0.7535  0.7768
 7976TIP3    H245344   6.182   3.577   4.408 -0.4516  0.0246 -0.5788
 7977TIP3   OH245345   2.475   3.894  13.294  0.2814 -0.0029 -0.2242
 7977TIP3    H145346   2.499   3.853  13.377 -3.7691 -1.4205  0.3651
 7977TIP3    H245347   2.511   3.836  13.227 -0.0957 -1.1847  0.5808
 7978TIP3   OH245348   5.825   3.973   4.604  0.0975 -0.6851  0.4615
 7978TIP3    H145349   5.735   3.966   4.636 -0.8447 -1.5772 -2.2270
 7978TIP3    H245350   5.853   3.883   4.590  1.1180 -0.3824  0.5081
 7979TIP3   OH245351   0.965   2.212  11.544  0.5047 -0.1562 -0.7934
 7979TIP3    H145352   0.961   2.215  11.640  0.7478  0.4867 -0.8038
 7979TIP3    H245353   1.021   2.137  11.525 -1.5440 -1.8338 -0.4775
 7980TIP3   OH245354   5.785   0.267   0.993 -0.2556 -0.2344  0.1142
 7980TIP3    H145355   5.843   0.285   0.919  0.0590 -1.2411  0.1136
 7980TIP3    H245356   5.841   0.272   1.070 -0.3606 -0.2698  0.1946
 7981TIP3   OH245357   2.109   5.064  16.657 -0.1818  0.1971 -0.5527
 7981TIP3    H145358   2.143   5.011  16.584 -1.9966  0.4232 -1.5931
 7981TIP3    H245359   2.188   5.097  16.701  1.0232 -2.7895 -0.2771
 7982TIP3   OH245360   6.475   0.168   3.002  0.2133 -0.1495 -0.1394
 7982TIP3    H145361   6.446   0.076   2.999 -0.1979 -0.1661  3.1260
 7982TIP3    H245362   6.394   0.218   3.007  0.5044  0.2266  0.9344
 7983TIP3   OH245363   6.155   4.143  12.394  0.0606  0.2330 -0.1503
 7983TIP3    H145364   6.238   4.098  12.408  0.1317  0.5386  0.4399
 7983TIP3    H245365   6.169   4.230  12.432 -1.5632 -0.7226  2.8511
 7984TIP3   OH245366   4.246   3.871   5.053  0.3048 -0.2045  0.0635
 7984TIP3    H145367   4.245   3.817   5.133 -1.3811 -1.7064 -0.9153
 7984TIP3    H245368   4.168   3.926   5.061  0.8328  0.5545  0.0322
 7985TIP3   OH245369   2.992   6.042  11.238 -0.2293  0.0030  0.4637
 7985TIP3    H145370   2.920   5.989  11.271 -1.9471  2.7978  1.3917
 7985TIP3    H245371   3.050   6.054  11.313  0.3545 -0.8539  0.1559
 7986TIP3   OH245372   5.116   5.138  13.173 -0.2838 -0.6640 -0.1229
 7986TIP3    H145373   5.021   5.134  13.172 -0.3065 -0.7381 -2.5897
 7986TIP3    H245374   5.144   5.058  13.129  0.9054 -0.5102  0.3350
 7987TIP3   OH245375   0.185   1.856  14.366  0.1525  0.0962 -0.3232
 7987TIP3    H145376   0.171   1.943  14.329 -0.6112 -0.2313 -0.8196
 7987TIP3    H245377   0.265   1.825  14.325  0.7287  0.7843  0.2698
 7988TIP3   OH245378   5.270   5.868  14.763  0.1799  0.1954  0.5397
 7988TIP3    H145379   5.258   5.774  14.757  1.1480  0.0198  1.2526
 7988TIP3    H245380   5.197   5.905  14.713 -1.6242 -0.8839  2.3106
 7989TIP3   OH245381   0.280   0.019  17.082 -0.5463 -0.7611 -0.8807
 7989TIP3    H145382   0.291  -0.043  17.154  1.9130 -1.5165 -1.8914
 7989TIP3    H245383   0.292   0.105  17.122  0.6907 -1.1745 -0.3579
 7990TIP3   OH245384   3.061   4.602  12.662  0.1511 -0.1231 -0.1134
 7990TIP3    H145385   3.062   4.559  12.748  1.5827 -0.1104 -0.1163
 7990TIP3    H245386   2.969   4.625  12.648  0.3170  2.5579  2.7288
 7991TIP3   OH245387   0.444   0.082  14.771 -0.1153  0.0862  0.0726
 7991TIP3    H145388   0.387   0.008  14.748  1.4598 -1.4455  0.9244
 7991TIP3    H245389   0.433   0.144  14.699 -0.7730 -1.4046 -1.1399
 7992TIP3   OH245390   1.727   3.184  11.804 -0.1817  0.0886  1.2316
 7992TIP3    H145391   1.733   3.148  11.892 -0.5629 -0.9387  0.8428
 7992TIP3    H245392   1.814   3.170  11.766 -0.6133 -1.3306  0.7414
 7993TIP3   OH245393   4.766   6.072   1.877 -0.1487  0.2032  0.4334
 7993TIP3    H145394   4.719   6.046   1.798 -1.0301  0.5262  0.8447
 7993TIP3    H245395   4.762   6.168   1.876 -0.9967  0.1808  1.3689
 7994TIP3   OH245396   1.058   5.631   1.673  0.3453 -0.8345  0.2805
 7994TIP3    H145397   1.076   5.721   1.699 -0.6808 -0.7146  0.6017
 7994TIP3    H245398   1.081   5.579   1.750  1.8165 -0.9446 -0.2218
 7995TIP3   OH245399   4.835   0.574   1.981  0.1786  0.2284 -0.4331
 7995TIP3    H145400   4.832   0.509   1.910  1.5291 -1.2056  0.7842
 7995TIP3    H245401   4.926   0.602   1.984  0.2290 -0.0400  1.0004
 7996TIP3   OH245402   0.813   5.970   5.626  0.3833  0.1775  0.0781
 7996TIP3    H145403   0.756   6.047   5.629 -2.3349 -1.7249 -0.6751
 7996TIP3    H245404   0.878   5.991   5.559 -0.2938  1.8568 -0.0805
 7997TIP3   OH245405   3.835   6.402  10.875  0.1545  0.1997  0.0152
 7997TIP3    H145406   3.896   6.370  10.941  0.8852 -0.6095 -1.0290
 7997TIP3    H245407   3.869   6.367  10.793 -0.1827  2.0096 -0.9085
 7998TIP3   OH245408   1.249   3.946   1.794  0.5155 -0.2903 -0.0630
 7998TIP3    H145409   1.288   3.895   1.723 -2.0341 -1.6834 -0.5236
 7998TIP3    H245410   1.276   3.900   1.874  1.7957  0.1633 -0.2280
 7999TIP3   OH245411   1.011   1.988   1.903 -0.4803 -0.2555 -0.0964
 7999TIP3    H145412   1.036   2.075   1.934 -4.9599  1.5578 -1.2146
 7999TIP3    H245413   0.949   1.956   1.968 -1.0509 -1.4135 -1.1770
 8000TIP3   OH245414   1.468   4.630  11.739  0.4065 -0.0642  0.1823
 8000TIP3    H145415   1.518   4.554  11.709 -1.4629 -0.6873 -1.4704
 8000TIP3    H245416   1.383   4.595  11.766 -0.0041  1.2624  0.6916
 8001TIP3   OH245417   4.235   1.381   0.279  0.4145  0.3280 -0.1916
 8001TIP3    H145418   4.319   1.344   0.306  0.2815 -0.8005 -1.3121
 8001TIP3    H245419   4.252   1.475   0.272  1.6135  0.0944 -0.5008
 8002TIP3   OH245420   4.821   0.745  13.493  0.5213  0.0100  0.2701
 8002TIP3    H145421   4.913   0.734  13.466  0.7443  0.0685  0.9818
 8002TIP3    H245422   4.790   0.820  13.442  0.5694 -0.6184 -0.7020
 8003TIP3   OH245423   0.139   5.851  14.365  0.0340 -0.1938  0.2738
 8003TIP3    H145424   0.207   5.831  14.429 -0.2905  1.0865  1.0143
 8003TIP3    H245425   0.128   5.946  14.369 -3.0112 -0.5375  1.4136
 8004TIP3   OH245426   3.225   6.091  10.519  0.3944  0.3931 -0.2859
 8004TIP3    H145427   3.234   6.075  10.613 -1.1599  1.0591 -0.0123
 8004TIP3    H245428   3.269   6.174  10.504 -1.8454  1.7518  0.3905
 8005TIP3   OH245429   3.390   4.295  13.325 -0.7096 -0.1942 -0.3796
 8005TIP3    H145430   3.363   4.342  13.404  0.7409  1.4662 -0.8333
 8005TIP3    H245431   3.481   4.319  13.313  0.5050 -4.2262  0.0756
 8006TIP3   OH245432   0.817   0.073  14.770  0.3443  0.6042 -0.1585
 8006TIP3    H145433   0.766   0.097  14.693 -0.9263 -1.5251 -0.0277
 8006TIP3    H245434   0.752   0.062  14.839  1.1601 -0.4343  0.4579
 8007TIP3   OH245435   2.681   5.956  12.645 -0.1715 -0.1337 -0.6129
 8007TIP3    H145436   2.636   6.038  12.629  0.8365  0.2617 -1.4572
 8007TIP3    H245437   2.689   5.915  12.559 -1.0099 -1.3017 -0.1559
 8008TIP3   OH245438   0.981   5.246  13.332  0.0817 -0.5916  0.0122
 8008TIP3    H145439   1.070   5.241  13.366 -0.4573  0.6221  1.6238
 8008TIP3    H245440   0.929   5.191  13.390  0.0892 -2.9737 -2.1244
 8009TIP3   OH245441   3.381   3.647   0.014  0.3652  0.7931  0.0361
 8009TIP3    H145442   3.459   3.644  -0.042  0.9824  2.0286  0.8180
 8009TIP3    H245443   3.311   3.678  -0.044  0.2332 -1.1505 -0.8912
 8010TIP3   OH245444   0.459   1.768   2.138  0.1244 -0.4221  0.3073
 8010TIP3    H145445   0.445   1.740   2.047 -0.0646  0.8718 -0.0642
 8010TIP3    H245446   0.550   1.745   2.155  0.9132  1.5913 -1.0435
 8011TIP3   OH245447   1.901   2.576  16.235 -0.1131 -0.0679 -0.0960
 8011TIP3    H145448   1.977   2.624  16.201 -0.2086  0.3095  0.2245
 8011TIP3    H245449   1.865   2.632  16.304 -1.8240  0.6711 -1.5379
 8012TIP3   OH245450   2.034   5.804  11.358 -0.7813  0.0071 -0.2200
 8012TIP3    H145451   2.039   5.894  11.391 -0.1281  0.0606 -0.4606
 8012TIP3    H245452   2.125   5.781  11.338 -1.0858 -0.2734 -1.2981
 8013TIP3   OH245453   5.591   0.860   1.564 -0.5391  0.2579 -0.4282
 8013TIP3    H145454   5.596   0.873   1.659 -1.5379  1.0113 -0.4705
 8013TIP3    H245455   5.538   0.780   1.554  2.5139 -1.8556 -0.2729
 8014TIP3   OH245456   2.450   2.381  16.584 -0.2854 -0.5924 -0.0685
 8014TIP3    H145457   2.385   2.377  16.655 -1.3657  0.7645 -0.9597
 8014TIP3    H245458   2.519   2.321  16.612 -2.2019 -2.5604  0.6051
 8015TIP3   OH245459   3.593   2.839   3.643 -0.1644  0.0949 -0.2436
 8015TIP3    H145460   3.627   2.924   3.615  1.8039 -0.1891  1.1123
 8015TIP3    H245461   3.627   2.777   3.578 -0.9873  0.2412 -0.8194
 8016TIP3   OH245462   3.379   3.133   4.217 -0.4180 -0.0799  0.3499
 8016TIP3    H145463   3.415   3.055   4.174  0.0826  1.3639 -1.9261
 8016TIP3    H245464   3.313   3.166   4.156  0.6947  2.3311  0.4059
 8017TIP3   OH245465   0.674   2.027   4.034 -0.0808  0.2225  0.0845
 8017TIP3    H145466   0.630   1.978   3.964 -2.1071 -1.6960  2.6109
 8017TIP3    H245467   0.607   2.088   4.066  1.0075  1.4653  0.0275
 8018TIP3   OH245468   5.510   5.194  11.414  0.1664 -0.5581  0.2846
 8018TIP3    H145469   5.519   5.117  11.357 -1.5807 -0.3875 -0.2749
 8018TIP3    H245470   5.484   5.264  11.355 -0.5115 -0.0967  1.1172
 8019TIP3   OH245471   3.454   1.059   4.535 -0.5659  0.5510  0.0614
 8019TIP3    H145472   3.385   1.125   4.530 -1.9144 -0.7379  1.1039
 8019TIP3    H245473   3.508   1.086   4.609 -1.5631  0.0896  0.9718
 8020TIP3   OH245474   0.069   1.880  13.619  0.0607 -0.3055  0.0605
 8020TIP3    H145475   0.001   1.928  13.573 -1.9091 -3.3932 -0.3789
 8020TIP3    H245476   0.138   1.866  13.553 -0.7385 -0.7934 -0.6727
 8021TIP3   OH245477   0.998   6.311   4.991  0.3615 -0.3527  0.1605
 8021TIP3    H145478   1.037   6.228   4.962  1.0165 -0.4501  1.2585
 8021TIP3    H245479   1.068   6.375   4.980  0.1840 -0.1401  0.2747
 8022TIP3   OH245480   0.963   0.043  11.482 -0.2132  0.0003 -0.2232
 8022TIP3    H145481   0.963   0.137  11.497  0.5343 -0.5503  3.8338
 8022TIP3    H245482   1.049   0.024  11.444  0.1443  0.7783  0.2062
 8023TIP3   OH245483   4.734   0.554   5.753  0.2990 -0.7348 -0.0226
 8023TIP3    H145484   4.780   0.629   5.791  1.1953 -1.1458 -0.3066
 8023TIP3    H245485   4.787   0.478   5.777  0.3209 -1.1054 -1.2083
 8024TIP3   OH245486   4.685   5.801  11.904 -0.7058 -0.1036 -0.3745
 8024TIP3    H145487   4.653   5.728  11.957 -1.8733 -0.4608 -1.5509
 8024TIP3    H245488   4.777   5.811  11.930 -0.1863 -2.8003 -1.0870
 8025TIP3   OH245489   2.621   2.823  11.632 -0.2018  0.2375 -0.1727
 8025TIP3    H145490   2.712   2.825  11.603 -0.1792 -0.6673 -0.1648
 8025TIP3    H245491   2.626   2.828  11.728 -0.2457  2.3565 -0.2573
 8026TIP3   OH245492   2.862   4.844  15.436  0.3031 -0.3318 -0.0838
 8026TIP3    H145493   2.843   4.758  15.400  1.8902 -0.3324 -0.9892
 8026TIP3    H245494   2.778   4.877  15.468  0.0364 -3.0904  2.2661
 8027TIP3   OH245495   3.069   1.811  13.967  0.2033  0.2469 -0.7104
 8027TIP3    H145496   2.979   1.836  13.985  0.4221  0.9493 -0.5861
 8027TIP3    H245497   3.118   1.837  14.046  0.7011  0.8881 -1.2254
 8028TIP3   OH245498   2.106   1.472   3.152 -0.0052  0.2694 -0.0208
 8028TIP3    H145499   2.014   1.469   3.126 -0.0816  0.1147  0.2608
 8028TIP3    H245500   2.144   1.544   3.100  0.0808 -0.6822 -1.2845
 8029TIP3   OH245501   4.982   4.450  14.600 -0.1316 -0.0453 -0.0340
 8029TIP3    H145502   5.026   4.533  14.584  0.4541 -0.3373  0.0720
 8029TIP3    H245503   4.898   4.475  14.639  1.0467  0.4345  2.2909
 8030TIP3   OH245504   3.708   0.140  11.614  0.2475  0.0429 -0.3711
 8030TIP3    H145505   3.677   0.133  11.523 -0.2962 -0.7509 -0.1263
 8030TIP3    H245506   3.776   0.208  11.610  0.4724 -0.2252 -1.4371
 8031TIP3   OH245507   1.185   0.978   3.334 -0.3997  0.1280  0.5230
 8031TIP3    H145508   1.137   0.908   3.378  0.0372 -0.7183 -0.3288
 8031TIP3    H245509   1.276   0.965   3.360  0.1194 -1.4351 -1.9854
 8032TIP3   OH245510   2.453   0.379  11.608 -0.2250  0.0822 -0.4308
 8032TIP3    H145511   2.373   0.378  11.555 -0.8102  0.9140  0.4211
 8032TIP3    H245512   2.480   0.287  11.612 -0.8272 -0.1325 -1.1940
 8033TIP3   OH245513   1.268   5.128  14.331  0.1075 -0.5445  0.0391
 8033TIP3    H145514   1.189   5.075  14.335  0.2225 -0.8398 -1.2938
 8033TIP3    H245515   1.263   5.185  14.408 -2.1190  0.4536 -0.7864
 8034TIP3   OH245516   4.970   6.525   5.379  0.3929  0.0027 -0.7479
 8034TIP3    H145517   5.015   6.444   5.402  0.1873  0.3973  1.1590
 8034TIP3    H245518   4.881   6.497   5.357 -0.1776 -0.1402  1.6035
 8035TIP3   OH245519   1.346   1.976  12.113 -0.3803  0.7042 -0.1251
 8035TIP3    H145520   1.276   1.912  12.127 -0.9421  1.5409  1.0074
 8035TIP3    H245521   1.383   1.992  12.200  0.9933  0.5392 -0.6662
 8036TIP3   OH245522   1.291   2.309  15.963 -0.1941 -0.2066  0.0154
 8036TIP3    H145523   1.307   2.228  15.914  0.4989  0.6881 -1.2480
 8036TIP3    H245524   1.347   2.301  16.040 -0.2817 -1.0168  0.0054
 8037TIP3   OH245525   0.685   6.233  14.407 -0.3252  0.0497 -0.6821
 8037TIP3    H145526   0.688   6.138  14.397 -2.4010 -0.2109  0.8776
 8037TIP3    H245527   0.603   6.250  14.454  1.5823  2.3401  2.0038
 8038TIP3   OH245528   5.748   6.523   5.733 -0.0338  0.3135  0.5478
 8038TIP3    H145529   5.796   6.568   5.802  2.1693 -0.4799 -0.4322
 8038TIP3    H245530   5.799   6.540   5.653  0.3947 -3.1771  0.0090
 8039TIP3   OH245531   0.541   1.165  17.150 -0.2265 -0.1624  0.0744
 8039TIP3    H145532   0.476   1.196  17.212  0.0052 -1.0893  0.7950
 8039TIP3    H245533   0.551   1.237  17.088 -1.3919  0.2712  0.3765
 8040TIP3   OH245534   5.769   0.843   5.770 -0.0097  0.0096  0.0436
 8040TIP3    H145535   5.778   0.924   5.820  1.5387  0.3083 -0.6706
 8040TIP3    H245536   5.796   0.774   5.830  2.0732  0.3893 -0.4124
 8041TIP3   OH245537   3.789   5.283   5.277 -0.4529  0.0294 -0.0000
 8041TIP3    H145538   3.842   5.243   5.209 -0.3552  0.3987 -0.1404
 8041TIP3    H245539   3.851   5.301   5.348 -0.3263  0.7335 -0.2797
 8042TIP3   OH245540   3.239   2.636   5.355 -0.4800 -0.1729  0.5740
 8042TIP3    H145541   3.152   2.665   5.330  0.0772  1.0702  0.0066
 8042TIP3    H245542   3.270   2.586   5.280 -0.9290 -1.1236  1.0163
 8043TIP3   OH245543   0.775   2.072  11.744  0.2799  0.3550 -0.0731
 8043TIP3    H145544   0.842   2.003  11.752 -0.6929 -0.7576 -1.2558
 8043TIP3    H245545   0.762   2.081  11.650  0.3464  2.1400  0.0780
 8044TIP3   OH245546   0.486   3.322  17.023 -0.6710 -0.0503  0.0046
 8044TIP3    H145547   0.428   3.259  16.981 -3.1397  1.1560  1.5223
 8044TIP3    H245548   0.518   3.277  17.102 -1.0501 -0.0075  0.1792
 8045TIP3   OH245549   2.540   3.386  16.218 -0.5140 -0.1645  0.1178
 8045TIP3    H145550   2.461   3.416  16.264  1.1967  1.9068  1.8340
 8045TIP3    H245551   2.520   3.401  16.126 -1.4872  2.0571  0.6360
 8046TIP3   OH245552   3.197   5.808   1.562  0.0497 -0.1102 -0.7386
 8046TIP3    H145553   3.148   5.881   1.524  2.2581  0.9984 -1.5263
 8046TIP3    H245554   3.247   5.848   1.634 -0.7239 -1.3658  0.5361
 8047TIP3   OH245555   6.181   1.289  11.326 -0.1926 -0.3462 -0.5640
 8047TIP3    H145556   6.219   1.364  11.372 -0.2944 -1.2075  0.9603
 8047TIP3    H245557   6.219   1.293  11.239  0.3301  1.0936 -0.2855
 8048TIP3   OH245558   3.366   5.910   1.215 -0.1463 -0.1653 -0.3916
 8048TIP3    H145559   3.323   5.957   1.287  2.3881 -0.7729  1.6342
 8048TIP3    H245560   3.314   5.830   1.204 -0.0026 -0.5657  1.5196
 8049TIP3   OH245561   4.506   1.043   1.684  0.2554  0.0126  0.0078
 8049TIP3    H145562   4.541   1.118   1.732 -0.0282  1.0241 -1.3344
 8049TIP3    H245563   4.567   0.972   1.702 -0.5813 -0.0118  2.9853
 8050TIP3   OH245564   1.386   5.010   3.020  0.1211 -0.5906 -0.4213
 8050TIP3    H145565   1.433   4.948   3.076  0.9445 -0.5899 -1.1112
 8050TIP3    H245566   1.414   4.989   2.931 -0.7522 -0.2180 -0.7899
 8051TIP3   OH245567   3.109   1.392   0.476  0.0800  0.2052  0.6705
 8051TIP3    H145568   3.198   1.427   0.476  0.8761 -1.7299 -1.3108
 8051TIP3    H245569   3.079   1.402   0.386 -1.0235 -0.8186  0.9203
 8052TIP3   OH245570   3.671   3.949  13.251 -0.6190  0.6726 -0.4566
 8052TIP3    H145571   3.709   4.023  13.298 -1.7299  1.1671 -0.3296
 8052TIP3    H245572   3.579   3.948  13.278 -0.8007 -0.2459 -1.0954
 8053TIP3   OH245573   0.420   1.708   4.345 -0.5673 -0.5024 -0.1287
 8053TIP3    H145574   0.398   1.619   4.317  1.0407 -1.3721  1.2668
 8053TIP3    H245575   0.514   1.716   4.328 -0.6763  0.9131 -0.1617
 8054TIP3   OH245576   1.488   3.947   2.513 -0.5357  0.2266  0.4663
 8054TIP3    H145577   1.519   3.940   2.423  1.0703 -0.0868  1.0307
 8054TIP3    H245578   1.476   4.041   2.528 -3.7000  0.1313 -1.0006
 8055TIP3   OH245579   1.552   6.544   2.993 -0.0122  0.3415 -0.1971
 8055TIP3    H145580   1.509   6.565   2.910  0.4020 -0.4788 -0.6236
 8055TIP3    H245581   1.480   6.523   3.053 -0.2135 -1.0589 -0.9160
 8056TIP3   OH245582   2.730   4.367  16.137  0.1222  0.5144  0.3032
 8056TIP3    H145583   2.786   4.295  16.167 -1.6905 -1.7934 -1.5688
 8056TIP3    H245584   2.690   4.402  16.217  0.8715 -0.7327  1.2327
 8057TIP3   OH245585   6.107   6.637   4.953 -0.5709 -0.4316 -0.1439
 8057TIP3    H145586   6.162   6.713   4.972 -2.6809  1.5361 -1.6309
 8057TIP3    H245587   6.132   6.572   5.019 -2.0372  3.2643  4.2863
 8058TIP3   OH245588   2.674   6.530  14.116  0.7719  0.0413  0.3874
 8058TIP3    H145589   2.636   6.560  14.198  0.2475 -0.3826  0.2990
 8058TIP3    H245590   2.648   6.438  14.109 -2.6439  1.0912 -2.2212
 8059TIP3   OH245591   4.576   1.094   3.378  0.0448  0.6526  0.3653
 8059TIP3    H145592   4.650   1.145   3.408  0.8649 -0.0345 -0.4647
 8059TIP3    H245593   4.560   1.124   3.289  0.0794 -0.0339  0.1257
 8060TIP3   OH245594   4.185   1.744  12.989  0.1516  0.5659 -0.4147
 8060TIP3    H145595   4.110   1.686  12.977 -1.0450  2.2376 -1.0294
 8060TIP3    H245596   4.148   1.831  12.998  1.8093  1.0382  2.5320
 8061TIP3   OH245597   5.783   2.944  13.997 -0.3586 -0.0232 -0.0859
 8061TIP3    H145598   5.819   2.999  14.067 -1.9637  0.4470  0.3978
 8061TIP3    H245599   5.858   2.897  13.962  0.5633  0.1278  1.6232
 8062TIP3   OH245600   3.313   5.797   6.063 -0.0812  0.0919 -0.0155
 8062TIP3    H145601   3.379   5.802   6.132 -0.8830 -0.5008  0.8208
 8062TIP3    H245602   3.229   5.799   6.111 -0.6408 -0.4953 -0.9545
 8063TIP3   OH245603   1.435   0.184  15.190  0.3892  0.0802  0.1215
 8063TIP3    H145604   1.482   0.103  15.212 -0.8717 -1.1658 -1.6307
 8063TIP3    H245605   1.496   0.254  15.215  1.9164 -1.4271  0.7483
 8064TIP3   OH245606   3.010   2.898   4.997 -0.0839 -0.1099  0.1631
 8064TIP3    H145607   2.959   2.973   5.028 -0.7060 -0.8006  0.8469
 8064TIP3    H245608   3.018   2.841   5.074  0.8768 -0.4742 -0.1962
 8065TIP3   OH245609   3.624   3.659  17.096 -0.1989  0.3892  0.4417
 8065TIP3    H145610   3.691   3.619  17.151  0.5244 -1.2507 -1.5733
 8065TIP3    H245611   3.672   3.721  17.041 -0.2647 -0.8439 -1.0591
 8066TIP3   OH245612   3.895   2.631   4.326 -0.3403  0.3723  0.2495
 8066TIP3    H145613   3.821   2.681   4.361 -0.6635 -0.9347  1.4700
 8066TIP3    H245614   3.856   2.554   4.286  0.0463  1.7419 -2.9268
 8067TIP3   OH245615   5.492   3.360  14.220 -0.5318 -0.2344  0.1239
 8067TIP3    H145616   5.485   3.416  14.143 -0.0139  0.1928  0.3868
 8067TIP3    H245617   5.402   3.339  14.243 -0.6870 -0.6813 -0.8280
 8068TIP3   OH245618   3.455   0.527   2.458 -0.3415 -0.0986 -0.2578
 8068TIP3    H145619   3.396   0.601   2.467  1.8596  1.7169 -0.2661
 8068TIP3    H245620   3.521   0.540   2.526 -0.5948 -2.7089  0.5329
 8069TIP3   OH245621   4.337   6.084   5.059  0.0443  0.2311  0.1652
 8069TIP3    H145622   4.353   6.159   5.002 -2.0369 -0.9204 -2.0333
 8069TIP3    H245623   4.294   6.121   5.136 -1.7278  1.2460 -1.2611
 8070TIP3   OH245624   1.567   4.520  16.022  0.2123  0.3871  0.2481
 8070TIP3    H145625   1.642   4.564  15.980  1.1297 -0.2807  1.1528
 8070TIP3    H245626   1.499   4.587  16.026  0.8731  1.1076 -0.2996
 8071TIP3   OH245627   0.829   6.552   5.019  0.2634 -0.2540  0.0270
 8071TIP3    H145628   0.865   6.463   5.016 -1.2084 -0.8943  0.9775
 8071TIP3    H245629   0.812   6.574   4.927 -0.4108 -1.4029 -0.1376
 8072TIP3   OH245630   6.728   0.249   2.903  0.7029 -0.4009  0.0054
 8072TIP3    H145631   6.778   0.237   2.984  0.5732 -1.1198 -0.0188
 8072TIP3    H245632   6.637   0.241   2.930  0.6248  0.1467 -0.0835
 8073TIP3   OH245633   5.045   1.819  11.982 -0.7069 -0.1491 -0.0158
 8073TIP3    H145634   4.983   1.891  11.989  1.0844  1.4084  0.0594
 8073TIP3    H245635   5.122   1.848  12.031  0.3430 -1.7829 -0.6543
 8074TIP3   OH245636   6.630   5.609  17.087  0.2246  0.1301 -0.3681
 8074TIP3    H145637   6.721   5.594  17.063 -0.0779 -0.8446 -0.9583
 8074TIP3    H245638   6.601   5.526  17.125 -0.0891  0.8030  0.8705
 8075TIP3   OH245639   0.500   0.112   5.264 -0.1767 -0.1276 -0.6930
 8075TIP3    H145640   0.528   0.173   5.331  0.1448  0.4090 -1.3122
 8075TIP3    H245641   0.558   0.036   5.275 -1.0543 -0.6479  0.5454
 8076TIP3   OH245642   2.720   0.806  13.762  0.4512 -0.0537  0.4899
 8076TIP3    H145643   2.695   0.884  13.811  1.3776  0.2836  0.4337
 8076TIP3    H245644   2.637   0.770  13.730  0.0072  0.8005  0.6679
 8077TIP3   OH245645   3.586   5.151   0.831 -0.3574 -0.0770  0.3627
 8077TIP3    H145646   3.648   5.078   0.824 -0.6791 -0.5164  1.8165
 8077TIP3    H245647   3.522   5.136   0.761  1.3951  0.6146 -1.4240
 8078TIP3   OH245648   6.702   0.974   3.680  0.4593 -0.2959  0.5375
 8078TIP3    H145649   6.779   0.997   3.628 -0.0192 -0.8596 -0.4318
 8078TIP3    H245650   6.738   0.943   3.763  1.2448  0.2712  0.4170
 8079TIP3   OH245651   1.623   3.938  14.588 -0.2248  0.6044  0.2205
 8079TIP3    H145652   1.558   3.976  14.647 -1.2038  0.2000 -0.5880
 8079TIP3    H245653   1.628   3.846  14.614  0.7606  0.8552  0.9366
 8080TIP3   OH245654   1.902   3.086   0.838  0.1621 -0.3350  0.3352
 8080TIP3    H145655   1.934   3.062   0.751 -0.0053  2.6997 -0.6362
 8080TIP3    H245656   1.874   3.004   0.877  2.1412 -2.0436 -1.6939
 8081TIP3   OH245657   0.928   5.303   5.602 -0.8224 -0.1505 -0.2562
 8081TIP3    H145658   0.996   5.336   5.661 -0.6394 -2.1801  0.7029
 8081TIP3    H245659   0.847   5.309   5.653 -1.0702  0.4896 -0.7197
 8082TIP3   OH245660   3.828   1.825  12.070 -0.2344 -0.1737  0.1376
 8082TIP3    H145661   3.808   1.882  12.145 -0.0679  0.9333 -0.6489
 8082TIP3    H245662   3.785   1.868  11.996  0.6575 -0.5907 -0.6248
 8083TIP3   OH245663   4.960   4.088  16.812 -0.1951  0.1053 -0.5082
 8083TIP3    H145664   5.029   4.152  16.828  0.3263 -0.7548  0.7337
 8083TIP3    H245665   4.879   4.133  16.836  0.2809 -0.0786  1.5184
 8084TIP3   OH245666   6.532   3.082   0.116 -0.1843 -0.1880  0.2771
 8084TIP3    H145667   6.514   3.175   0.099  0.6499  0.3130  1.9937
 8084TIP3    H245668   6.591   3.056   0.046 -0.7081  0.4818 -0.4243
 8085TIP3   OH245669   0.562   1.892  14.127 -0.1019  0.6080  0.7145
 8085TIP3    H145670   0.493   1.900  14.061  0.0057 -0.6502  0.4287
 8085TIP3    H245671   0.575   1.797  14.136  0.3466  0.7897  2.0625
 8086TIP3   OH245672   2.444   5.648   0.360  0.0283 -0.2073  0.1381
 8086TIP3    H145673   2.408   5.650   0.449 -0.0667 -0.7876  0.1146
 8086TIP3    H245674   2.477   5.559   0.350  2.0091  0.4950  0.3566
 8087TIP3   OH245675   1.101   5.549  12.931 -0.6044 -0.1533  0.4432
 8087TIP3    H145676   1.052   5.467  12.942  0.1373 -0.5587  0.7401
 8087TIP3    H245677   1.193   5.524  12.942 -0.3318  0.6165 -0.0503
 8088TIP3   OH245678   5.037   5.456  12.299 -0.1388  0.3012 -0.8607
 8088TIP3    H145679   5.049   5.471  12.393  1.2241  0.8656 -1.1158
 8088TIP3    H245680   5.120   5.416  12.271 -0.9192 -0.7926 -1.6260
 8089TIP3   OH245681   5.992   2.157   0.666  0.2220  0.2813 -0.4653
 8089TIP3    H145682   5.965   2.211   0.741 -1.0742 -3.3455  1.7838
 8089TIP3    H245683   5.929   2.178   0.597 -1.3671  0.3246  0.9735
 8090TIP3   OH245684   4.526   0.157  10.592  0.1500 -0.3452 -0.7137
 8090TIP3    H145685   4.476   0.088  10.548 -1.4719  0.5018 -0.2397
 8090TIP3    H245686   4.535   0.226  10.525  0.3283 -0.3310 -0.6755
 8091TIP3   OH245687   5.116   2.271  12.342 -0.5419 -0.7178  0.4264
 8091TIP3    H145688   5.046   2.268  12.277 -1.9534  0.9434  1.8058
 8091TIP3    H245689   5.174   2.341  12.312 -1.3101  0.1979  1.0114
 8092TIP3   OH245690   1.070   0.804  12.590  0.3282 -0.1616 -0.1515
 8092TIP3    H145691   1.100   0.789  12.680  0.2553 -0.4524 -0.1771
 8092TIP3    H245692   1.016   0.883  12.596  1.8094  0.8972 -0.2587
 8093TIP3   OH245693   3.079   2.167  12.345  0.5514  0.6667 -0.0970
 8093TIP3    H145694   3.124   2.108  12.406 -0.7917  0.0874  0.3363
 8093TIP3    H245695   3.076   2.118  12.263 -2.0728 -0.5888  0.7098
 8094TIP3   OH245696   3.514   5.272  17.022 -0.1588  0.3649 -0.2560
 8094TIP3    H145697   3.437   5.228  16.987 -2.5090  1.4927  3.2617
 8094TIP3    H245698   3.508   5.362  16.989  1.3049 -0.2458 -2.3430
 8095TIP3   OH245699   6.462   4.342   2.136 -0.0959  0.2217  0.2693
 8095TIP3    H145700   6.456   4.258   2.182 -1.9897 -0.7734 -1.7174
 8095TIP3    H245701   6.554   4.352   2.115  0.4370 -0.4339  2.1954
 8096TIP3   OH245702   2.558   5.525   0.073  0.1169  0.1603 -0.3335
 8096TIP3    H145703   2.478   5.504   0.121 -0.2014  1.2166 -0.3902
 8096TIP3    H245704   2.610   5.445   0.077 -1.3213 -0.8471 -1.0753
 8097TIP3   OH245705   3.722   1.741  13.071 -0.2987  0.0762  0.8198
 8097TIP3    H145706   3.671   1.807  13.024 -0.5949 -0.4849  0.3385
 8097TIP3    H245707   3.658   1.701  13.131 -0.5567 -0.9756 -0.1446
 8098TIP3   OH245708   1.208   1.069   4.596  0.3265  0.2430 -0.3027
 8098TIP3    H145709   1.183   0.995   4.651 -0.2771 -0.5206 -1.6008
 8098TIP3    H245710   1.127   1.095   4.553  0.7447  1.0216 -0.6219
 8099TIP3   OH245711   2.836   2.904  16.130 -0.4701 -0.2943 -0.2020
 8099TIP3    H145712   2.910   2.964  16.131  0.0634 -0.9500  0.1398
 8099TIP3    H245713   2.859   2.835  16.193 -0.7799 -1.1981 -1.0520
 8100TIP3   OH245714   4.921   3.823   2.974 -0.1773 -0.2198  0.3433
 8100TIP3    H145715   4.870   3.830   2.893  0.9511  0.4999 -0.3133
 8100TIP3    H245716   4.991   3.761   2.952  0.8346  0.8934  0.3894
 8101TIP3   OH245717   0.561   1.643  10.966  0.3237  0.9999 -0.1983
 8101TIP3    H145718   0.517   1.702  11.027 -0.7642  0.8923 -0.8610
 8101TIP3    H245719   0.498   1.573  10.950  1.9744 -0.9025  1.3315
 8102TIP3   OH245720   1.114   3.741   2.650 -0.3626  0.6474  0.2202
 8102TIP3    H145721   1.037   3.697   2.686  0.8140 -1.5978  0.1022
 8102TIP3    H245722   1.130   3.696   2.567  1.1353  1.0171  0.2943
 8103TIP3   OH245723   0.251   0.899   6.042 -0.3743 -0.1685  0.0428
 8103TIP3    H145724   0.250   0.816   6.091  1.8143  0.3465  1.0048
 8103TIP3    H245725   0.233   0.966   6.107  0.4644  0.3467 -0.2560
 8104TIP3   OH245726   3.308   0.953   6.015  0.8078 -0.3673 -0.1937
 8104TIP3    H145727   3.286   0.953   6.108 -1.1302 -1.0847 -0.6299
 8104TIP3    H245728   3.289   0.864   5.987  1.9622 -0.3181 -1.1642
 8105TIP3   OH245729   4.289   3.117  13.089  0.0730  0.2816  0.4722
 8105TIP3    H145730   4.290   3.029  13.129 -0.6573 -0.1440 -0.4237
 8105TIP3    H245731   4.290   3.100  12.995  0.1122  1.2447  0.2993
 8106TIP3   OH245732   6.608   2.179   6.242 -0.2424  0.7369  0.0117
 8106TIP3    H145733   6.593   2.085   6.253 -0.2619  0.8067  0.6001
 8106TIP3    H245734   6.646   2.207   6.325 -0.5261  1.3079 -0.0498
 8107TIP3   OH245735   4.956   2.004  15.210 -0.3088  0.3271  0.4436
 8107TIP3    H145736   4.876   2.033  15.253 -1.1742  1.8704 -2.0938
 8107TIP3    H245737   4.982   2.079  15.155  1.5677 -1.0138 -0.5456
 8108TIP3   OH245738   0.277   3.964   6.179  0.1285  0.1455  0.6190
 8108TIP3    H145739   0.368   3.990   6.196  0.0768  0.0442  1.0537
 8108TIP3    H245740   0.275   3.870   6.199  0.8035 -0.6789 -2.8940
 8109TIP3   OH245741   6.463   6.037  13.499  0.4994  0.0159  0.3176
 8109TIP3    H145742   6.508   5.953  13.506 -1.8195 -1.2788  0.1701
 8109TIP3    H245743   6.380   6.017  13.456  0.1930  2.4995 -0.3716
 8110TIP3   OH245744   1.832   4.848  13.396 -0.5077 -0.0605  0.2680
 8110TIP3    H145745   1.927   4.841  13.409 -0.4027 -1.1297 -0.9115
 8110TIP3    H245746   1.805   4.919  13.454  0.5661 -1.6127  2.7537
 8111TIP3   OH245747   3.181   4.150   3.697  0.5124 -0.1721  0.6683
 8111TIP3    H145748   3.215   4.061   3.707  0.7780 -0.1335  0.1407
 8111TIP3    H245749   3.202   4.173   3.607 -2.8730 -1.0133 -0.4226
 8112TIP3   OH245750   3.362   6.470   5.242  0.2105 -0.3974  0.3113
 8112TIP3    H145751   3.338   6.437   5.155  0.3408  1.4390 -0.4517
 8112TIP3    H245752   3.282   6.462   5.294 -0.8195  1.5218 -0.9294
 8113TIP3   OH245753   0.668   5.278  16.584 -0.4098 -1.0500  0.0097
 8113TIP3    H145754   0.681   5.273  16.489  0.6878  1.1125 -0.0050
 8113TIP3    H245755   0.754   5.258  16.621 -0.3359  0.0629  0.4612
 8114TIP3   OH245756   0.661   2.632   3.195 -0.0821  0.9189  0.6547
 8114TIP3    H145757   0.708   2.613   3.276  0.3930 -0.1281  0.1412
 8114TIP3    H245758   0.714   2.591   3.126 -1.4620  0.1766  0.0102
 8115TIP3   OH245759   4.042   0.267   3.685  0.2577 -0.0974 -0.2834
 8115TIP3    H145760   4.128   0.306   3.669  0.5643  0.2099  2.0258
 8115TIP3    H245761   4.055   0.208   3.759 -1.5711  0.0915  0.2108
 8116TIP3   OH245762   1.975   0.922  11.821  0.0059  0.0675  0.0855
 8116TIP3    H145763   2.010   0.854  11.879 -1.9240  1.2758  2.7755
 8116TIP3    H245764   1.884   0.934  11.849 -0.6819  1.4834 -2.5062
 8117TIP3   OH245765   6.112   4.662   4.701  0.0144  0.3842 -0.0092
 8117TIP3    H145766   6.144   4.627   4.784 -2.9561 -0.9948  0.6199
 8117TIP3    H245767   6.069   4.744   4.725 -1.8277 -0.5585  0.0497
 8118TIP3   OH245768   3.026   2.455  11.821 -0.1340  0.1817 -0.6475
 8118TIP3    H145769   2.969   2.511  11.768 -0.1857  1.0444  0.2940
 8118TIP3    H245770   2.972   2.380  11.845 -1.1633  1.3914  0.9321
 8119TIP3   OH245771   0.235   4.359  11.834  0.0983 -0.2008 -0.0993
 8119TIP3    H145772   0.229   4.446  11.874 -4.2358  1.2170 -3.5065
 8119TIP3    H245773   0.273   4.375  11.747  1.4296 -2.0958  0.0945
 8120TIP3   OH245774   2.139   4.023  16.709 -0.4210 -0.0059 -0.6491
 8120TIP3    H145775   2.045   4.022  16.723 -0.2819  1.0871  0.4989
 8120TIP3    H245776   2.174   4.070  16.785  1.1503 -1.4180 -0.4550
 8121TIP3   OH245777   1.768   2.686   5.315 -0.3309  0.2564 -0.3739
 8121TIP3    H145778   1.841   2.630   5.342 -1.0997  0.1775  1.5784
 8121TIP3    H245779   1.784   2.701   5.221  1.3185 -1.0511 -0.3388
 8122TIP3   OH245780   4.111   2.105   1.857 -0.6465 -0.0631  0.2368
 8122TIP3    H145781   4.192   2.055   1.864  0.3119  1.7021  2.5652
 8122TIP3    H245782   4.044   2.040   1.841  1.2286 -1.5658 -1.8321
 8123TIP3   OH245783   3.260   3.418   6.162 -0.3148  0.0863  0.7248
 8123TIP3    H145784   3.354   3.408   6.149 -0.2277  0.2987  1.1785
 8123TIP3    H245785   3.245   3.392   6.253 -0.8245 -0.8118  0.3900
 8124TIP3   OH245786   6.148   3.278   4.723  0.7092 -0.0946  0.1113
 8124TIP3    H145787   6.131   3.318   4.809  1.1243 -0.9772  0.6148
 8124TIP3    H245788   6.124   3.186   4.735  1.2348 -0.3188 -0.5848
 8125TIP3   OH245789   3.064   0.456   5.571 -0.0396  0.0449  0.0790
 8125TIP3    H145790   3.106   0.426   5.490 -0.0725  0.1446  0.0250
 8125TIP3    H245791   3.106   0.404   5.640 -1.2028 -1.2554 -0.1629
 8126TIP3   OH245792   5.603   0.192   0.696 -0.1455 -0.4232  0.6967
 8126TIP3    H145793   5.674   0.252   0.719 -0.4930  0.5275 -0.6573
 8126TIP3    H245794   5.523   0.239   0.722 -0.3734 -0.6510  0.4090
 8127TIP3   OH245795   0.282   1.567   4.901  0.5605  0.0337  0.4552
 8127TIP3    H145796   0.241   1.484   4.878  2.3334  0.1878 -3.7615
 8127TIP3    H245797   0.356   1.543   4.956 -0.0284 -1.0274  0.7881
 8128TIP3   OH245798   3.828   2.406  15.857  0.7252 -0.2142 -0.2052
 8128TIP3    H145799   3.764   2.469  15.891  0.2721 -0.3650 -0.7688
 8128TIP3    H245800   3.884   2.386  15.932  1.1578  1.2005 -0.1248
 8129TIP3   OH245801   2.662   5.689   2.201  0.0453 -0.6151 -0.7052
 8129TIP3    H145802   2.680   5.775   2.239  0.2115 -0.6349 -0.7376
 8129TIP3    H245803   2.680   5.628   2.272  1.0408 -0.7017 -1.0252
 8130TIP3   OH245804   0.293   2.652   1.017 -0.0038 -0.3304 -0.3577
 8130TIP3    H145805   0.296   2.628   0.924  0.3007 -0.4722 -0.3130
 8130TIP3    H245806   0.200   2.655   1.038 -0.0610 -1.1299 -0.4632
 8131TIP3   OH245807   2.825   2.483  14.922 -0.1805 -0.6702 -0.0681
 8131TIP3    H145808   2.880   2.479  15.000 -0.9221  1.2101  0.5878
 8131TIP3    H245809   2.776   2.565  14.932  1.4699  0.8778 -3.6354
 8132TIP3   OH245810   1.652   2.452   1.309 -0.4069  0.2932 -0.0983
 8132TIP3    H145811   1.747   2.441   1.309 -0.4889 -0.4175 -0.6895
 8132TIP3    H245812   1.618   2.366   1.331 -0.8801  0.9759  1.9616
 8133TIP3   OH245813   0.863   1.335   5.319 -0.4470  0.3466 -0.3458
 8133TIP3    H145814   0.787   1.281   5.298  0.2288 -1.1759  1.0660
 8133TIP3    H245815   0.899   1.359   5.233 -0.9166 -1.2109 -0.9988
 8134TIP3   OH245816   5.478   2.847  16.427  0.1738  0.0956 -0.0064
 8134TIP3    H145817   5.488   2.815  16.516 -1.1830 -1.3170 -0.3287
 8134TIP3    H245818   5.559   2.820  16.383  1.1074  1.3175  0.9163
 8135TIP3   OH245819   6.739   5.627   0.874  0.0609 -0.0757 -0.4509
 8135TIP3    H145820   6.798   5.687   0.920 -2.1283  0.1787  2.1717
 8135TIP3    H245821   6.768   5.540   0.903 -0.8053  0.0509  0.8668
 8136TIP3   OH245822   4.037   4.856  16.483 -0.0339 -0.1734 -0.0418
 8136TIP3    H145823   4.119   4.903  16.494  0.6847 -1.5448  0.5189
 8136TIP3    H245824   4.021   4.858  16.388  0.7912 -0.1505 -0.1833
 8137TIP3   OH245825   4.162   0.552  17.224 -0.1948 -0.2322 -0.4215
 8137TIP3    H145826   4.170   0.559  17.319 -1.0435  0.2033 -0.3765
 8137TIP3    H245827   4.181   0.460  17.204 -0.2900 -0.3837  0.1970
 8138TIP3   OH245828   4.862   3.235  11.710 -0.2095 -0.0071  0.7958
 8138TIP3    H145829   4.930   3.261  11.647 -1.3633 -0.3427 -0.6215
 8138TIP3    H245830   4.895   3.155  11.750  0.3369 -0.0507  0.2674
 8139TIP3   OH245831   0.211   2.358  14.687 -0.0825  0.0951  0.1220
 8139TIP3    H145832   0.262   2.401  14.755  0.9947  0.9015 -1.1689
 8139TIP3    H245833   0.274   2.302  14.641 -0.9187 -0.8806  0.1360
 8140TIP3   OH245834   5.486   2.025   3.884  0.8689  0.0805  0.1948
 8140TIP3    H145835   5.552   2.081   3.924 -0.3434  0.8800  1.1365
 8140TIP3    H245836   5.449   2.077   3.813  0.4507  0.0990  0.4194
 8141TIP3   OH245837   6.716   5.893  13.075  0.3035  0.5254  0.3168
 8141TIP3    H145838   6.744   5.854  12.992 -0.6806  0.9621 -0.2226
 8141TIP3    H245839   6.713   5.820  13.137 -0.1859 -0.0159 -0.3475
 8142TIP3   OH245840   5.236   5.198   1.361 -0.4873 -0.2728  0.5110
 8142TIP3    H145841   5.143   5.219   1.348  0.4716  2.5309 -2.6440
 8142TIP3    H245842   5.269   5.268   1.417  0.4794  0.9805 -1.5383
 8143TIP3   OH245843   2.909   1.160   0.569 -0.6120 -0.1853 -0.1958
 8143TIP3    H145844   2.908   1.188   0.477  2.0598 -1.1820 -0.5674
 8143TIP3    H245845   2.956   1.077   0.568 -1.7331 -0.8783  1.9227
 8144TIP3   OH245846   5.468   5.068   1.901 -0.4359 -0.2163 -0.1431
 8144TIP3    H145847   5.497   5.157   1.884 -1.0138 -0.2260 -1.2653
 8144TIP3    H245848   5.406   5.049   1.830 -2.1667 -0.6487  1.4443
 8145TIP3   OH245849   2.441   3.628  15.504  0.7692 -0.1315 -0.2335
 8145TIP3    H145850   2.525   3.604  15.464  0.6780 -2.1134  0.6863
 8145TIP3    H245851   2.410   3.702  15.452  3.5624  1.3075  0.0633
 8146TIP3   OH245852   2.173   3.668  11.402 -0.2915 -0.0617  0.3957
 8146TIP3    H145853   2.178   3.655  11.496  0.8369  1.4988  0.5824
 8146TIP3    H245854   2.217   3.752  11.387 -1.3647  0.2209 -1.3942
 8147TIP3   OH245855   0.797   3.533   2.622  0.3159  0.3113 -0.2013
 8147TIP3    H145856   0.799   3.451   2.672 -0.6427  0.5825  0.2900
 8147TIP3    H245857   0.743   3.592   2.675  0.8438  1.2028 -0.6459
 8148TIP3   OH245858   3.364   2.165  16.812  0.2715 -0.6814  0.3152
 8148TIP3    H145859   3.432   2.190  16.749  1.4843 -1.1118  1.4417
 8148TIP3    H245860   3.321   2.090  16.772  0.9601 -0.8817 -0.0544
 8149TIP3   OH245861   0.495   1.390   0.424  0.0753  0.1600 -0.2318
 8149TIP3    H145862   0.437   1.341   0.366  0.2056  0.8937 -0.9844
 8149TIP3    H245863   0.528   1.325   0.485  0.1697 -0.6713 -1.1673
 8150TIP3   OH245864   2.183   1.208   3.068  0.3709 -0.0404 -0.7899
 8150TIP3    H145865   2.240   1.280   3.096 -0.3098 -0.5574  1.9862
 8150TIP3    H245866   2.126   1.248   3.002 -0.5971  2.2121  1.3576
 8151TIP3   OH245867   2.693   6.268  16.521  0.0049  0.2013 -0.0356
 8151TIP3    H145868   2.641   6.209  16.468  1.1437  0.3709 -1.3638
 8151TIP3    H245869   2.635   6.342  16.540 -1.0155 -0.7539  0.5988
 8152TIP3   OH245870   3.482   1.539   2.328 -0.5652 -0.1237 -0.0018
 8152TIP3    H145871   3.490   1.451   2.363  3.9100  0.8571  1.6505
 8152TIP3    H245872   3.513   1.597   2.397 -1.3239  2.6453 -1.8548
 8153TIP3   OH245873   3.868   4.344   1.601  0.7309  0.4396 -0.4992
 8153TIP3    H145874   3.858   4.305   1.514  1.2467  0.0397 -0.3747
 8153TIP3    H245875   3.952   4.312   1.633  0.9454  1.2738 -0.2072
 8154TIP3   OH245876   5.941   0.082  12.106  0.1857  0.0426  0.0612
 8154TIP3    H145877   5.949   0.112  12.016 -1.8416 -0.3696 -0.2617
 8154TIP3    H245878   6.032   0.072  12.135  0.8597  1.2474 -1.5581
 8155TIP3   OH245879   4.461   4.476  15.046 -0.5608  0.2734 -0.2280
 8155TIP3    H145880   4.412   4.432  14.976 -2.4240  1.1350  0.5172
 8155TIP3    H245881   4.545   4.431  15.047 -1.4686 -1.5205 -1.2540
 8156TIP3   OH245882   1.391   1.942   0.599 -0.1647 -0.1664  0.2468
 8156TIP3    H145883   1.370   1.940   0.505 -0.6419 -0.2962  0.3520
 8156TIP3    H245884   1.450   1.868   0.612  1.3455  0.9183 -0.2786
 8157TIP3   OH245885   5.363   2.615  15.779  0.9215  0.5227  0.2651
 8157TIP3    H145886   5.271   2.590  15.787  0.5837  1.2173 -1.2449
 8157TIP3    H245887   5.360   2.708  15.759  1.8925  0.2829 -1.0567
 8158TIP3   OH245888   2.880   1.696   1.598 -0.5151  0.0269  0.4865
 8158TIP3    H145889   2.957   1.710   1.653 -0.1902 -0.7970  0.2568
 8158TIP3    H245890   2.901   1.617   1.548 -1.5905 -0.3199  0.5690
 8159TIP3   OH245891   1.890   4.369  13.670 -0.4476 -0.1496  0.1536
 8159TIP3    H145892   1.947   4.437  13.705  2.0632 -0.4746 -3.0137
 8159TIP3    H245893   1.943   4.289  13.676 -2.1069 -1.2149  0.8086
 8160TIP3   OH245894   4.827   5.725  12.814  0.1242  0.1721 -0.6788
 8160TIP3    H145895   4.890   5.766  12.754  0.6088  1.4766  0.6969
 8160TIP3    H245896   4.760   5.792  12.828  1.3308  0.8391  2.2070
 8161TIP3   OH245897   2.720   4.078   6.014 -0.1022  0.5792  0.2461
 8161TIP3    H145898   2.639   4.119   6.043 -0.3353  0.2375  0.0822
 8161TIP3    H245899   2.784   4.103   6.081 -0.3043  0.9772  0.2927
 8162TIP3   OH245900   6.535   4.873  15.437  0.3079  0.0326 -0.3962
 8162TIP3    H145901   6.484   4.872  15.518  0.0573 -0.6796 -0.5580
 8162TIP3    H245902   6.625   4.885  15.466  0.1121  0.7187 -0.0709
 8163TIP3   OH245903   2.105   0.871   1.928 -0.0446  0.2110 -0.0967
 8163TIP3    H145904   2.177   0.926   1.957  0.4644 -0.0173 -0.9147
 8163TIP3    H245905   2.147   0.790   1.899 -0.7514 -0.4911  0.7772
 8164TIP3   OH245906   1.784   0.005   6.532 -0.4474 -0.0899 -0.4047
 8164TIP3    H145907   1.768   0.093   6.564 -2.8006 -0.4933 -0.3553
 8164TIP3    H245908   1.697  -0.033   6.521  0.4664 -1.7819 -2.1862
 8165TIP3   OH245909   2.463   0.299  15.331 -0.5692 -0.3136  0.1566
 8165TIP3    H145910   2.497   0.213  15.355 -1.9765 -1.1969 -0.9387
 8165TIP3    H245911   2.373   0.299  15.363 -1.3499 -0.1927 -1.9243
 8166TIP3   OH245912   1.030   0.390  13.879 -0.3064 -0.3817 -0.1671
 8166TIP3    H145913   1.090   0.462  13.860  0.5532 -1.0670 -0.0971
 8166TIP3    H245914   0.980   0.378  13.798 -0.3091  0.1694 -0.2433
 8167TIP3   OH245915   5.321   3.439  13.955 -0.2784 -0.2552 -0.2843
 8167TIP3    H145916   5.302   3.532  13.963 -1.2121 -0.3165 -1.5138
 8167TIP3    H245917   5.416   3.434  13.947  0.1752  0.2619  3.6297
 8168TIP3   OH245918   6.312   5.385  15.981  0.5346 -0.3269  0.3013
 8168TIP3    H145919   6.298   5.312  16.041 -0.2908  0.5256  1.1839
 8168TIP3    H245920   6.359   5.450  16.033  0.9425 -0.0857 -0.3629
 8169TIP3   OH245921   6.360   4.435  14.368  1.0630 -0.1099  0.1410
 8169TIP3    H145922   6.420   4.388  14.426  0.2618 -2.0035 -0.5520
 8169TIP3    H245923   6.302   4.483  14.428  1.1982 -0.8473  0.8721
 8170TIP3   OH245924   2.700   4.396  16.816  0.2952  0.3895 -0.4060
 8170TIP3    H145925   2.691   4.483  16.778  0.7369  0.5667 -0.1099
 8170TIP3    H245926   2.639   4.341  16.767  2.9378 -0.0374 -3.3598
 8171TIP3   OH245927   5.636   5.470   2.065 -0.2964  0.2870 -0.1721
 8171TIP3    H145928   5.700   5.432   2.004  1.3762  0.0792  1.6455
 8171TIP3    H245929   5.553   5.431   2.041  0.5981 -0.8776 -1.4071
 8172TIP3   OH245930   4.782   5.020   1.763  0.5305 -0.1937  0.2867
 8172TIP3    H145931   4.733   4.997   1.685 -1.7047  0.8268  1.3359
 8172TIP3    H245932   4.874   5.009   1.739 -0.1371 -0.0647 -2.4070
 8173TIP3   OH245933   4.926   2.026   4.795  0.2842  0.5633 -0.8763
 8173TIP3    H145934   4.944   2.052   4.885 -4.5226  1.8018 -0.1286
 8173TIP3    H245935   5.012   2.005   4.759  2.1263 -3.3388  4.9660
 8174TIP3   OH245936   0.166   1.137  11.955 -0.7123  0.2477  0.4902
 8174TIP3    H145937   0.172   1.130  11.860 -0.2654  0.0709  0.5311
 8174TIP3    H245938   0.204   1.056  11.988  0.4870  0.9282  0.8485
 8175TIP3   OH245939   4.077   3.700  14.511 -0.0476  0.2917  0.1791
 8175TIP3    H145940   4.016   3.736  14.576 -1.0586 -0.7088 -0.1850
 8175TIP3    H245941   4.108   3.776  14.462 -0.5696  0.8755  0.7415
 8176TIP3   OH245942   6.733   6.157   2.338  0.6464 -0.0807  0.0891
 8176TIP3    H145943   6.721   6.195   2.251 -0.4067  0.2663  0.3867
 8176TIP3    H245944   6.761   6.067   2.321  1.7619  0.3858 -0.6087
 8177TIP3   OH245945   5.012   2.117  16.594 -0.4095 -0.0109  0.0398
 8177TIP3    H145946   4.949   2.178  16.631 -1.1262 -0.8182  0.1739
 8177TIP3    H245947   5.067   2.170  16.537 -0.8435  0.8039  0.3784
 8178TIP3   OH245948   3.633   0.922   0.382 -0.0638  0.8713 -0.2256
 8178TIP3    H145949   3.541   0.907   0.360 -0.1345  1.3819 -0.2674
 8178TIP3    H245950   3.661   0.839   0.422 -0.7620  0.9790  0.5039
 8179TIP3   OH245951   1.339   2.824  14.230 -0.1212 -0.4341 -0.1454
 8179TIP3    H145952   1.402   2.753  14.217  2.3052  1.7723 -0.7993
 8179TIP3    H245953   1.289   2.827  14.148  2.0868  0.7803 -1.5109
 8180TIP3   OH245954   3.954   0.169   3.060 -0.0255  0.0158 -0.0959
 8180TIP3    H145955   4.001   0.252   3.049 -1.0241  0.6506  0.3464
 8180TIP3    H245956   4.023   0.102   3.062  0.7721  0.8163 -0.6307
 8181TIP3   OH245957   5.304   6.534   1.345  0.2985  0.0872  0.4833
 8181TIP3    H145958   5.323   6.626   1.326 -1.7933  0.5552  0.4839
 8181TIP3    H245959   5.386   6.488   1.327  0.7831  1.6567 -1.5452
 8182TIP3   OH245960   0.309   4.996  12.172 -0.8848  0.7628 -0.3080
 8182TIP3    H145961   0.382   5.051  12.203  0.8713 -1.3248 -0.6359
 8182TIP3    H245962   0.317   4.915  12.224 -0.9968 -0.7608 -2.6227
 8183TIP3   OH245963   3.103   6.394  15.530  0.3447 -0.1245  1.0049
 8183TIP3    H145964   3.098   6.336  15.607  1.4047  0.1503  1.2874
 8183TIP3    H245965   3.100   6.334  15.455 -0.5169 -0.4066  1.2538
 8184TIP3   OH245966   5.150   0.709   3.702 -0.2977  0.1038  0.1791
 8184TIP3    H145967   5.234   0.754   3.714  0.6112 -1.3787 -0.5346
 8184TIP3    H245968   5.115   0.699   3.791  0.1303  1.0013  0.4526
 8185TIP3   OH245969   4.112   3.861  15.554 -0.2085 -0.0857 -0.2202
 8185TIP3    H145970   4.204   3.838  15.567 -0.1110  0.3294 -0.1611
 8185TIP3    H245971   4.083   3.894  15.640 -1.0156 -2.2599  0.3677
 8186TIP3   OH245972   1.265   1.496  12.235 -0.2008  0.1472  0.0256
 8186TIP3    H145973   1.182   1.462  12.201 -0.0300 -0.5129  0.2804
 8186TIP3    H245974   1.291   1.434  12.302  0.9585 -0.1385 -0.6728
 8187TIP3   OH245975   6.722   5.799   5.664  0.2945 -0.3112  0.2475
 8187TIP3    H145976   6.761   5.717   5.694  0.5520 -0.3263 -0.1286
 8187TIP3    H245977   6.773   5.868   5.707  0.2866 -0.3411  0.3034
 8188TIP3   OH245978   2.575   5.529   5.074  0.5119  0.2121 -0.1445
 8188TIP3    H145979   2.637   5.578   5.128  1.0580  0.7213 -1.2190
 8188TIP3    H245980   2.631   5.475   5.018 -0.0614 -0.6053  0.0708
 8189TIP3   OH245981   2.720   2.329   2.811  0.2876 -0.0299  0.3189
 8189TIP3    H145982   2.777   2.356   2.739  0.4032 -1.0488  0.0150
 8189TIP3    H245983   2.677   2.409   2.839  1.7674  0.7265  0.4508
 8190TIP3   OH245984   5.714   1.446  15.806 -0.5503  0.0317  0.2231
 8190TIP3    H145985   5.750   1.524  15.764  2.0710 -0.7606  0.9210
 8190TIP3    H245986   5.686   1.391  15.733  0.1368  0.4487 -0.3642
 8191TIP3   OH245987   5.806   1.102  16.273 -0.3009 -0.1859 -0.1099
 8191TIP3    H145988   5.832   1.067  16.187  0.7198  0.4073 -0.0606
 8191TIP3    H245989   5.759   1.183  16.252  1.3821  0.8292 -0.0726
 8192TIP3   OH245990   6.224   6.073   4.690  0.2026 -0.6134  0.2421
 8192TIP3    H145991   6.180   6.102   4.770  0.5143  1.6867 -0.3691
 8192TIP3    H245992   6.303   6.127   4.684 -0.8724  0.7761 -2.6690
 8193TIP3   OH245993   0.579   2.764  13.065 -0.0049  0.1349 -0.2837
 8193TIP3    H145994   0.586   2.835  13.129  0.6771 -0.5376  0.3968
 8193TIP3    H245995   0.491   2.774  13.027 -0.9875 -0.3649  1.8222
 8194TIP3   OH245996   5.438   6.185   2.127 -0.5290 -0.1197  0.7433
 8194TIP3    H145997   5.422   6.225   2.041  1.9648  2.1014  1.2545
 8194TIP3    H245998   5.451   6.092   2.108 -0.3624  0.2948 -1.2488
 8195TIP3   OH245999   0.464   5.630  11.793 -0.1720 -0.0542 -0.2989
 8195TIP3    H146000   0.384   5.657  11.747 -0.1577 -0.4134 -0.5379
 8195TIP3    H246001   0.511   5.712  11.809 -0.5676  0.1535 -0.1930
 8196TIP3   OH246002   1.444   3.672  13.287 -0.1488  0.0791 -0.3010
 8196TIP3    H146003   1.399   3.597  13.248 -0.4676 -0.2614  0.6957
 8196TIP3    H246004   1.509   3.633  13.345  1.1765  0.5718 -1.4138
 8197TIP3   OH246005   2.742   1.611   1.913 -0.2693 -0.2385 -0.5233
 8197TIP3    H146006   2.806   1.549   1.946 -1.1721 -1.0382 -0.2347
 8197TIP3    H246007   2.780   1.644   1.832  0.2699 -1.0943 -0.6285
 8198TIP3   OH246008   2.072   5.148  15.000 -0.7774 -0.0006 -0.7059
 8198TIP3    H146009   2.031   5.215  15.055  0.2100 -0.8678  1.1478
 8198TIP3    H246010   2.002   5.119  14.941 -1.8986  0.8914  0.1561
 8199TIP3   OH246011   4.315   5.500   1.126  0.0506 -0.0680  0.2261
 8199TIP3    H146012   4.352   5.584   1.155 -0.1341 -0.0450  0.3923
 8199TIP3    H246013   4.357   5.435   1.182  0.7070 -0.1573 -0.3530
 8200TIP3   OH246014   4.149   3.718  14.846 -0.2289 -0.1691 -0.2735
 8200TIP3    H146015   4.235   3.676  14.848 -0.7214 -1.3054 -1.8486
 8200TIP3    H246016   4.168   3.812  14.854  1.0210 -0.5138  1.1289
 8201TIP3   OH246017   1.180   5.648   6.279  0.0573 -0.6754 -0.4953
 8201TIP3    H146018   1.208   5.557   6.281  2.3425 -0.0548 -2.2774
 8201TIP3    H246019   1.240   5.693   6.338 -1.2146 -0.3274  0.5680
 8202TIP3   OH246020   4.873   3.694  17.032 -0.2617  0.6441 -0.8178
 8202TIP3    H146021   4.950   3.652  16.994  1.3598  1.4011  1.5328
 8202TIP3    H246022   4.902   3.722  17.119 -2.9122  1.8142 -0.2863
 8203TIP3   OH246023   5.299   3.131   0.771 -0.5493  0.3785  0.3616
 8203TIP3    H146024   5.299   3.192   0.846 -1.8267  1.1848 -0.2664
 8203TIP3    H246025   5.227   3.162   0.716 -1.4274 -1.9114  0.1926
 8204TIP3   OH246026   1.133   3.858  14.454 -0.6309  0.0579 -0.3095
 8204TIP3    H146027   1.088   3.833  14.373 -1.2258  0.5124 -0.1304
 8204TIP3    H246028   1.125   3.782  14.511  1.6287 -1.0457 -1.4219
 8205TIP3   OH246029   0.077   3.771   2.154  0.5257  0.1451 -0.1281
 8205TIP3    H146030   0.031   3.850   2.125 -0.3740 -0.5754 -0.6574
 8205TIP3    H246031   0.030   3.743   2.232  1.2605  0.5049  0.4542
 8206TIP3   OH246032   0.312   5.866   6.198  0.2005  0.5271 -0.9725
 8206TIP3    H146033   0.274   5.836   6.280 -0.5276 -2.0313 -2.1829
 8206TIP3    H246034   0.236   5.888   6.143  0.4799 -2.0041 -2.4532
 8207TIP3   OH246035   3.766   4.959   1.275  0.0367 -0.4638  0.8139
 8207TIP3    H146036   3.671   4.952   1.283  0.1084 -2.3965  0.3547
 8207TIP3    H246037   3.783   4.954   1.181  0.5930 -0.1770  0.8941
 8208TIP3   OH246038   5.981   2.610   2.818  0.0359 -0.1048  0.2683
 8208TIP3    H146039   5.894   2.648   2.801  0.8444  2.3986  1.5020
 8208TIP3    H246040   6.002   2.563   2.738 -2.5255 -0.8675 -0.0127
 8209TIP3   OH246041   4.771   5.933   0.017 -1.0657 -0.0989  0.1581
 8209TIP3    H146042   4.764   6.028   0.011 -1.3817 -0.0514  1.2863
 8209TIP3    H246043   4.715   5.909   0.091 -1.5536 -1.2319 -0.5556
 8210TIP3   OH246044   1.510   6.048   1.089 -0.1244  0.4314 -0.0813
 8210TIP3    H146045   1.418   6.047   1.063 -0.5209  2.0193  1.1461
 8210TIP3    H246046   1.542   5.961   1.067 -1.7029  0.1138 -1.2675
 8211TIP3   OH246047   3.362   4.054   3.513  0.1244  0.4078 -0.1702
 8211TIP3    H146048   3.425   3.982   3.504 -0.9514 -0.4314 -1.1313
 8211TIP3    H246049   3.301   4.041   3.441 -0.0301  2.3538 -0.4002
 8212TIP3   OH246050   6.784   0.874  14.236 -0.2197  0.6067  0.1769
 8212TIP3    H146051   6.749   0.837  14.155  1.7339 -1.8687  0.3852
 8212TIP3    H246052   6.838   0.947  14.207  0.3028 -0.1333 -0.7631
 8213TIP3   OH246053   1.543   1.904   1.209  0.2235  0.0196  0.3751
 8213TIP3    H146054   1.476   1.899   1.140  1.1691 -1.4725 -0.4544
 8213TIP3    H246055   1.583   1.990   1.197 -0.9927  0.5914  0.3514
 8214TIP3   OH246056   5.470   3.469   2.847 -0.2957  0.3573 -0.4401
 8214TIP3    H146057   5.527   3.394   2.865 -1.1897 -0.6747 -1.8283
 8214TIP3    H246058   5.386   3.431   2.822 -0.8195  1.8278 -0.9881
 8215TIP3   OH246059   4.037   3.654  12.503 -0.0499 -0.4763 -0.0250
 8215TIP3    H146060   3.999   3.602  12.432 -0.3353 -0.1473 -0.1172
 8215TIP3    H246061   4.105   3.599  12.540  1.1135 -0.0773 -1.5188
 8216TIP3   OH246062   4.170   4.970   6.172  0.0066 -0.5608 -0.1696
 8216TIP3    H146063   4.172   4.922   6.254  1.0679 -0.4249 -0.1071
 8216TIP3    H246064   4.237   5.037   6.182 -1.5727  1.0514 -0.1936
 8217TIP3   OH246065   3.773   1.929   4.891 -0.2609  0.2621  0.4538
 8217TIP3    H146066   3.801   1.837   4.889  2.3843  1.0374 -0.5721
 8217TIP3    H246067   3.840   1.974   4.942 -0.1911  2.0061 -1.0991
 8218TIP3   OH246068   1.872   1.656  15.664  0.3522 -0.5664 -0.4718
 8218TIP3    H146069   1.845   1.678  15.753  0.6711  1.2520 -0.8117
 8218TIP3    H246070   1.957   1.699  15.654 -0.4446  0.6330 -2.2043
 8219TIP3   OH246071   4.463   1.860  12.569  0.1223 -0.2431 -0.3779
 8219TIP3    H146072   4.498   1.783  12.613  0.6828 -0.1433 -0.6446
 8219TIP3    H246073   4.534   1.924  12.572 -0.9134  0.8601  1.3229
 8220TIP3   OH246074   5.692   1.670   5.804  0.0180  0.7380 -0.0156
 8220TIP3    H146075   5.717   1.747   5.856  0.5536  1.5095 -1.3631
 8220TIP3    H246076   5.750   1.674   5.728 -0.0266 -0.9602 -0.1539
 8221TIP3   OH246077   2.092   1.944  14.631  0.1495 -0.1498  0.1637
 8221TIP3    H146078   2.014   1.924  14.580 -1.1094  1.4234  1.4057
 8221TIP3    H246079   2.162   1.895  14.588 -1.2806 -0.6136 -1.7168
 8222TIP3   OH246080   6.043   2.443  12.219  0.3057  0.7527 -0.5390
 8222TIP3    H146081   6.136   2.451  12.242  0.4194 -1.1823 -0.2915
 8222TIP3    H246082   6.041   2.449  12.124  0.5140  2.2398 -0.4705
 8223TIP3   OH246083   3.565   5.467   6.490 -0.1264 -0.0078 -0.4667
 8223TIP3    H146084   3.619   5.390   6.504  1.3517  0.9130 -0.9499
 8223TIP3    H246085   3.531   5.489   6.577  2.2006  0.7583  0.3081
 8224TIP3   OH246086   6.365   3.253   2.922  0.2220  0.1388  0.4865
 8224TIP3    H146087   6.392   3.181   2.866 -0.7969 -0.8125  1.2087
 8224TIP3    H246088   6.443   3.309   2.928  0.9596 -0.7987 -0.2133
 8225TIP3   OH246089   3.213   5.953  14.406 -0.6306 -0.2793 -0.4005
 8225TIP3    H146090   3.254   6.023  14.458  3.7760  0.3758 -4.4315
 8225TIP3    H246091   3.163   5.999  14.339  0.3583 -0.9391 -1.6185
 8226TIP3   OH246092   0.823   6.752  15.151  1.2152  0.0572  0.0360
 8226TIP3    H146093   0.787   6.826  15.102 -1.7552 -1.1563  0.2595
 8226TIP3    H246094   0.838   6.787  15.239  0.1109  0.5091  0.0650
 8227TIP3   OH246095   6.088   3.061  13.027 -0.0585  0.2479 -0.5791
 8227TIP3    H146096   6.001   3.027  13.047 -1.0816  1.5292 -2.7163
 8227TIP3    H246097   6.121   3.003  12.958  1.1696 -0.7793  0.8414
 8228TIP3   OH246098   2.784   2.611   2.321  0.0730  0.2600 -0.6517
 8228TIP3    H146099   2.736   2.532   2.296 -0.3444  0.4347 -0.3981
 8228TIP3    H246100   2.831   2.637   2.241  0.0836 -0.1522 -0.7786
 8229TIP3   OH246101   1.194   6.097  14.985 -0.4376 -0.0492 -0.1391
 8229TIP3    H146102   1.276   6.140  14.960 -1.3004  2.1330  0.6745
 8229TIP3    H246103   1.156   6.067  14.902  2.3294 -3.3074 -0.3299
 8230TIP3   OH246104   3.148   4.101   2.580 -0.2547  0.5922 -0.6300
 8230TIP3    H146105   3.112   4.180   2.620 -0.1559  0.2801  0.0886
 8230TIP3    H246106   3.216   4.132   2.521 -0.3441  1.0568 -0.4880
 8231TIP3   OH246107   1.536   5.503  13.869  0.2297  0.3206 -0.0924
 8231TIP3    H146108   1.473   5.456  13.815  1.2013 -0.3086 -0.6808
 8231TIP3    H246109   1.487   5.526  13.948  0.2620 -3.2997  1.0519
 8232TIP3   OH246110   1.960   2.493  17.137 -0.0403 -0.5747  0.0345
 8232TIP3    H146111   1.978   2.583  17.162 -0.3610 -0.1852 -1.1184
 8232TIP3    H246112   2.026   2.442  17.184  2.5137  0.5983 -2.1161
 8233TIP3   OH246113   2.203   1.267  13.837 -0.2026  0.0373  0.8681
 8233TIP3    H146114   2.222   1.338  13.775  0.6823  1.3405  2.5889
 8233TIP3    H246115   2.285   1.256  13.886 -0.7184 -1.3498  1.4425
 8234TIP3   OH246116   4.624   5.125  12.735 -0.2543 -0.1970 -0.1139
 8234TIP3    H146117   4.590   5.037  12.724 -1.4555  0.3718 -1.0909
 8234TIP3    H246118   4.659   5.148  12.649  1.8133 -0.4369  0.6384
 8235TIP3   OH246119   4.174   0.107  10.741  0.1895  0.0820  0.1746
 8235TIP3    H146120   4.260   0.066  10.746  0.2179  0.2815  1.2985
 8235TIP3    H246121   4.126   0.053  10.678  1.0156 -0.2289 -0.2009
 8236TIP3   OH246122   1.986   6.517   1.995 -0.2119 -0.1272 -0.9413
 8236TIP3    H146123   2.075   6.487   2.015 -0.7414 -0.8244  0.4167
 8236TIP3    H246124   1.959   6.565   2.073 -0.7236  0.8137 -1.6817
 8237TIP3   OH246125   2.898   2.618  12.625 -0.3700  0.0280  0.0163
 8237TIP3    H146126   2.805   2.635  12.609 -0.3766 -0.1844 -0.1830
 8237TIP3    H246127   2.918   2.541  12.571 -0.2592 -0.3790  0.6323
 8238TIP3   OH246128   3.709   5.974  14.613 -0.3551  0.3750  0.2094
 8238TIP3    H146129   3.674   6.058  14.583  0.2197  1.8611  3.4438
 8238TIP3    H246130   3.795   5.996  14.649  0.2026 -1.7805  0.2544
 8239TIP3   OH246131   0.085   5.368   3.749  0.0049  0.3370 -0.6093
 8239TIP3    H146132   0.068   5.315   3.671  0.0338 -0.5840  0.0004
 8239TIP3    H246133   0.034   5.325   3.818  0.0012  1.1307 -0.1129
 8240TIP3   OH246134   1.287   6.445   1.672  0.0273 -0.5225  0.3219
 8240TIP3    H146135   1.283   6.538   1.651  1.3011 -0.1996  1.4043
 8240TIP3    H246136   1.354   6.410   1.613  0.1386 -0.5878  0.4866
 8241TIP3   OH246137   0.295   4.064   0.573 -0.1281 -0.4371  0.5973
 8241TIP3    H146138   0.340   3.997   0.625  0.4033  0.6096  1.4985
 8241TIP3    H246139   0.245   4.114   0.638 -0.8863 -0.2487 -0.1317
 8242TIP3   OH246140   6.048   6.682   4.701 -0.6522 -0.0999  0.3930
 8242TIP3    H146141   6.057   6.646   4.789  0.0643  0.4000  0.5289
 8242TIP3    H246142   6.064   6.607   4.643 -2.2089 -0.6790  0.6756
 8243TIP3   OH246143   2.223   6.224   4.546 -0.0959 -0.6372 -0.0296
 8243TIP3    H146144   2.238   6.192   4.635 -0.5189 -0.6715  0.0303
 8243TIP3    H246145   2.277   6.168   4.491  1.3036  0.3196  0.3436
 8244TIP3   OH246146   2.451   3.553   6.211  0.3450  0.3284 -0.3274
 8244TIP3    H146147   2.496   3.592   6.286 -0.2145 -0.4818  0.4389
 8244TIP3    H246148   2.521   3.521   6.155  0.7715  1.0694 -0.2300
 8245TIP3   OH246149   5.925   5.762   0.848 -0.3420  0.2027 -0.2804
 8245TIP3    H146150   6.011   5.784   0.813 -1.3208  0.4072 -2.6841
 8245TIP3    H246151   5.918   5.667   0.839 -0.3745  0.1872 -0.1022
 8246TIP3   OH246152   1.314   6.713   1.540  0.5864  0.0449 -0.2238
 8246TIP3    H146153   1.247   6.779   1.557 -0.3310 -0.7000 -0.8825
 8246TIP3    H246154   1.284   6.668   1.461 -0.1598 -2.9065  1.7010
 8247TIP3   OH246155   2.894   4.705  16.196 -0.2265 -0.2155  0.0404
 8247TIP3    H146156   2.964   4.715  16.132 -0.2471 -1.2275 -0.1490
 8247TIP3    H246157   2.879   4.610  16.202 -1.5785 -0.0180  0.0714
 8248TIP3   OH246158   1.441   5.608   1.597 -0.4254 -0.5194 -0.4704
 8248TIP3    H146159   1.350   5.598   1.570 -0.1962  0.9186 -1.9337
 8248TIP3    H246160   1.491   5.601   1.515  0.7907 -1.4309  0.3322
 8249TIP3   OH246161   5.782   3.860  11.482 -0.8508  0.7918  0.5223
 8249TIP3    H146162   5.712   3.851  11.546 -1.2381  1.4732  0.2086
 8249TIP3    H246163   5.857   3.889  11.532 -0.4493 -1.0862  1.0480
 8250TIP3   OH246164   3.983   1.081   5.606 -0.1772 -0.2335 -0.1022
 8250TIP3    H146165   4.053   1.078   5.541  0.7402  0.6672  0.8345
 8250TIP3    H246166   3.979   1.172   5.633 -1.0653 -0.4580  0.5509
 8251TIP3   OH246167   4.825   3.286   3.009 -0.5677 -0.0959 -0.3125
 8251TIP3    H146168   4.730   3.286   3.017 -0.5070 -1.8199  0.6814
 8251TIP3    H246169   4.842   3.271   2.916 -1.2614 -0.1856 -0.4257
 8252TIP3   OH246170   6.232   1.145  15.380  0.3419  0.1613 -0.1218
 8252TIP3    H146171   6.235   1.165  15.474  1.7333  1.2967 -0.3895
 8252TIP3    H246172   6.277   1.218  15.339  0.0016 -0.4804 -1.6679
 8253TIP3   OH246173   6.447   2.743   5.050  0.0261  0.4719 -0.0343
 8253TIP3    H146174   6.436   2.756   4.956  1.2764 -0.1082 -0.2699
 8253TIP3    H246175   6.373   2.688   5.075 -0.3593  0.6961 -0.6627
 8254TIP3   OH246176   2.631   6.155  16.782 -0.7196  0.4014 -0.1719
 8254TIP3    H146177   2.687   6.201  16.844 -1.3399  3.0475 -1.4825
 8254TIP3    H246178   2.671   6.172  16.696 -1.3768 -0.9056 -0.7509
 8255TIP3   OH246179   6.784   1.990   3.194 -0.3058  0.1965  0.1165
 8255TIP3    H146180   6.759   1.898   3.188  0.1849 -0.1796  3.0874
 8255TIP3    H246181   6.850   2.001   3.125 -1.2645 -1.3420 -1.0734
 8256TIP3   OH246182   2.767   5.710   0.441  0.0788 -0.5868 -0.2569
 8256TIP3    H146183   2.673   5.724   0.433 -0.2549 -2.2253  0.5491
 8256TIP3    H246184   2.807   5.782   0.391 -1.6066 -0.6273 -1.7082
 8257TIP3   OH246185   3.647   4.536   1.577  0.2767  0.1014  0.0880
 8257TIP3    H146186   3.724   4.496   1.618 -0.9546 -2.2155  0.2326
 8257TIP3    H246187   3.670   4.541   1.484  0.5844 -0.6885  0.1130
 8258TIP3   OH246188   4.727   5.965  12.770  0.1927  0.0022  0.1168
 8258TIP3    H146189   4.659   5.943  12.707 -1.4159  0.1775  1.7377
 8258TIP3    H246190   4.779   6.032  12.726 -1.1374  0.4197 -0.8861
 8259TIP3   OH246191   5.454   4.577  11.306 -0.5231  0.3923 -0.5584
 8259TIP3    H146192   5.538   4.618  11.324 -0.4910  1.0028 -2.0272
 8259TIP3    H246193   5.428   4.612  11.220 -0.3831 -2.8559 -1.9812
 8260TIP3   OH246194   4.656   0.391   3.962  0.1849 -0.3625 -0.0109
 8260TIP3    H146195   4.648   0.476   4.006  0.6354 -0.8927  1.0901
 8260TIP3    H246196   4.743   0.393   3.922  1.0935 -1.1724  1.8722
 8261TIP3   OH246197   2.215   3.408  16.699  0.3281  0.1965 -0.3711
 8261TIP3    H146198   2.132   3.387  16.656 -0.5514  0.3544  1.2232
 8261TIP3    H246199   2.234   3.332  16.753  0.5979  0.6786  0.2194
 8262TIP3   OH246200   4.921   2.868   1.498 -0.2865  0.0585 -0.1129
 8262TIP3    H146201   4.995   2.827   1.452  0.5584  1.0616  0.3306
 8262TIP3    H246202   4.942   2.855   1.591 -0.5324  0.5966  0.0144
 8263TIP3   OH246203   4.391   5.906  12.367 -0.0742  0.4751 -0.0636
 8263TIP3    H146204   4.336   5.832  12.341  1.1018 -0.9254  1.3228
 8263TIP3    H246205   4.444   5.924  12.289  1.3151 -1.7455  0.3120
 8264TIP3   OH246206   3.326   4.961   4.554 -0.6539 -0.3337  0.3441
 8264TIP3    H146207   3.361   4.923   4.634  0.4121 -0.4232 -0.1527
 8264TIP3    H246208   3.284   5.042   4.581  0.7369  0.2319  0.8274
 8265TIP3   OH246209   0.096   4.373   4.101  0.2791 -0.4773 -0.4895
 8265TIP3    H146210   0.015   4.342   4.141 -0.1247  2.1329  0.8654
 8265TIP3    H246211   0.093   4.468   4.112  1.4665  0.0742 -4.3651
 8266TIP3   OH246212   1.220   3.679   4.793  0.0233 -0.2355 -0.1952
 8266TIP3    H146213   1.204   3.772   4.780 -0.6018 -0.4611 -1.1289
 8266TIP3    H246214   1.290   3.658   4.731  0.5062 -0.2753  0.3700
 8267TIP3   OH246215   4.065   1.176   6.145 -0.1825 -0.2494  0.0255
 8267TIP3    H146216   4.144   1.197   6.195  0.2849 -0.4581 -0.6188
 8267TIP3    H246217   4.010   1.128   6.207  0.9174 -1.5992 -0.0117
 8268TIP3   OH246218   0.809   3.549  13.143  0.2181 -0.4895  0.7445
 8268TIP3    H146219   0.797   3.593  13.059 -0.8101 -1.1988  0.5067
 8268TIP3    H246220   0.799   3.619  13.208  0.9071  0.0383  0.2909
 8269TIP3   OH246221   6.424   3.951   4.855 -0.3327 -0.2768 -0.2124
 8269TIP3    H146222   6.376   3.908   4.926  1.7260 -1.4086  0.5423
 8269TIP3    H246223   6.356   3.976   4.792 -2.0477 -0.5183  1.4831
 8270TIP3   OH246224   5.543   3.994  14.952  0.2716  0.1419 -0.3906
 8270TIP3    H146225   5.484   3.922  14.975  0.3111  0.0143 -0.6882
 8270TIP3    H246226   5.548   4.047  15.032  0.4691 -0.3399 -0.0812
 8271TIP3   OH246227   3.739   6.042   4.700  0.4220 -0.1841  0.3543
 8271TIP3    H146228   3.696   6.038   4.785 -0.5992  0.2881 -0.1222
 8271TIP3    H246229   3.735   5.952   4.666  0.6162 -0.3215  0.6955
 8272TIP3   OH246230   0.175   3.518  16.305 -0.0827 -0.3706  0.3546
 8272TIP3    H146231   0.141   3.433  16.332 -0.9908 -0.5506 -1.3333
 8272TIP3    H246232   0.165   3.519  16.210  1.9518  0.7388  0.1156
 8273TIP3   OH246233   1.415   3.563   1.074 -0.3201  0.3553 -0.3919
 8273TIP3    H146234   1.443   3.555   0.983 -0.7850  0.2536 -0.5256
 8273TIP3    H246235   1.387   3.475   1.098 -0.4340  0.4371 -0.2261
 8274TIP3   OH246236   1.331   0.597  16.526 -0.2892 -0.0990 -0.3684
 8274TIP3    H146237   1.257   0.600  16.467  0.2736  2.6357 -1.0052
 8274TIP3    H246238   1.402   0.642  16.479  1.8531 -2.8287  0.1308
 8275TIP3   OH246239   5.503   0.699   0.218  0.4505  0.4434  0.3391
 8275TIP3    H146240   5.482   0.616   0.174 -1.2856  1.3338 -0.5973
 8275TIP3    H246241   5.598   0.705   0.216  0.6671 -2.0044  1.3341
 8276TIP3   OH246242   3.327   4.604  12.622 -0.4600 -0.3354  0.2342
 8276TIP3    H146243   3.231   4.610  12.615 -0.4438 -2.6075 -3.3530
 8276TIP3    H246244   3.358   4.692  12.601 -1.7498  0.7574  2.6745
 8277TIP3   OH246245   5.234   5.994   5.507  0.2798  0.2522 -0.0250
 8277TIP3    H146246   5.244   6.049   5.585 -0.6744 -0.8125  0.8659
 8277TIP3    H246247   5.312   6.011   5.455  0.9940  0.8762  1.2437
 8278TIP3   OH246248   5.604   4.282  14.641  0.2468  0.1084  0.1773
 8278TIP3    H146249   5.554   4.241  14.570  0.4774  2.0824 -1.1678
 8278TIP3    H246250   5.675   4.329  14.596  1.8683 -0.6333  1.8932
 8279TIP3   OH246251   2.143   1.613  14.293 -0.1945 -0.1742 -0.0448
 8279TIP3    H146252   2.219   1.588  14.241 -1.2013 -2.7419 -0.4096
 8279TIP3    H246253   2.102   1.529  14.316 -1.6150  1.0510  2.0977
 8280TIP3   OH246254   2.856   6.662  12.180 -0.2616  0.1357  0.1681
 8280TIP3    H146255   2.851   6.668  12.275  1.3133 -1.3320  0.3656
 8280TIP3    H246256   2.793   6.595  12.156  0.5097 -0.6646  0.3443
 8281TIP3   OH246257   0.123   3.496   5.289  0.1034 -0.1337 -0.0279
 8281TIP3    H146258   0.102   3.519   5.198 -1.1678  1.3905  0.6199
 8281TIP3    H246259   0.048   3.444   5.318 -0.4972  1.1284  0.7602
 8282TIP3   OH246260   3.248   4.216  16.018  0.0282  0.2723  0.1223
 8282TIP3    H146261   3.334   4.221  16.061 -0.1436 -1.1874  0.6977
 8282TIP3    H246262   3.229   4.305  15.992  1.3653  0.7543  0.7189
 8283TIP3   OH246263   5.580   1.451  10.649 -0.6355 -0.3160 -0.0077
 8283TIP3    H146264   5.672   1.477  10.648 -0.9289  0.7529 -0.2140
 8283TIP3    H246265   5.563   1.417  10.561 -1.0383  1.7257 -0.7599
 8284TIP3   OH246266   1.595   6.120   0.792  0.1983 -0.1861 -0.0386
 8284TIP3    H146267   1.526   6.144   0.854  1.6673 -1.7350  2.2579
 8284TIP3    H246268   1.556   6.052   0.738  0.3144 -2.0904  2.1884
 8285TIP3   OH246269   3.405   6.358  16.559 -0.6185  0.0452  0.1967
 8285TIP3    H146270   3.319   6.322  16.535 -1.0155 -0.1726  1.9061
 8285TIP3    H246271   3.394   6.453  16.550 -0.6552 -0.0457 -0.7925
 8286TIP3   OH246272   4.176   1.473  12.227 -0.5822  0.2945 -0.0075
 8286TIP3    H146273   4.084   1.475  12.255 -0.9637  0.5909 -1.2610
 8286TIP3    H246274   4.183   1.543  12.163  0.5497  0.3220  0.1346
 8287TIP3   OH246275   5.868   1.713   4.126  0.6867 -0.0174  0.0872
 8287TIP3    H146276   5.925   1.745   4.196  0.1897  1.8713 -0.3456
 8287TIP3    H246277   5.787   1.762   4.138  0.2947 -0.3281 -1.2904
 8288TIP3   OH246278   6.730   0.230   3.436 -0.0523 -0.0593  0.2629
 8288TIP3    H146279   6.683   0.296   3.386  0.5149  1.2140  1.3999
 8288TIP3    H246280   6.718   0.149   3.386 -0.4236  0.9688 -1.3358
 8289TIP3   OH246281   4.606   4.946   3.382  0.8999 -0.3963 -0.1238
 8289TIP3    H146282   4.549   5.015   3.348  1.6151  0.0823 -0.3515
 8289TIP3    H246283   4.556   4.908   3.454  0.3225  0.0821 -0.2673
 8290TIP3   OH246284   2.284   5.646   2.676  0.0166 -0.0866  0.7651
 8290TIP3    H146285   2.189   5.650   2.688 -0.0492 -0.2932  0.3420
 8290TIP3    H246286   2.303   5.553   2.663  0.4847 -0.2474  2.4374
 8291TIP3   OH246287   4.236   3.626   1.482 -0.3269 -0.0137  0.0192
 8291TIP3    H146288   4.175   3.659   1.548  0.9851  0.1265  1.1949
 8291TIP3    H246289   4.202   3.540   1.458 -2.8112  1.4061 -1.8030
 8292TIP3   OH246290   3.071   4.763  13.542  0.2757 -0.4080  0.1462
 8292TIP3    H146291   2.976   4.755  13.531  0.0828 -0.2750  1.5737
 8292TIP3    H246292   3.090   4.854  13.520 -0.2094  0.0583  1.5523
 8293TIP3   OH246293   5.105   2.114   1.491  0.0043 -0.3564  0.3888
 8293TIP3    H146294   5.034   2.126   1.554 -0.0599 -1.0804  0.4505
 8293TIP3    H246295   5.148   2.033   1.518  0.1884 -0.4870 -0.2949
 8294TIP3   OH246296   3.224   5.342   0.593 -0.1895  0.1348 -0.4261
 8294TIP3    H146297   3.133   5.324   0.615  0.3665 -1.0210  0.9806
 8294TIP3    H246298   3.228   5.331   0.498 -0.8816 -2.8717 -0.1810
 8295TIP3   OH246299   4.097   3.152  16.865 -0.6283 -0.0098  0.1171
 8295TIP3    H146300   4.094   3.062  16.832  2.1655  0.0908 -0.5379
 8295TIP3    H246301   4.005   3.176  16.877 -1.4793 -2.3764 -1.2803
 8296TIP3   OH246302   1.451   3.408   5.842 -0.1692  0.0137 -0.1122
 8296TIP3    H146303   1.426   3.460   5.766 -1.5734 -0.3717  0.0795
 8296TIP3    H246304   1.419   3.457   5.917 -1.8578 -1.2914  0.0544
 8297TIP3   OH246305   1.511   0.280  11.351  0.1765  0.4556  0.2893
 8297TIP3    H146306   1.435   0.287  11.292  1.2955  1.2353 -1.0958
 8297TIP3    H246307   1.515   0.366  11.394 -1.2049 -0.4278  2.2510
 8298TIP3   OH246308   5.772   2.021  13.076  0.1685  0.3062 -0.3694
 8298TIP3    H146309   5.750   2.002  12.984  1.0999  0.3319 -0.6072
 8298TIP3    H246310   5.705   1.976  13.127  1.4089 -2.3571 -0.9747
 8299TIP3   OH246311   3.046   1.811  14.897 -0.2882 -0.1320 -0.3997
 8299TIP3    H146312   2.998   1.729  14.910 -1.2736  0.4762 -0.1547
 8299TIP3    H246313   3.066   1.841  14.986  1.1375 -0.7188 -0.5118
 8300TIP3   OH246314   2.458   2.513   4.310 -0.0456 -0.2271 -1.0299
 8300TIP3    H146315   2.481   2.464   4.389 -1.0841  1.7705  0.5602
 8300TIP3    H246316   2.397   2.456   4.264 -1.5311 -0.3323  0.9799
 8301TIP3   OH246317   5.659   5.585   0.587  0.4476 -0.9024  0.1651
 8301TIP3    H146318   5.715   5.561   0.514  3.5401  0.6164  1.9459
 8301TIP3    H246319   5.623   5.670   0.563  0.3677 -1.0328 -0.1754
 8302TIP3   OH246320   1.141   1.853   0.018  0.6221 -0.0822  0.0694
 8302TIP3    H146321   1.140   1.758   0.027 -0.3917 -0.0117  0.7089
 8302TIP3    H246322   1.090   1.870  -0.062  3.2033 -0.2332 -1.6736
 8303TIP3   OH246323   5.662   6.770   6.166 -0.4410  0.8645 -0.4292
 8303TIP3    H146324   5.657   6.745   6.259 -0.4601  0.7912 -0.4498
 8303TIP3    H246325   5.672   6.865   6.168  0.7185  0.7415 -0.3207
 8304TIP3   OH246326   1.120   0.183   1.974  0.6675  0.2915 -0.5965
 8304TIP3    H146327   1.188   0.141   2.026  0.4400 -0.1420 -0.6460
 8304TIP3    H246328   1.148   0.171   1.884  0.1575 -0.5468 -0.6545
 8305TIP3   OH246329   5.439   2.701   4.836 -0.2319  0.4513 -0.6977
 8305TIP3    H146330   5.427   2.786   4.880 -1.7501 -0.5306  0.8478
 8305TIP3    H246331   5.433   2.722   4.743  0.3601  2.1869 -0.3738
 8306TIP3   OH246332   5.640   3.979   5.643 -0.1018  0.2252  0.5386
 8306TIP3    H146333   5.612   4.053   5.697 -1.5070  1.8709 -2.3480
 8306TIP3    H246334   5.602   3.902   5.685  0.7294  1.1859  3.1435
 8307TIP3   OH246335   3.210   0.171  16.861 -0.2594 -0.0869 -0.0624
 8307TIP3    H146336   3.145   0.207  16.921  0.9698 -1.5813  2.2297
 8307TIP3    H246337   3.169   0.091  16.827  0.0004 -0.5373  0.6752
 8308TIP3   OH246338   4.010   1.057  12.327 -0.1136  0.1103 -0.5746
 8308TIP3    H146339   3.978   1.145  12.308 -0.9333 -0.0695 -0.0287
 8308TIP3    H246340   3.971   1.035  12.411  0.7830 -0.4400 -0.2963
 8309TIP3   OH246341   6.087   6.467  11.711 -0.4992  0.7021  0.2708
 8309TIP3    H146342   6.059   6.471  11.620 -0.6767  2.5018  0.3908
 8309TIP3    H246343   6.099   6.558  11.736  1.0491  0.1544  1.5851
 8310TIP3   OH246344   4.497   0.303  16.149  0.3147 -0.1795 -0.3500
 8310TIP3    H146345   4.447   0.241  16.202  0.9920 -0.1570  0.3044
 8310TIP3    H246346   4.557   0.345  16.210  0.3088  0.6589 -0.9138
 8311TIP3   OH246347   3.106   1.622  11.200  0.5763  0.1895  0.1087
 8311TIP3    H146348   3.070   1.711  11.209  1.1825  0.3210  1.3974
 8311TIP3    H246349   3.067   1.573  11.273 -1.4715 -1.2230 -1.8554
 8312TIP3   OH246350   5.141   0.885  14.615 -0.7088 -0.2619  0.4246
 8312TIP3    H146351   5.197   0.868  14.690 -0.8492  1.1496  0.8559
 8312TIP3    H246352   5.181   0.960  14.571 -0.3281 -1.3831 -1.2191
 8313TIP3   OH246353   3.925   2.549   2.491  0.2585 -0.2958  0.4957
 8313TIP3    H146354   3.953   2.520   2.578  1.7919 -1.6678 -0.4309
 8313TIP3    H246355   4.002   2.591   2.454 -0.2276 -0.1776 -0.3910
 8314TIP3   OH246356   2.720   1.047  16.481  0.3979  0.5268  0.0859
 8314TIP3    H146357   2.806   1.035  16.439  0.1197  1.1503 -0.6746
 8314TIP3    H246358   2.674   0.965  16.463 -0.3867  1.4843 -2.4481
 8315TIP3   OH246359   5.397   5.760  11.508 -0.2967  0.3313 -0.6932
 8315TIP3    H146360   5.330   5.703  11.546 -0.0916  0.6781  0.2034
 8315TIP3    H246361   5.466   5.700  11.479 -0.1238  0.1018  0.1570
 8316TIP3   OH246362   6.166   3.539   2.346 -0.2837  0.3293 -0.0236
 8316TIP3    H146363   6.248   3.493   2.331 -0.5733  0.0071 -0.6222
 8316TIP3    H246364   6.172   3.569   2.437  0.3919  0.1021  0.0089
 8317TIP3   OH246365   2.152   2.772  15.318  0.1309 -0.2066 -0.3453
 8317TIP3    H146366   2.227   2.808  15.364  0.7089 -1.0624 -0.6056
 8317TIP3    H246367   2.186   2.695  15.273 -0.7838 -0.2993 -0.8953
 8318TIP3   OH246368   5.968   6.423  12.409 -0.8102 -0.0351  0.0598
 8318TIP3    H146369   5.993   6.421  12.316 -1.9763  1.9850 -0.3185
 8318TIP3    H246370   5.913   6.501  12.417  0.0092  0.2981  2.6430
 8319TIP3   OH246371   4.614   0.608  10.499 -0.3054 -0.3406  0.2552
 8319TIP3    H146372   4.520   0.599  10.482 -0.7391  3.2508  0.4213
 8319TIP3    H246373   4.621   0.675  10.567  2.4089  0.0124 -0.2950
 8320TIP3   OH246374   0.126   0.342  12.802 -0.1136 -0.0198  0.3381
 8320TIP3    H146375   0.065   0.294  12.858  0.1357  0.0290  0.6513
 8320TIP3    H246376   0.097   0.433  12.807 -2.0835 -0.4562 -2.1605
 8321TIP3   OH246377   5.796   1.996  14.649  0.1493  0.0588 -0.1925
 8321TIP3    H146378   5.738   1.962  14.582  1.0022  0.1387 -0.9803
 8321TIP3    H246379   5.805   1.924  14.712  1.5454 -1.0371 -1.5869
 8322TIP3   OH246380   0.468   5.819   4.680  0.4947  0.7590 -0.1167
 8322TIP3    H146381   0.417   5.739   4.673 -0.1814  1.2484 -0.7884
 8322TIP3    H246382   0.426   5.881   4.621  2.6189  0.7706 -1.6858
 8323TIP3   OH246383   2.956   2.819  15.650 -0.3384  0.0037  0.2476
 8323TIP3    H146384   2.921   2.908  15.649 -1.9171 -0.5906 -0.5696
 8323TIP3    H246385   3.022   2.819  15.718  1.8901  2.6235 -1.8109
 8324TIP3   OH246386   5.738   2.975  14.435  0.3726  0.2280 -0.9995
 8324TIP3    H146387   5.731   3.033  14.511 -2.5956  0.2784 -1.2326
 8324TIP3    H246388   5.772   3.031  14.366  1.6431  0.5706 -0.1226
 8325TIP3   OH246389   1.148   0.942   5.763 -0.2183  0.1729  0.1235
 8325TIP3    H146390   1.148   1.004   5.836 -1.3901 -1.1199  1.2605
 8325TIP3    H246391   1.238   0.942   5.732  0.2140  1.0322  1.3339
 8326TIP3   OH246392   4.007   3.715   2.482 -0.2524  0.1740  0.2305
 8326TIP3    H146393   4.047   3.686   2.564  0.5372 -1.6054 -0.7539
 8326TIP3    H246394   3.938   3.651   2.465 -1.9311  1.8340  0.6475
 8327TIP3   OH246395   2.524   3.636  11.363 -0.0845  0.3343  0.4758
 8327TIP3    H146396   2.583   3.562  11.381 -0.1125  0.3293  0.5507
 8327TIP3    H246397   2.466   3.604  11.295 -0.2942  0.1794  0.7270
 8328TIP3   OH246398   0.620   4.193  16.757 -0.4764 -0.3439 -0.1035
 8328TIP3    H146399   0.619   4.109  16.710  0.0580 -0.0686 -0.6080
 8328TIP3    H246400   0.616   4.259  16.688  4.1332  0.1664 -0.0312
 8329TIP3   OH246401   2.595   0.762  14.531  0.2943 -0.5712 -0.0720
 8329TIP3    H146402   2.556   0.810  14.459  0.7422 -0.5220 -0.2870
 8329TIP3    H246403   2.606   0.673  14.497  1.5501 -0.2756 -0.4631
 8330TIP3   OH246404   3.303   4.065  13.688 -0.0208 -0.1285  0.2086
 8330TIP3    H146405   3.310   4.160  13.689  0.1075 -0.1324 -0.4732
 8330TIP3    H246406   3.312   4.040  13.781 -1.3162  0.5952  0.5358
 8331TIP3   OH246407   2.526   3.774  12.055 -0.2682 -0.4469 -0.0457
 8331TIP3    H146408   2.619   3.786  12.074 -0.4857  0.6345  0.3905
 8331TIP3    H246409   2.523   3.703  11.990  0.9215  0.1172 -0.7283
 8332TIP3   OH246410   0.728   1.887  12.742 -0.5921  0.1480  0.0058
 8332TIP3    H146411   0.744   1.828  12.816  0.1239  1.5632  1.0073
 8332TIP3    H246412   0.799   1.868  12.680 -2.0310 -2.0878 -1.0293
 8333TIP3   OH246413   6.528   6.193  15.961 -0.3402 -0.1636  0.3227
 8333TIP3    H146414   6.469   6.119  15.976  0.7800 -1.0234  0.5085
 8333TIP3    H246415   6.614   6.160  15.984  0.1816  1.1832  0.3257
 8334TIP3   OH246416   0.259   2.500  13.608  0.1319 -0.0668 -0.0203
 8334TIP3    H146417   0.296   2.465  13.689  0.2616 -1.6093 -0.7351
 8334TIP3    H246418   0.204   2.430  13.574 -2.0398  1.5615  0.0907
 8335TIP3   OH246419   2.126   0.743  16.967  0.3542  0.1735  0.3065
 8335TIP3    H146420   2.171   0.741  17.052  1.1311  1.4679 -0.0520
 8335TIP3    H246421   2.182   0.798  16.912 -0.5503 -0.0088 -0.8085
 8336TIP3   OH246422   4.212   6.243  13.995  0.4775  0.2354 -0.6604
 8336TIP3    H146423   4.256   6.322  13.961  1.3504 -0.3761 -0.9841
 8336TIP3    H246424   4.122   6.271  14.012  0.3418  0.8919 -2.3219
 8337TIP3   OH246425   0.588   3.001   2.469 -0.1753 -0.0987 -0.3985
 8337TIP3    H146426   0.635   2.924   2.503  0.1337 -0.0657 -0.7514
 8337TIP3    H246427   0.635   3.023   2.389 -0.2192  0.5106 -0.2527
 8338TIP3   OH246428   6.290   2.789  10.946  0.3417  0.4650  0.2017
 8338TIP3    H146429   6.263   2.879  10.929 -0.8688  0.7042  3.0206
 8338TIP3    H246430   6.209   2.738  10.942  0.8967 -0.3696 -0.5368
 8339TIP3   OH246431   1.979   6.028   4.779  0.5905  0.2785  0.4667
 8339TIP3    H146432   1.974   6.049   4.873 -0.9546  0.1226  0.4239
 8339TIP3    H246433   1.894   5.990   4.758  1.3657 -0.8316 -0.7375
 8340TIP3   OH246434   6.268   6.654  12.395  0.1317  0.2062  0.0567
 8340TIP3    H146435   6.292   6.736  12.438 -1.0629 -0.0437  1.2371
 8340TIP3    H246436   6.222   6.604  12.462  1.2904 -1.6662 -0.4882
 8341TIP3   OH246437   5.530   3.767   3.943  0.0897 -0.0387  0.3558
 8341TIP3    H146438   5.513   3.748   4.036  2.3069 -0.8414  0.6023
 8341TIP3    H246439   5.540   3.862   3.940  1.9655 -0.1900  1.2852
 8342TIP3   OH246440   5.981   5.156  15.757  0.3255  0.8788 -0.2269
 8342TIP3    H146441   5.926   5.233  15.775 -0.4028  0.1665  0.6337
 8342TIP3    H246442   6.059   5.192  15.715 -0.2146  2.0429 -0.2637
 8343TIP3   OH246443   2.355   2.614  13.844 -0.0659  0.0887  0.1949
 8343TIP3    H146444   2.377   2.640  13.754  2.5935  1.4038  1.1650
 8343TIP3    H246445   2.343   2.696  13.891 -2.9685 -0.5934  0.7506
 8344TIP3   OH246446   3.284   0.313   5.703 -0.0689  0.5009  0.0045
 8344TIP3    H146447   3.372   0.330   5.670  0.9637 -2.7304  0.9293
 8344TIP3    H246448   3.259   0.229   5.664 -1.6413  0.0494  1.9062
 8345TIP3   OH246449   0.555   2.387   5.731  0.6079  0.6113 -0.0557
 8345TIP3    H146450   0.478   2.330   5.734  0.7936  0.3508 -0.2611
 8345TIP3    H246451   0.629   2.328   5.743  0.7801  0.8553  0.0765
 8346TIP3   OH246452   5.638   4.873  10.477 -0.2253 -0.1863 -0.4577
 8346TIP3    H146453   5.717   4.918  10.448  0.1733 -0.6843 -0.1705
 8346TIP3    H246454   5.614   4.815  10.405 -0.5754  0.2852 -0.7168
 8347TIP3   OH246455   2.497   6.514   1.926  0.6416 -0.0852 -0.4327
 8347TIP3    H146456   2.573   6.457   1.937  0.8083  0.2017 -0.1045
 8347TIP3    H246457   2.467   6.496   1.836  0.3353 -1.1149 -0.1349
 8348TIP3   OH246458   3.437   5.821   5.522 -0.6928  0.4863  0.4968
 8348TIP3    H146459   3.514   5.863   5.483 -0.8143 -0.7973 -1.1735
 8348TIP3    H246460   3.473   5.761   5.587 -0.0782 -1.6997 -1.7558
 8349TIP3   OH246461   2.359   3.770   4.466  0.5973  0.2109  0.4464
 8349TIP3    H146462   2.445   3.783   4.427  0.7226 -1.6336  0.0589
 8349TIP3    H246463   2.297   3.795   4.397  0.8263  0.9736  0.5208
 8350TIP3   OH246464   3.719   4.258  11.093  0.2642 -0.1176 -0.1181
 8350TIP3    H146465   3.633   4.297  11.111 -1.3216 -2.2489 -2.6942
 8350TIP3    H246466   3.778   4.333  11.086 -1.3818  1.4054  1.5662
 8351TIP3   OH246467   1.976   4.393  11.994 -0.1108 -0.4397  0.4699
 8351TIP3    H146468   2.041   4.393  12.064 -0.4558 -1.7155  0.7971
 8351TIP3    H246469   2.020   4.438  11.921 -0.3907  2.4709  2.0371
 8352TIP3   OH246470   4.120   3.368   2.702  0.6179 -0.1783 -0.4608
 8352TIP3    H146471   4.123   3.273   2.697 -0.7984 -0.2776  0.4529
 8352TIP3    H246472   4.120   3.397   2.610  3.0640 -0.9598 -0.7429
 8353TIP3   OH246473   5.555   6.034  14.883  0.8014 -0.6011  0.6172
 8353TIP3    H146474   5.563   6.114  14.935  0.4880 -0.0676 -0.1554
 8353TIP3    H246475   5.482   5.987  14.924 -0.4941  0.5652 -0.3031
 8354TIP3   OH246476   2.274   1.429   5.145 -0.2722 -0.0499 -0.0215
 8354TIP3    H146477   2.223   1.510   5.151  0.3500  0.2850  0.9614
 8354TIP3    H246478   2.227   1.367   5.201 -0.8387 -0.4237 -0.9039
 8355TIP3   OH246479   5.280   2.334   1.367  0.1868  0.1612  0.9770
 8355TIP3    H146480   5.336   2.301   1.437 -1.0479 -0.6298  1.6187
 8355TIP3    H246481   5.191   2.329   1.403 -0.3884  0.4825 -0.3597
 8356TIP3   OH246482   6.332   1.450  15.137  0.6199  0.1849  0.1046
 8356TIP3    H146483   6.361   1.382  15.198 -0.4649  2.1229  2.9131
 8356TIP3    H246484   6.263   1.409  15.086  1.6956 -1.5501  0.0030
 8357TIP3   OH246485   4.478   5.099  11.384 -0.3089 -0.1036 -0.4171
 8357TIP3    H146486   4.525   5.148  11.317 -0.7977  0.6027 -0.2475
 8357TIP3    H246487   4.544   5.078  11.450 -0.4945  2.0962  0.4990
 8358TIP3   OH246488   6.609   2.465  17.221  0.3714  0.1742  0.1571
 8358TIP3    H146489   6.602   2.376  17.254  0.2099  0.8541  2.0540
 8358TIP3    H246490   6.532   2.510  17.257 -0.5464  0.6283 -2.2921
 8359TIP3   OH246491   0.292   2.442  12.929 -0.1144 -0.2873  0.4129
 8359TIP3    H146492   0.284   2.521  12.982  2.0317 -0.0659  0.4487
 8359TIP3    H246493   0.295   2.370  12.993 -1.5554 -0.3655  0.4030
 8360TIP3   OH246494   3.403   4.254   0.489 -0.0658  0.0933  0.2165
 8360TIP3    H146495   3.411   4.159   0.502  0.0022  0.0729  0.0219
 8360TIP3    H246496   3.312   4.267   0.461  0.0310  0.0486 -0.1118
 8361TIP3   OH246497   6.156   5.840  15.136 -0.4296 -0.5682  0.0343
 8361TIP3    H146498   6.240   5.831  15.092  0.7068  0.8657  1.8387
 8361TIP3    H246499   6.101   5.886  15.073  0.1803 -1.3581 -1.0925
 8362TIP3   OH246500   0.953   0.944   4.844 -0.2754  0.0625 -0.5755
 8362TIP3    H146501   0.887   0.949   4.913 -0.3158 -0.7998 -0.5505
 8362TIP3    H246502   0.926   1.011   4.781 -3.8574 -3.3022 -2.8746
 8363TIP3   OH246503   5.628   1.560   4.108 -0.5007 -0.3533 -0.1967
 8363TIP3    H146504   5.577   1.599   4.179  0.3459 -1.6969  1.1980
 8363TIP3    H246505   5.706   1.614   4.101 -0.1665 -0.7369  0.5184
 8364TIP3   OH246506   3.590   0.188  12.887 -0.1282 -0.7174  0.6653
 8364TIP3    H146507   3.549   0.105  12.864  0.5378 -1.0753  0.7894
 8364TIP3    H246508   3.525   0.231  12.943 -1.1808 -0.4271 -0.7415
 8365TIP3   OH246509   2.122   5.712   4.902 -0.4013  0.2869  0.0510
 8365TIP3    H146510   2.140   5.715   4.809 -0.8540 -0.1511 -0.0508
 8365TIP3    H246511   2.207   5.723   4.944 -0.1637  0.1942 -0.4118
 8366TIP3   OH246512   4.667   6.740  10.975  0.0260 -0.2943  0.0693
 8366TIP3    H146513   4.649   6.794  11.053 -3.0804  0.7468 -1.2809
 8366TIP3    H246514   4.698   6.803  10.910 -0.8810 -0.5722 -0.6363
 8367TIP3   OH246515   3.022   0.420   5.943  0.3823 -0.1148 -0.2701
 8367TIP3    H146516   3.072   0.472   5.881 -0.5737  0.6065 -0.4557
 8367TIP3    H246517   2.930   0.442   5.925  0.0338 -0.7843  0.6045
 8368TIP3   OH246518   6.239   6.050   0.836 -0.6851  0.8186 -0.0303
 8368TIP3    H146519   6.296   6.124   0.856 -2.0612  2.0700 -0.5608
 8368TIP3    H246520   6.288   5.973   0.863  1.4819  1.8126 -1.0182
 8369TIP3   OH246521   4.961   1.426   5.052 -0.0081  0.0968 -0.0375
 8369TIP3    H146522   4.889   1.455   4.997  0.4349 -0.3467 -0.8575
 8369TIP3    H246523   4.923   1.360   5.109 -0.6670  1.1627  0.7854
 8370TIP3   OH246524   2.873   5.918   0.726 -0.1873  0.0955  0.2595
 8370TIP3    H146525   2.797   5.906   0.783  0.1339 -2.2226  0.2457
 8370TIP3    H246526   2.852   5.868   0.647  0.6182  0.8959 -0.4718
 8371TIP3   OH246527   1.025   4.427  12.691 -0.1274 -0.0403  0.3058
 8371TIP3    H146528   1.094   4.373  12.653 -0.5066 -0.8037  0.6943
 8371TIP3    H246529   0.972   4.455  12.616 -0.0987 -0.4535  0.1324
 8372TIP3   OH246530   6.175   6.040  16.962  0.4598  0.4942 -0.4133
 8372TIP3    H146531   6.136   5.989  17.033 -1.2072 -0.6783 -2.1261
 8372TIP3    H246532   6.253   5.991  16.937  1.0492  0.9045  0.5598
 8373TIP3   OH246533   2.133   0.870  13.028 -0.0032  0.6248  0.4926
 8373TIP3    H146534   2.208   0.919  13.062  0.5237 -0.8265  1.4802
 8373TIP3    H246535   2.085   0.934  12.975  0.6707  2.2051  1.7196
 8374TIP3   OH246536   2.668   2.330   5.484  0.4607  0.1253 -0.0509
 8374TIP3    H146537   2.748   2.382   5.479  0.4614  0.0433 -1.0300
 8374TIP3    H246538   2.658   2.293   5.397 -0.7383  0.2774  0.0130
 8375TIP3   OH246539   2.533   0.391  11.924 -0.0971 -0.8107 -0.0168
 8375TIP3    H146540   2.521   0.311  11.873  1.1267 -0.1948 -1.3155
 8375TIP3    H246541   2.620   0.423  11.899 -0.1084  0.3256  1.3262
 8376TIP3   OH246542   4.859   2.185  16.247  0.0864  0.0112  0.2460
 8376TIP3    H146543   4.776   2.159  16.208  0.2692  0.7388 -0.6561
 8376TIP3    H246544   4.892   2.107  16.291 -1.6325  0.0334  1.5884
 8377TIP3   OH246545   2.354   4.908   4.566 -0.3462 -0.6770  0.1028
 8377TIP3    H146546   2.432   4.864   4.531  1.4979  1.5688  1.2761
 8377TIP3    H246547   2.357   4.890   4.660 -0.7936  0.1402  0.2718
 8378TIP3   OH246548   6.406   3.951  14.700  0.3284 -0.2777 -0.3415
 8378TIP3    H146549   6.453   3.870  14.723 -1.0219 -0.6849  1.0259
 8378TIP3    H246550   6.420   3.960  14.605  2.0902 -1.0671 -0.1787
 8379TIP3   OH246551   0.114   6.404  12.111  0.6037  0.0480 -0.1039
 8379TIP3    H146552   0.026   6.367  12.118 -0.4423  2.6368  1.1215
 8379TIP3    H246553   0.149   6.399  12.201  0.1484  2.6371  0.2519
 8380TIP3   OH246554   5.537   5.859  13.329  0.7611 -0.1940 -0.1337
 8380TIP3    H146555   5.570   5.933  13.277  3.2107 -0.5716  0.7750
 8380TIP3    H246556   5.536   5.785  13.269  0.3969  0.1027 -0.4927
 8381TIP3   OH246557   0.511   0.368   4.150  0.4394  0.5771 -0.0173
 8381TIP3    H146558   0.568   0.439   4.120 -1.7304  2.4369  0.1416
 8381TIP3    H246559   0.423   0.393   4.121 -0.6282 -1.2278  1.4890
 8382TIP3   OH246560   1.107   2.657  10.943  0.1196  0.0551 -0.0380
 8382TIP3    H146561   1.141   2.746  10.956 -1.5295  0.5736  0.8336
 8382TIP3    H246562   1.118   2.641  10.849  2.6199  0.2395  0.1709
 8383TIP3   OH246563   1.437   1.535   4.697 -0.1910 -0.1421  0.8181
 8383TIP3    H146564   1.497   1.609   4.686  0.4318 -0.8897 -1.0719
 8383TIP3    H246565   1.432   1.522   4.792  1.6097  0.7721  1.0669
 8384TIP3   OH246566   4.525   0.765  14.062 -0.2258  0.3860 -0.0229
 8384TIP3    H146567   4.505   0.674  14.044  0.5772 -0.3823  2.6592
 8384TIP3    H246568   4.441   0.804  14.087 -0.4158  0.1586 -0.3064
 8385TIP3   OH246569   6.551   2.489   0.558 -0.0068 -0.1152  0.2777
 8385TIP3    H146570   6.625   2.518   0.612 -0.0882 -2.0053  1.4381
 8385TIP3    H246571   6.481   2.471   0.621 -0.9763  0.2148 -0.6984
 8386TIP3   OH246572   5.747   5.058  12.880  0.2373 -0.1200  0.0553
 8386TIP3    H146573   5.776   5.019  12.798 -1.0352  0.9830 -0.9570
 8386TIP3    H246574   5.676   5.001  12.910  1.1115 -0.8722  0.7332
 8387TIP3   OH246575   4.014   4.592   4.674 -0.0222 -0.3534  0.5406
 8387TIP3    H146576   4.018   4.569   4.581 -1.5858  0.4056  0.2635
 8387TIP3    H246577   4.103   4.620   4.696  0.7169 -1.9280 -0.3423
 8388TIP3   OH246578   4.488   4.473   5.170  0.1228 -0.1860  0.6371
 8388TIP3    H146579   4.439   4.399   5.134  1.4799 -0.8895  0.1919
 8388TIP3    H246580   4.492   4.537   5.099  2.1425 -1.2571 -0.2644
 8389TIP3   OH246581   4.949   1.057   4.842  0.6685  0.2301  0.6617
 8389TIP3    H146582   4.904   1.068   4.926  0.1292 -2.0796  0.7186
 8389TIP3    H246583   5.039   1.033   4.865  0.6100 -0.0643  0.5898
 8390TIP3   OH246584   1.856   5.639  10.018 -0.0697 -0.5378 -0.2067
 8390TIP3    H146585   1.891   5.657  10.105 -1.4566 -0.3981  0.3322
 8390TIP3    H246586   1.931   5.609   9.968  1.2584  1.7859  0.3213
 8391TIP3   OH246587   1.790   1.391  15.255  0.5126  0.5563  0.6027
 8391TIP3    H146588   1.723   1.336  15.216 -0.7370 -0.1596  3.5675
 8391TIP3    H246589   1.873   1.348  15.234 -0.2121 -0.5362 -0.0431
 8392TIP3   OH246590   3.021   5.912   2.203  0.0118 -0.1308  0.2114
 8392TIP3    H146591   3.058   5.935   2.118  1.6685  0.0285  0.9637
 8392TIP3    H246592   3.093   5.872   2.251 -1.5954 -2.6634  0.6104
 8393TIP3   OH246593   1.280   6.139   0.831  0.0984 -0.5155  0.2404
 8393TIP3    H146594   1.268   6.096   0.915  1.4145 -0.4287  0.4857
 8393TIP3    H246595   1.240   6.080   0.767  0.6501 -1.4308  0.7291
 8394TIP3   OH246596   6.308   5.748   2.318  0.1417  0.3205  0.3852
 8394TIP3    H146597   6.349   5.835   2.322 -1.5481  1.2783 -1.7865
 8394TIP3    H246598   6.358   5.700   2.253 -1.0967  0.8939 -0.9991
 8395TIP3   OH246599   6.078   2.606  16.281 -0.0370  0.2051  0.0824
 8395TIP3    H146600   6.028   2.621  16.201 -1.3419 -0.3517  0.7841
 8395TIP3    H246601   6.031   2.536  16.326 -0.7825  2.2084  2.5436
 8396TIP3   OH246602   0.142   6.557   4.879  0.2947 -0.2866 -0.0220
 8396TIP3    H146603   0.085   6.577   4.953  0.5700  1.3162 -0.2279
 8396TIP3    H246604   0.082   6.542   4.806  0.0899  0.0060  0.0867
 8397TIP3   OH246605   1.491   6.517   5.837 -0.2532 -1.8336  0.1981
 8397TIP3    H146606   1.469   6.607   5.812 -2.1899 -2.3048  0.0996
 8397TIP3    H246607   1.576   6.524   5.880 -0.8603  0.1834  1.1236
 8398TIP3   OH246608   6.434   1.589   5.433 -0.6819 -0.2074 -0.8970
 8398TIP3    H146609   6.424   1.633   5.348 -2.2985  0.5987 -0.2974
 8398TIP3    H246610   6.366   1.521   5.432 -0.0200 -0.8871 -0.6522
 8399TIP3   OH246611   6.226   5.544   6.217 -0.0386  0.4418 -0.5262
 8399TIP3    H146612   6.150   5.497   6.184 -0.4392  1.1260 -0.5824
 8399TIP3    H246613   6.194   5.632   6.236  0.6771  0.6622 -0.3127
 8400TIP3   OH246614   2.428   2.695   6.637 -0.5873 -0.2987 -0.6750
 8400TIP3    H146615   2.367   2.744   6.581  1.1621  0.6811 -1.7864
 8400TIP3    H246616   2.513   2.737   6.622  0.5149 -2.1372  0.2242
 8401TIP3   OH246617   4.118   0.778   6.332  0.1029  0.3736  0.0541
 8401TIP3    H146618   4.163   0.834   6.395 -1.9269 -0.7434  2.6039
 8401TIP3    H246619   4.063   0.838   6.281  0.3131  1.0818  0.6494
 8402TIP3   OH246620   1.794   5.941   0.383 -0.2910  0.8506 -0.1764
 8402TIP3    H146621   1.792   6.011   0.448  0.4789  0.7742 -0.0558
 8402TIP3    H246622   1.779   5.860   0.433  2.6490  0.5353  0.3266
 8403TIP3   OH246623   6.000   0.841   4.927  0.7287 -0.1765 -0.4869
 8403TIP3    H146624   6.047   0.779   4.872  1.3979  0.3768 -0.5434
 8403TIP3    H246625   5.916   0.853   4.883  0.9866 -0.2736 -1.0080
 8404TIP3   OH246626   5.972   3.063  12.355 -0.3911 -0.2867  0.0464
 8404TIP3    H146627   6.039   2.997  12.339  2.3002  1.8677  1.9257
 8404TIP3    H246628   5.945   3.092  12.268 -0.5808 -2.8179 -0.7618
 8405TIP3   OH246629   1.106   4.488   1.410  0.2639  0.1154 -0.0112
 8405TIP3    H146630   1.060   4.447   1.337  2.3535 -1.8677 -0.2651
 8405TIP3    H246631   1.136   4.415   1.464  2.0803  1.3971  0.7791
 8406TIP3   OH246632   3.687   0.142  13.510  0.1172  0.4655 -0.6613
 8406TIP3    H146633   3.602   0.145  13.466 -0.4400  0.9609  0.4240
 8406TIP3    H246634   3.682   0.212  13.575  0.0247 -1.7571  1.7927
 8407TIP3   OH246635   1.263   4.798  14.443  0.2993 -0.1683  0.4068
 8407TIP3    H146636   1.299   4.794  14.531 -0.0659  2.6834  0.7274
 8407TIP3    H246637   1.185   4.852  14.450  2.1589  3.0838 -2.1930
 8408TIP3   OH246638   0.981   0.853  14.950 -0.0393  0.8266 -0.4869
 8408TIP3    H146639   0.923   0.825  14.879 -1.5501 -2.2740  1.8312
 8408TIP3    H246640   0.956   0.944  14.966 -2.8128  0.2225 -0.9901
 8409TIP3   OH246641   5.027   2.941  12.548 -0.7357 -0.3556  0.3436
 8409TIP3    H146642   5.004   2.941  12.641 -0.0368  1.9929  0.5557
 8409TIP3    H246643   5.074   2.859  12.535 -0.4516 -0.5130  2.1677
 8410TIP3   OH246644   6.669   6.504  14.530 -0.3094 -0.0096 -0.1148
 8410TIP3    H146645   6.702   6.569  14.592 -0.0265  0.5430 -0.8358
 8410TIP3    H246646   6.581   6.535  14.508 -0.2932 -0.0398 -0.2222
 8411TIP3   OH246647   3.736   3.538  15.021 -0.1320  0.6027  0.2149
 8411TIP3    H146648   3.800   3.609  15.022  2.0106 -1.2673  1.0841
 8411TIP3    H246649   3.732   3.508  15.112 -1.5713  0.0898  0.0009
 8412TIP3   OH246650   5.053   4.638  15.380  0.3849 -0.2192  0.2487
 8412TIP3    H146651   4.982   4.588  15.341 -0.6976  1.0731  0.5390
 8412TIP3    H246652   5.063   4.715  15.324  0.0148  0.7457  1.4768
 8413TIP3   OH246653   2.521   3.536   4.974  0.4073 -0.7875 -0.6325
 8413TIP3    H146654   2.445   3.490   4.937  0.3971 -1.5109  0.2882
 8413TIP3    H246655   2.519   3.622   4.931 -1.5509 -0.4078  0.1640
 8414TIP3   OH246656   6.756   1.886  16.989 -0.3053  0.2442 -0.4794
 8414TIP3    H146657   6.732   1.911  16.900  2.6379  0.8516 -1.1391
 8414TIP3    H246658   6.851   1.892  16.992 -0.3102 -0.0374  2.6472
 8415TIP3   OH246659   0.278   5.052   4.701  0.3653  0.5350  0.0014
 8415TIP3    H146660   0.186   5.066   4.681 -0.2163 -0.6492  1.7865
 8415TIP3    H246661   0.298   4.965   4.666 -0.2843 -0.9404  3.1259
 8416TIP3   OH246662   6.201   0.862   3.145  0.1196  0.2679  0.3275
 8416TIP3    H146663   6.236   0.928   3.206  1.1275 -0.7014  0.8287
 8416TIP3    H246664   6.186   0.910   3.064  0.8162  1.1334  0.6933
 8417TIP3   OH246665   4.204   2.993  15.766 -0.1410 -0.3161 -0.1052
 8417TIP3    H146666   4.204   2.952  15.679 -0.5610 -0.0551 -0.2271
 8417TIP3    H246667   4.117   3.031  15.775  0.3889  0.9397 -0.1736
 8418TIP3   OH246668   0.458   5.078  10.252 -0.2008  0.4598 -0.3887
 8418TIP3    H146669   0.546   5.109  10.271  0.2260 -0.5870 -0.5934
 8418TIP3    H246670   0.427   5.135  10.182  0.7677  0.0920 -1.1292
 8419TIP3   OH246671   0.829   5.973   0.462  0.1620  0.6135  0.5012
 8419TIP3    H146672   0.765   6.045   0.463  0.5056  0.9112  1.0115
 8419TIP3    H246673   0.904   6.008   0.414  0.3814  0.6334  0.8653
 8420TIP3   OH246674   2.260   5.031  14.806  0.3026  0.5470  0.2071
 8420TIP3    H146675   2.206   5.087  14.750  0.9220  0.9575  0.0140
 8420TIP3    H246676   2.229   5.049  14.895 -1.0303 -0.4773 -0.0166
 8421TIP3   OH246677   4.524   5.294  11.176 -0.0615  0.6497  0.4071
 8421TIP3    H146678   4.531   5.360  11.108 -0.1727 -1.6450 -1.9132
 8421TIP3    H246679   4.608   5.248  11.174 -1.0343 -1.1786 -0.0915
 8422TIP3   OH246680   1.183   5.778  15.860 -0.3674  0.3948  0.1729
 8422TIP3    H146681   1.189   5.687  15.889  0.7354  0.5130  0.3497
 8422TIP3    H246682   1.174   5.828  15.941 -1.6150  0.3987  0.0372
 8423TIP3   OH246683   5.264   2.990  10.873  0.1265 -0.8114 -0.4339
 8423TIP3    H146684   5.334   2.936  10.837  1.4049 -1.2696  2.6089
 8423TIP3    H246685   5.293   3.080  10.860  0.6778 -0.9751 -0.3332
 8424TIP3   OH246686   0.144   2.500  15.208 -0.9011 -0.0125  0.6475
 8424TIP3    H146687   0.105   2.528  15.126  0.6840  0.4848  0.0431
 8424TIP3    H246688   0.217   2.560  15.223 -0.3821 -0.8794  1.7569
 8425TIP3   OH246689   3.538   0.904  16.620 -0.6681 -0.0663 -0.6074
 8425TIP3    H146690   3.522   0.981  16.674  0.6247 -1.3721  1.6960
 8425TIP3    H246691   3.577   0.938  16.539  0.5163  1.6314  0.6592
 8426TIP3   OH246692   6.552   1.452  12.877 -0.2614 -0.2281 -0.1191
 8426TIP3    H146693   6.564   1.542  12.907 -0.0411 -0.0210 -0.8194
 8426TIP3    H246694   6.465   1.428  12.907  0.1291 -0.1860  1.0865
 8427TIP3   OH246695   6.318   4.918  10.680 -0.0957  0.3498  0.7759
 8427TIP3    H146696   6.357   4.834  10.658 -1.6519  0.1428 -1.2602
 8427TIP3    H246697   6.390   4.969  10.717  1.0115 -1.6225  1.3962
 8428TIP3   OH246698   3.718   4.549   4.804  0.1028  0.2771  0.0322
 8428TIP3    H146699   3.709   4.482   4.872 -0.2314  0.3367  0.0485
 8428TIP3    H246700   3.803   4.532   4.765 -0.5599 -1.0235 -0.8851
 8429TIP3   OH246701   2.617   4.166  10.874 -0.5594 -0.0124 -0.3441
 8429TIP3    H146702   2.552   4.124  10.818 -1.6820  0.3217  0.6708
 8429TIP3    H246703   2.697   4.115  10.861 -1.1495 -0.7091 -1.2700
 8430TIP3   OH246704   3.588   0.019   1.835 -0.2412 -0.5777 -0.1123
 8430TIP3    H146705   3.670  -0.030   1.844 -0.5603 -1.4514 -1.7300
 8430TIP3    H246706   3.564   0.042   1.924  1.1153 -1.4112  0.4844
 8431TIP3   OH246707   0.783   5.685  12.463 -0.3043 -0.2099 -0.4491
 8431TIP3    H146708   0.793   5.763  12.409  0.1873  0.0356 -0.0068
 8431TIP3    H246709   0.840   5.700  12.539  0.5610 -1.4299 -0.8339
 8432TIP3   OH246710   2.488   3.502  15.752  0.0053 -0.3702 -0.5732
 8432TIP3    H146711   2.570   3.552  15.756 -0.4412  0.3080  0.3276
 8432TIP3    H246712   2.449   3.525  15.668  0.1107  0.3162 -0.4350
 8433TIP3   OH246713   2.776   5.274   1.361 -0.0752  0.3369  0.0247
 8433TIP3    H146714   2.831   5.199   1.382  0.2286  0.8059  0.9464
 8433TIP3    H246715   2.830   5.328   1.304 -0.1362  0.0657 -0.2914
 8434TIP3   OH246716   5.470   2.963   5.601  0.0281  0.2744  0.0093
 8434TIP3    H146717   5.481   3.027   5.531  0.0680  3.8701  3.1578
 8434TIP3    H246718   5.559   2.931   5.619  0.2323  0.5730 -0.4861
 8435TIP3   OH246719   3.115   6.470   0.060 -0.5478  0.5900 -0.3987
 8435TIP3    H146720   3.119   6.460   0.155  3.6146 -1.8089 -0.6850
 8435TIP3    H246721   3.192   6.523   0.038 -1.2694  0.8242 -2.4479
 8436TIP3   OH246722   2.240   0.477   3.168  0.2257  0.1277  0.3402
 8436TIP3    H146723   2.333   0.501   3.160  0.1280 -0.0865 -1.5920
 8436TIP3    H246724   2.206   0.536   3.235  1.3977  1.2886 -0.0686
 8437TIP3   OH246725   5.818   2.577  14.050 -0.1296 -0.0494  0.6429
 8437TIP3    H146726   5.884   2.646  14.046 -0.3530  0.1688  0.7067
 8437TIP3    H246727   5.857   2.509  14.104  0.4143 -0.3199 -0.0749
 8438TIP3   OH246728   5.435   2.392  13.212 -0.0529  0.3571 -0.3726
 8438TIP3    H146729   5.467   2.464  13.266  0.0223 -0.5536  0.8089
 8438TIP3    H246730   5.512   2.361  13.164  0.6302 -1.0393  1.5596
 8439TIP3   OH246731   3.724   4.594   6.080 -0.1466  0.2763  0.4890
 8439TIP3    H146732   3.799   4.650   6.099 -0.7558  0.8457  1.2195
 8439TIP3    H246733   3.724   4.529   6.151  0.7038 -0.8252 -0.4821
 8440TIP3   OH246734   2.153   3.012   3.764  0.4138 -0.1007  0.3613
 8440TIP3    H146735   2.182   3.102   3.783 -0.1375  0.2328 -0.3359
 8440TIP3    H246736   2.226   2.957   3.789  0.2772  0.4496  1.9940
 8441TIP3   OH246737   2.587   4.520  10.844 -0.3591  0.0470  0.9349
 8441TIP3    H146738   2.586   4.465  10.922  1.2388 -0.8278  0.3584
 8441TIP3    H246739   2.664   4.491  10.794 -2.4005 -0.6813 -1.9013
 8442TIP3   OH246740   1.780   0.915   1.339  0.0378 -0.1317 -0.5755
 8442TIP3    H146741   1.792   0.934   1.246  1.3530 -0.9860 -0.5984
 8442TIP3    H246742   1.741   0.828   1.341  0.6386 -0.4008 -0.3213
 8443TIP3   OH246743   2.188   3.449  14.827  0.4250 -0.5845 -0.1427
 8443TIP3    H146744   2.240   3.508  14.774  1.0057 -1.2196 -0.2875
 8443TIP3    H246745   2.112   3.501  14.853  1.5342  0.6284  0.7843
 8444TIP3   OH246746   4.177   0.027   3.008 -0.8755 -0.3544 -0.4643
 8444TIP3    H146747   4.256   0.027   2.955  0.1373 -0.5936  1.0198
 8444TIP3    H246748   4.185   0.106   3.062  0.0853 -2.2434  2.2026
 8445TIP3   OH246749   3.969   4.272   4.324 -0.0357  0.0670 -0.1126
 8445TIP3    H146750   4.058   4.305   4.312  0.0744 -0.4712 -0.7569
 8445TIP3    H246751   3.972   4.181   4.296 -0.3019 -0.5880  1.8477
 8446TIP3   OH246752   2.350   0.094   3.778 -0.4338  0.3333  0.2850
 8446TIP3    H146753   2.431   0.043   3.770 -1.6774 -1.4240 -1.5932
 8446TIP3    H246754   2.371   0.179   3.740  0.7431  0.1356  0.4792
 8447TIP3   OH246755   1.670   0.197  16.997 -0.0123  0.4222  0.4451
 8447TIP3    H146756   1.578   0.184  17.019  0.0889 -0.5836  0.3016
 8447TIP3    H246757   1.669   0.260  16.924 -0.8060 -2.1810 -1.8793
 8448TIP3   OH246758   2.093   0.177   1.344  0.7116  0.2576  0.2039
 8448TIP3    H146759   2.063   0.239   1.411 -1.1396 -2.0330  1.5861
 8448TIP3    H246760   2.027   0.108   1.344  3.5464 -2.5708 -0.1145
 8449TIP3   OH246761   0.260   0.217   1.641  0.3571  0.3001 -0.6935
 8449TIP3    H146762   0.193   0.172   1.591 -0.2140 -1.2542  1.3744
 8449TIP3    H246763   0.330   0.152   1.651  1.5357  1.4066 -1.5452
 8450TIP3   OH246764   4.227   2.112  16.753  0.1061  0.0178  0.5417
 8450TIP3    H146765   4.277   2.115  16.835 -1.8641 -0.0360  1.7773
 8450TIP3    H246766   4.250   2.027  16.714  1.0430  0.0420  1.0361
 8451TIP3   OH246767   5.839   3.496  14.689  0.0590 -0.6764  0.0869
 8451TIP3    H146768   5.822   3.443  14.767  1.3690  1.9360  2.2271
 8451TIP3    H246769   5.776   3.568  14.694 -0.5231 -1.0148 -1.8418
 8452TIP3   OH246770   2.340   4.259   4.338  0.1969 -0.1827 -0.7812
 8452TIP3    H146771   2.339   4.187   4.400  0.3859  1.2334  0.9108
 8452TIP3    H246772   2.333   4.338   4.392 -1.0848  1.0359 -2.6478
 8453TIP3   OH246773   4.821   6.015   3.199  0.0259  0.2755  0.3060
 8453TIP3    H146774   4.804   5.948   3.132 -0.3366  0.9390 -0.2641
 8453TIP3    H246775   4.897   5.982   3.246  0.2606 -0.2200 -0.4048
 8454TIP3   OH246776   3.943   5.405  15.781  0.2604 -0.0331  0.6108
 8454TIP3    H146777   3.984   5.321  15.801 -0.8665 -0.8921 -0.5513
 8454TIP3    H246778   3.956   5.416  15.687  0.8971  1.3735  0.8615
 8455TIP3   OH246779   2.766   0.821   5.697 -0.8752 -0.6609 -0.1934
 8455TIP3    H146780   2.793   0.803   5.607 -2.1809  1.7347 -1.1172
 8455TIP3    H246781   2.677   0.787   5.704 -1.1345  0.0198 -0.1216
 8456TIP3   OH246782   2.076   4.151  15.042 -0.4303 -0.1148 -0.5071
 8456TIP3    H146783   2.141   4.219  15.021  0.5723 -1.2490 -1.1290
 8456TIP3    H246784   2.096   4.126  15.132 -0.0757 -0.3899 -0.6626
 8457TIP3   OH246785   4.548   0.663   2.518  0.1669 -0.4739  0.0108
 8457TIP3    H146786   4.497   0.707   2.585  0.8334  1.7134 -0.8806
 8457TIP3    H246787   4.488   0.597   2.482 -1.7422  1.3809 -0.3380
 8458TIP3   OH246788   0.731   3.834  11.688 -0.1220 -0.3531  0.0478
 8458TIP3    H146789   0.647   3.787  11.694 -0.0246 -0.5328  0.0192
 8458TIP3    H246790   0.758   3.848  11.778 -0.3272 -0.0361  0.0576
 8459TIP3   OH246791   5.476   3.692  11.591  0.7679  0.4126  0.3354
 8459TIP3    H146792   5.557   3.644  11.607  1.6628  1.4040 -1.0570
 8459TIP3    H246793   5.448   3.723  11.677  2.0988  0.4082  0.7714
 8460TIP3   OH246794   0.992   0.195  16.600  0.4656 -0.3901  0.1974
 8460TIP3    H146795   1.084   0.222  16.589 -0.0097  1.5927  0.9754
 8460TIP3    H246796   0.969   0.225  16.688 -0.5609 -2.0166  0.4891
 8461TIP3   OH246797   4.544   6.463  11.174  0.1974 -0.2168 -0.0036
 8461TIP3    H146798   4.535   6.442  11.082  0.0765 -1.0478  0.1978
 8461TIP3    H246799   4.456   6.454  11.211  0.2510  0.0694  0.2036
 8462TIP3   OH246800   5.401   4.925  10.605 -0.1946  0.0760  0.6084
 8462TIP3    H146801   5.388   5.000  10.547 -1.5450 -0.3253  0.3728
 8462TIP3    H246802   5.484   4.887  10.576 -1.1785 -0.5181 -1.5482
 8463TIP3   OH246803   6.045   1.428   4.059 -0.0064  0.2948  0.0058
 8463TIP3    H146804   6.002   1.512   4.077 -0.3392 -0.0002  0.5982
 8463TIP3    H246805   6.127   1.432   4.108  0.1659  0.4318 -0.2881
 8464TIP3   OH246806   1.679   2.640  11.148 -0.4100  0.0735  0.9315
 8464TIP3    H146807   1.718   2.667  11.065 -1.3265  0.8711  0.7515
 8464TIP3    H246808   1.691   2.545  11.151 -0.8579 -0.0238 -0.3652
 8465TIP3   OH246809   2.343   4.411  14.667  0.1378 -0.1541  0.1007
 8465TIP3    H146810   2.310   4.450  14.587 -0.4744  0.9386  0.8694
 8465TIP3    H246811   2.310   4.467  14.737  1.5141 -0.4938  1.0557
 8466TIP3   OH246812   0.607   5.237   2.903  0.2459  0.1204 -0.4927
 8466TIP3    H146813   0.528   5.248   2.850 -0.8301 -0.3688  0.9775
 8466TIP3    H246814   0.609   5.144   2.924  0.3344  0.4096  0.8113
 8467TIP3   OH246815   5.449   1.242  13.727  0.0952  0.6298  0.3546
 8467TIP3    H146816   5.471   1.150  13.719  0.4870  0.8011 -0.5701
 8467TIP3    H246817   5.521   1.288  13.683  0.2778  1.4087  1.4476
 8468TIP3   OH246818   2.101   2.872  16.516  0.9286  0.3429 -0.2218
 8468TIP3    H146819   2.184   2.870  16.563  0.6813 -1.6814  0.1778
 8468TIP3    H246820   2.123   2.849  16.426  0.6953 -0.9871  0.0591
 8469TIP3   OH246821   3.318   6.666  15.845  0.5010 -0.3702  0.0503
 8469TIP3    H146822   3.295   6.576  15.869  0.0170 -0.0674  0.7328
 8469TIP3    H246823   3.288   6.719  15.919 -1.4825  0.6576 -1.4433
 8470TIP3   OH246824   3.585   0.704   0.138  0.4328 -0.0505 -0.1278
 8470TIP3    H146825   3.654   0.749   0.187 -0.6144  1.0574  0.3732
 8470TIP3    H246826   3.627   0.627   0.101  2.7809  2.2715 -2.5380
 8471TIP3   OH246827   2.171   3.044  14.913 -0.2612  0.1646 -0.2909
 8471TIP3    H146828   2.112   2.968  14.914  0.2897 -0.2861  1.5584
 8471TIP3    H246829   2.212   3.043  15.000  2.0655  0.7707 -1.3234
 8472TIP3   OH246830   0.496   0.639   3.838  0.4483  0.2125 -0.4894
 8472TIP3    H146831   0.442   0.569   3.875  0.3474  0.5419  0.0012
 8472TIP3    H246832   0.533   0.602   3.759  2.5294 -1.3291  1.1390
 8473TIP3   OH246833   0.451   4.837  11.568  0.1732  0.6495 -0.1427
 8473TIP3    H146834   0.401   4.865  11.492 -0.2056  0.6562  0.1078
 8473TIP3    H246835   0.451   4.741  11.563  0.0411  0.6464 -0.0815
 8474TIP3   OH246836   2.731   2.434   0.968  0.1135 -0.4801  0.5316
 8474TIP3    H146837   2.731   2.470   0.879 -2.6728 -1.5406  0.0464
 8474TIP3    H246838   2.818   2.454   1.002  0.1396  2.7829 -1.2803
 8475TIP3   OH246839   0.752   4.370  11.552 -0.3234  0.2687 -0.0956
 8475TIP3    H146840   0.782   4.343  11.465  2.0254  0.4973  0.6056
 8475TIP3    H246841   0.761   4.291  11.606 -1.4061  0.2288  0.0365
 8476TIP3   OH246842   4.801   1.297   0.049  0.1506 -0.0388 -0.2549
 8476TIP3    H146843   4.853   1.278  -0.029  2.0664  1.0180  0.7440
 8476TIP3    H246844   4.784   1.210   0.087 -1.8854 -0.6778 -2.4683
 8477TIP3   OH246845   6.566   5.914  11.466  0.2305  0.4685  0.2382
 8477TIP3    H146846   6.619   5.974  11.519  0.3525 -0.2229  0.8958
 8477TIP3    H246847   6.510   5.972  11.415 -0.8324  1.1044  2.0966
 8478TIP3   OH246848   0.023   3.220   6.525  0.0522 -0.2960 -0.3479
 8478TIP3    H146849  -0.055   3.275   6.517 -1.1827 -1.6791  1.7253
 8478TIP3    H246850   0.090   3.278   6.561 -0.5656  0.4271 -0.3549
 8479TIP3   OH246851   4.332   0.189  11.331 -0.3648  0.7913 -0.2186
 8479TIP3    H146852   4.331   0.282  11.307  1.9755  1.2513  1.3043
 8479TIP3    H246853   4.254   0.178  11.385 -0.3598  1.9945  0.0445
 8480TIP3   OH246854   5.843   1.528   4.408  0.4131  0.4975  0.4805
 8480TIP3    H146855   5.849   1.554   4.500  1.9691  0.2957  0.4637
 8480TIP3    H246856   5.934   1.532   4.377 -0.1996  1.3541 -1.2671
 8481TIP3   OH246857   1.782   3.981   3.966 -0.7177  0.4174  0.6738
 8481TIP3    H146858   1.744   3.938   4.042 -2.4036  0.7242  0.0480
 8481TIP3    H246859   1.876   3.984   3.983 -0.8713 -1.2096  1.8675
 8482TIP3   OH246860   0.703   4.909   0.567  0.0013 -0.4355 -1.2814
 8482TIP3    H146861   0.711   4.859   0.485 -0.4773 -1.1617 -0.8869
 8482TIP3    H246862   0.790   4.905   0.606  0.2473 -0.0417 -1.7705
 8483TIP3   OH246863   5.536   0.107   1.015  0.4334 -0.2095 -0.1793
 8483TIP3    H146864   5.529   0.075   0.925  1.4849 -1.3399  0.1308
 8483TIP3    H246865   5.620   0.153   1.017 -0.2188  1.0092 -0.1285
 8484TIP3   OH246866   1.152   6.336  17.205  0.0509  0.3491 -0.4574
 8484TIP3    H146867   1.245   6.352  17.220  0.1359 -0.5880  0.0493
 8484TIP3    H246868   1.108   6.396  17.265  0.2963  2.2846 -2.1915
 8485TIP3   OH246869   1.821   4.689  15.750  0.0314 -0.1372  0.5442
 8485TIP3    H146870   1.791   4.709  15.661 -2.6143 -1.7214  1.0151
 8485TIP3    H246871   1.846   4.774  15.786 -1.6843  0.9521 -0.7254
 8486TIP3   OH246872   1.227   0.636  13.850 -0.2130  0.5500 -0.3405
 8486TIP3    H146873   1.143   0.677  13.828  0.2275  1.4126 -0.3981
 8486TIP3    H246874   1.283   0.708  13.877  0.6738  0.0325 -0.7950
 8487TIP3   OH246875   5.554   3.075   2.383 -0.3566  0.1531 -0.0785
 8487TIP3    H146876   5.621   3.134   2.349 -0.7845  0.0988 -1.0224
 8487TIP3    H246877   5.478   3.090   2.327 -0.7703 -0.6121  0.2752
 8488TIP3   OH246878   2.969   3.077   6.203  0.4061 -0.2860  0.0437
 8488TIP3    H146879   2.949   3.032   6.284  2.0759 -1.4181 -0.1435
 8488TIP3    H246880   2.929   3.164   6.212 -2.1249 -1.5006  0.7474
 8489TIP3   OH246881   2.765   4.513   1.527 -0.0011 -0.0561 -0.2185
 8489TIP3    H146882   2.677   4.527   1.562  0.6650 -0.4484  1.6907
 8489TIP3    H246883   2.752   4.500   1.433 -1.9722 -0.1094  0.0402
 8490TIP3   OH246884   0.160   6.785  11.811 -0.6504 -0.1070 -0.3705
 8490TIP3    H146885   0.150   6.694  11.838  2.0663  0.0974  1.4082
 8490TIP3    H246886   0.196   6.780  11.722  0.6492 -0.7806  0.1839
 8491TIP3   OH246887   0.424   0.746  13.551  0.0016 -0.6609 -0.6844
 8491TIP3    H146888   0.448   0.696  13.473  0.0874  0.4866 -1.3983
 8491TIP3    H246889   0.507   0.765  13.595 -0.1568 -2.7267  0.5970
 8492TIP3   OH246890   1.480   2.892  16.328  0.5032  0.8154  0.5319
 8492TIP3    H146891   1.426   2.933  16.260  0.7437 -1.5219 -1.1216
 8492TIP3    H246892   1.568   2.927  16.313  0.9797 -1.2250 -1.7182
 8493TIP3   OH246893   0.938   5.256  16.778 -0.0581  0.2127 -0.1489
 8493TIP3    H146894   0.975   5.279  16.864 -1.6337 -2.4800  1.2986
 8493TIP3    H246895   0.974   5.170  16.759 -2.7876 -0.9050 -0.3535
 8494TIP3   OH246896   1.495   2.243  16.149 -0.1400 -0.1416  0.5803
 8494TIP3    H146897   1.491   2.162  16.200 -0.9931 -0.1409  0.5206
 8494TIP3    H246898   1.555   2.299  16.199  0.5900 -0.8660  0.5254
 8495TIP3   OH246899   3.048   2.100   5.563 -0.3265  0.1657 -0.4334
 8495TIP3    H146900   3.022   2.145   5.644 -1.3128 -1.0146 -0.0975
 8495TIP3    H246901   3.134   2.062   5.584 -0.5674 -0.1161  0.0508
 8496TIP3   OH246902   5.814   4.479   0.980 -0.1305 -0.0030  0.5673
 8496TIP3    H146903   5.876   4.552   0.989 -0.7251  0.6529 -0.5611
 8496TIP3    H246904   5.819   4.455   0.887 -1.6954  0.1605  0.4289
 8497TIP3   OH246905   6.235   6.625   3.234  0.2507  0.1718  0.1121
 8497TIP3    H146906   6.315   6.629   3.182 -0.6138  0.0898 -1.2568
 8497TIP3    H246907   6.196   6.712   3.226 -0.5955 -0.2606 -0.5472
 8498TIP3   OH246908   1.097   4.883  15.019 -0.4421  0.6245 -0.7548
 8498TIP3    H146909   1.092   4.946  15.091  0.5693  0.4723 -0.5457
 8498TIP3    H246910   1.184   4.896  14.981 -0.7306  0.2685 -1.5573
 8499TIP3   OH246911   2.808   2.539  11.650 -0.1173  0.1793  0.4977
 8499TIP3    H146912   2.844   2.628  11.644 -0.7611  0.5627  2.0093
 8499TIP3    H246913   2.725   2.543  11.603 -0.4760  0.5642  1.1617
 8500TIP3   OH246914   5.520   3.430  15.734  0.0586  0.7070 -0.0467
 8500TIP3    H146915   5.430   3.458  15.754 -1.2217 -2.8158 -0.4558
 8500TIP3    H246916   5.568   3.445  15.816 -1.3216  1.0908  0.7109
 8501TIP3   OH246917   3.130   2.363   2.139  0.3398 -0.0345  0.1154
 8501TIP3    H146918   3.189   2.320   2.076  1.4683 -0.4706  1.4466
 8501TIP3    H246919   3.043   2.329   2.117  0.9920 -1.7381  0.0789
 8502TIP3   OH246920   4.162   3.977   2.105 -0.0018 -0.0772  0.0610
 8502TIP3    H146921   4.253   3.964   2.134 -0.5371  0.0437  1.8422
 8502TIP3    H246922   4.117   4.009   2.183 -1.9149 -1.5787 -0.4125
 8503TIP3   OH246923   1.712   5.474   1.561 -0.0848  0.2522 -0.3544
 8503TIP3    H146924   1.702   5.495   1.468 -2.5017  1.2731  0.0965
 8503TIP3    H246925   1.732   5.558   1.602 -0.2201  0.0130  0.1985
 8504TIP3   OH246926   4.622   6.617   4.156  0.2909  0.2660 -0.0380
 8504TIP3    H146927   4.575   6.624   4.072  2.5068 -0.1657 -1.3522
 8504TIP3    H246928   4.673   6.697   4.161  0.1561  0.2955  0.9293
 8505TIP3   OH246929   3.833   5.941  14.969  0.2147  0.5163  0.2943
 8505TIP3    H146930   3.761   6.003  14.977  1.0412  1.1675  3.2357
 8505TIP3    H246931   3.878   5.966  14.888 -0.4836  2.6819  0.5577
 8506TIP3   OH246932   3.304   4.901  16.492 -0.8575 -0.3936 -0.3699
 8506TIP3    H146933   3.217   4.902  16.531 -0.8791  0.2648 -0.4352
 8506TIP3    H246934   3.288   4.884  16.399 -0.6831 -4.1504  0.1956
 8507TIP3   OH246935   0.972   2.644   3.716  0.1478 -0.5488  0.3451
 8507TIP3    H146936   0.955   2.738   3.708  0.7025 -0.4572  0.1609
 8507TIP3    H246937   0.899   2.610   3.766 -0.5166 -0.1637 -0.3516
 8508TIP3   OH246938   5.808   2.013  11.861  0.6331  0.5783  0.2128
 8508TIP3    H146939   5.828   1.996  11.769 -0.5935 -0.2302  0.0939
 8508TIP3    H246940   5.847   1.939  11.908 -1.1111 -0.4562  0.0749
 8509TIP3   OH246941   0.340   1.772  12.923  0.1025  0.0254 -0.1625
 8509TIP3    H146942   0.423   1.813  12.900  1.3352 -1.8597  0.7787
 8509TIP3    H246943   0.341   1.769  13.019 -0.2553 -1.5768 -0.2014
 8510TIP3   OH246944   2.948   4.498   5.526  0.1105  0.3554 -0.1252
 8510TIP3    H146945   2.958   4.592   5.534 -0.6786  0.4298  0.0175
 8510TIP3    H246946   2.855   4.482   5.543  0.3960 -0.5251  0.6671
 8511TIP3   OH246947   6.248   4.438   3.970  0.1509 -0.3107  0.4871
 8511TIP3    H146948   6.189   4.439   4.045 -0.8665 -0.4773 -0.2883
 8511TIP3    H246949   6.268   4.530   3.954  0.2099 -0.2618  0.8446
 8512TIP3   OH246950   2.078   6.143  12.187 -0.5369 -0.3001 -1.1505
 8512TIP3    H146951   2.076   6.095  12.270 -0.4682  0.5938 -0.6135
 8512TIP3    H246952   2.002   6.113  12.139 -0.0085 -1.5826 -1.1915
 8513TIP3   OH246953   3.770   1.991   0.116  0.4403 -0.0398  0.5452
 8513TIP3    H146954   3.756   2.062   0.053  0.6128  0.0743  0.6345
 8513TIP3    H246955   3.805   2.034   0.194  0.1694 -0.1736  0.7418
 8514TIP3   OH246956   2.588   3.346   1.521 -0.0640 -0.7643  0.7284
 8514TIP3    H146957   2.536   3.272   1.489 -0.1135 -0.0112 -0.9702
 8514TIP3    H246958   2.544   3.373   1.601 -1.2947 -1.2371  0.2236
 8515TIP3   OH246959   5.264   6.444  15.963 -0.0356  0.3779  0.1784
 8515TIP3    H146960   5.286   6.411  16.050 -0.4387 -0.4715 -0.0367
 8515TIP3    H246961   5.345   6.482  15.931  1.0077 -2.2167 -0.3779
 8516TIP3   OH246962   2.234   4.552  15.629  0.1231 -0.0372 -0.0355
 8516TIP3    H146963   2.144   4.568  15.600  0.1868  0.6954  0.1525
 8516TIP3    H246964   2.225   4.494  15.705 -0.3845  2.2553  1.7159
 8517TIP3   OH246965   4.546   1.512   2.014 -0.5346  0.2792 -0.3717
 8517TIP3    H146966   4.492   1.587   1.990 -1.0864  0.5303  1.5638
 8517TIP3    H246967   4.503   1.474   2.090  0.2453 -1.4693 -0.7650
 8518TIP3   OH246968   2.938   3.286  12.899  0.0836 -0.6560  0.0743
 8518TIP3    H146969   3.026   3.307  12.867  0.4526 -1.0812  0.8080
 8518TIP3    H246970   2.903   3.226  12.833 -0.3357  0.8775 -1.1382
 8519TIP3   OH246971   4.832   1.219   4.421 -0.7013 -0.1977 -0.1674
 8519TIP3    H146972   4.752   1.236   4.470 -0.4933  0.0667  0.0767
 8519TIP3    H246973   4.891   1.176   4.483 -0.4994 -0.0154 -0.2329
 8520TIP3   OH246974   1.038   2.388  12.887 -0.3823 -0.1602  0.2915
 8520TIP3    H146975   0.958   2.343  12.916  0.7884 -1.0589  2.1890
 8520TIP3    H246976   1.035   2.473  12.929 -1.0893  0.3892 -0.8607
 8521TIP3   OH246977   2.706   4.800   0.075 -0.2646  0.2249  0.6236
 8521TIP3    H146978   2.732   4.788   0.167  0.3780 -0.4580  0.3632
 8521TIP3    H246979   2.650   4.725   0.056  1.1752 -0.6930 -0.0964
 8522TIP3   OH246980   3.899   6.508  13.054  0.8124 -0.9297  0.1206
 8522TIP3    H146981   3.807   6.519  13.029  1.1319  0.6629 -0.4339
 8522TIP3    H246982   3.917   6.584  13.110  2.3624 -0.0683 -1.5016
 8523TIP3   OH246983   2.050   3.321   0.610  0.0533 -0.0594 -0.3930
 8523TIP3    H146984   2.086   3.232   0.610  1.2812  0.4009  1.0637
 8523TIP3    H246985   1.990   3.323   0.684  1.2623  0.7690  0.5939
 8524TIP3   OH246986   0.880   6.658  12.494  0.4015  0.0701  0.3257
 8524TIP3    H146987   0.898   6.689  12.405 -0.4588 -2.0334 -0.6301
 8524TIP3    H246988   0.912   6.727  12.551 -0.6748  2.2763 -1.6693
 8525TIP3   OH246989   2.054   3.088  12.800 -0.2165 -0.3519  0.3102
 8525TIP3    H146990   2.063   3.140  12.880 -0.3025  2.2820 -1.3249
 8525TIP3    H246991   2.140   3.091  12.759  0.2648 -2.9945  1.0072
 8526TIP3   OH246992   0.464   0.317   1.419 -0.1344 -0.6081 -0.1159
 8526TIP3    H146993   0.395   0.284   1.475 -0.5851  1.1794  0.4260
 8526TIP3    H246994   0.526   0.245   1.411 -1.6919 -1.9815 -0.0179
 8527TIP3   OH246995   0.088   1.541   4.190 -0.2566 -0.5026  0.3112
 8527TIP3    H146996   0.095   1.636   4.180  1.2157 -0.3980  1.9525
 8527TIP3    H246997   0.178   1.513   4.210 -0.7344 -2.2034  0.1236
 8528TIP3   OH246998   1.136   6.714   0.326 -0.2248  0.1697  0.2530
 8528TIP3    H146999   1.114   6.704   0.418 -1.1087 -0.8741 -0.0692
 8528TIP3    H247000   1.232   6.716   0.325 -0.2202  2.2529  1.3866
 8529TIP3   OH247001   3.238   3.615   2.643  0.2492  0.0477 -0.8615
 8529TIP3    H147002   3.150   3.592   2.613 -0.5506  0.2984  1.2234
 8529TIP3    H247003   3.290   3.621   2.562 -1.0250 -2.5779 -1.9644
 8530TIP3   OH247004   3.609   5.050  15.035  0.2959  0.1474  0.3190
 8530TIP3    H147005   3.659   5.017  15.110 -0.7415 -1.6154  0.2495
 8530TIP3    H247006   3.524   5.075  15.073  0.8648  2.2206  0.2683
 8531TIP3   OH247007   6.313   1.149   3.077 -0.1175 -0.3194  0.1595
 8531TIP3    H147008   6.245   1.196   3.125 -0.1088 -0.1293 -0.0127
 8531TIP3    H247009   6.388   1.207   3.078  0.0919 -0.5920  0.4745
 8532TIP3   OH247010   6.130   6.269   0.286  0.0688 -0.0411  0.1841
 8532TIP3    H147011   6.115   6.251   0.193 -1.1470  0.9893  0.1600
 8532TIP3    H247012   6.166   6.358   0.288 -0.2260  0.0668  0.7170
 8533TIP3   OH247013   5.468   6.262  12.432  0.0318 -0.1241  0.7162
 8533TIP3    H147014   5.455   6.356  12.441 -1.2483 -0.3384  1.1467
 8533TIP3    H247015   5.382   6.227  12.411  0.0938 -1.4344  2.4831
 8534TIP3   OH247016   5.972   0.875  11.431 -0.2555 -0.1579 -0.3856
 8534TIP3    H147017   6.047   0.866  11.490 -0.8170 -2.2229  0.0205
 8534TIP3    H247018   5.917   0.941  11.473  0.2222 -0.2932  0.4667
 8535TIP3   OH247019   2.872   5.021  16.921  0.4233  0.1496  0.3686
 8535TIP3    H147020   2.802   5.019  16.856  1.6117 -0.1075 -0.9327
 8535TIP3    H247021   2.904   4.931  16.924  2.0199  0.6630 -0.5493
 8536TIP3   OH247022   5.940   6.191   2.166  0.1790 -0.0218  0.0316
 8536TIP3    H147023   5.864   6.244   2.190  0.0272  0.1783 -0.8809
 8536TIP3    H247024   5.904   6.104   2.148  0.1497  0.1031 -0.5153
 8537TIP3   OH247025   0.368   2.634  14.948 -0.4537  0.0987  1.0293
 8537TIP3    H147026   0.276   2.619  14.927  0.3384 -1.0295 -1.8287
 8537TIP3    H247027   0.413   2.554  14.921  1.3336  0.4420  2.8123
 8538TIP3   OH247028   6.546   1.523  15.876  0.0655  0.1889  0.6902
 8538TIP3    H147029   6.562   1.566  15.961  1.2863 -0.5989  0.8762
 8538TIP3    H247030   6.599   1.573  15.814 -0.1513  0.2376  0.5444
 8539TIP3   OH247031   1.189   3.574   4.197  0.1938  0.3659 -0.3580
 8539TIP3    H147032   1.150   3.608   4.278  0.2897  0.7717 -0.4819
 8539TIP3    H247033   1.283   3.579   4.213  0.1978 -0.7187 -0.0143
 8540TIP3   OH247034   4.353   1.812  15.817  0.4230  0.5506  0.8531
 8540TIP3    H147035   4.368   1.906  15.830  1.2038  0.4020  1.0650
 8540TIP3    H247036   4.424   1.784  15.758  2.0797 -0.5250  3.2773
 8541TIP3   OH247037   1.944   0.739   0.861 -0.1610 -0.4540 -0.1123
 8541TIP3    H147038   1.851   0.716   0.859  0.3268 -2.5303 -0.2088
 8541TIP3    H247039   1.952   0.814   0.801 -1.5363 -1.1691 -1.2141
 8542TIP3   OH247040   3.470   2.020   4.453  0.5753 -0.3843  0.1741
 8542TIP3    H147041   3.477   2.114   4.470  2.9733 -0.2704 -1.3369
 8542TIP3    H247042   3.545   1.982   4.498  0.5226 -1.4060 -0.5948
 8543TIP3   OH247043   6.544   4.086  16.126 -0.7819 -0.2463 -0.2301
 8543TIP3    H147044   6.480   4.033  16.175 -1.5379  1.9196  1.1888
 8543TIP3    H247045   6.605   4.118  16.192 -0.3185  0.6360 -1.0721
 8544TIP3   OH247046   4.896   6.224  14.300 -0.2784 -0.3244  0.4889
 8544TIP3    H147047   4.813   6.188  14.267  0.2055  0.0364 -1.1607
 8544TIP3    H247048   4.916   6.297  14.242  0.7329  0.1892  1.4499
 8545TIP3   OH247049   3.107   5.589   2.148  0.2057  0.2151  0.3446
 8545TIP3    H147050   3.066   5.550   2.225 -1.1750  0.5335 -0.2298
 8545TIP3    H247051   3.163   5.519   2.113 -0.2676 -0.3966  0.8094
 8546TIP3   OH247052   2.700   5.512  10.704  0.3154 -0.4808 -0.3104
 8546TIP3    H147053   2.665   5.427  10.732 -0.9325  0.0667 -0.1712
 8546TIP3    H247054   2.679   5.571  10.776 -0.7091  0.4053 -1.3234
 8547TIP3   OH247055   2.247   5.998  16.244  0.1904  0.3034 -0.0515
 8547TIP3    H147056   2.181   5.993  16.313 -0.5732  1.8569 -0.6510
 8547TIP3    H247057   2.318   5.941  16.274 -0.8610 -0.3563  1.2052
 8548TIP3   OH247058   0.162   0.178  12.357  0.0174 -0.0716  0.4994
 8548TIP3    H147059   0.129   0.258  12.316  0.0493 -0.1237  0.3722
 8548TIP3    H247060   0.105   0.165  12.433 -1.3806 -1.1170 -0.6854
 8549TIP3   OH247061   1.553   4.293  16.202  0.4984 -0.0818  0.0767
 8549TIP3    H147062   1.502   4.227  16.155  0.2075 -0.0411  0.3315
 8549TIP3    H247063   1.573   4.360  16.136 -2.3234  1.3746  0.6336
 8550TIP3   OH247064   0.226   0.487  11.806 -0.3929 -0.4030  0.1936
 8550TIP3    H147065   0.317   0.482  11.777 -0.2177 -1.6481  0.9219
 8550TIP3    H247066   0.223   0.566  11.860  0.5914 -1.1191  1.3098
 8551TIP3   OH247067   5.504   3.756  14.392 -0.7521 -0.0660 -0.0215
 8551TIP3    H147068   5.421   3.801  14.372 -1.4926 -0.9427  1.0035
 8551TIP3    H247069   5.535   3.725  14.308 -1.7812 -0.2468 -0.3468
 8552TIP3   OH247070   6.294   3.107   0.521 -0.7381  0.1088 -0.1578
 8552TIP3    H147071   6.221   3.104   0.459 -0.6772  0.5931 -0.2562
 8552TIP3    H247072   6.342   3.187   0.497  0.0906 -0.4609 -0.4004
 8553TIP3   OH247073   3.604   2.611   3.019  0.3653 -0.8283  0.2145
 8553TIP3    H147074   3.561   2.622   2.934  1.0914  0.2444 -0.0304
 8553TIP3    H247075   3.581   2.522   3.046 -1.9510 -0.3051  0.0762
 8554TIP3   OH247076   3.048   3.773   0.767  0.7706 -0.0547  0.5460
 8554TIP3    H147077   2.971   3.752   0.820 -0.5637 -1.6195 -1.9535
 8554TIP3    H247078   3.115   3.712   0.797  0.2508 -0.4336  0.9372
 8555TIP3   OH247079   4.466   3.067   2.042 -0.2924 -0.2123 -0.2343
 8555TIP3    H147080   4.546   3.113   2.069 -0.6737 -0.3838  1.2286
 8555TIP3    H247081   4.396   3.110   2.091 -0.9178 -0.9876 -0.4429
 8556TIP3   OH247082   4.489   1.640   2.276  0.7191 -0.3996 -0.0400
 8556TIP3    H147083   4.544   1.705   2.320  0.8113  0.7753 -1.8205
 8556TIP3    H247084   4.428   1.692   2.224  0.3679 -1.7351 -0.9849
 8557TIP3   OH247085   2.226   2.436   2.785 -1.0183 -0.5569 -0.7528
 8557TIP3    H147086   2.213   2.345   2.757 -0.2742 -0.4911 -1.3398
 8557TIP3    H247087   2.300   2.432   2.845 -0.5400 -0.2373 -1.3262
 8558TIP3   OH247088   2.127   4.952   4.234  0.2109  0.9560 -0.2771
 8558TIP3    H147089   2.187   4.909   4.295  1.2540  2.4147 -0.2435
 8558TIP3    H247090   2.097   4.882   4.176  0.6233 -0.1044  0.7589
 8559TIP3   OH247091   5.227   2.905  12.180  0.3966  0.2589  0.1970
 8559TIP3    H147092   5.257   2.815  12.191 -0.5539  0.0551  1.2419
 8559TIP3    H247093   5.232   2.922  12.086  3.1697  0.0253  0.2698
 8560TIP3   OH247094   4.699   1.026  14.896 -0.0588  0.2927 -0.8499
 8560TIP3    H147095   4.769   0.989  14.842 -0.0800 -0.1301 -0.5809
 8560TIP3    H247096   4.742   1.094  14.948  0.1411  0.0656 -0.7188
 8561TIP3   OH247097   2.779   6.620  13.816  0.1356  0.4157  0.0556
 8561TIP3    H147098   2.780   6.715  13.827  0.1222  0.2962  1.1290
 8561TIP3    H247099   2.691   6.594  13.843  0.3397  0.0302  0.3509
 8562TIP3   OH247100   3.186   1.598  16.015 -0.1201  0.1246 -0.0780
 8562TIP3    H147101   3.143   1.664  16.070 -2.8643 -0.4315 -1.4513
 8562TIP3    H247102   3.229   1.649  15.946  0.0647  0.6166  0.3967
 8563TIP3   OH247103   1.112   5.870   3.447  0.0495  0.2597  0.2053
 8563TIP3    H147104   1.170   5.912   3.383  0.3471 -2.1225 -1.1475
 8563TIP3    H247105   1.167   5.802   3.487 -1.0226 -0.2228  0.8631
 8564TIP3   OH247106   3.319   1.422  11.130 -0.2747  0.1286  0.5677
 8564TIP3    H147107   3.359   1.417  11.217  1.1578  2.7396  0.1140
 8564TIP3    H247108   3.240   1.474  11.142  0.7749  1.8755  0.0525
 8565TIP3   OH247109   3.846   3.626   0.267 -0.5043  0.5365 -0.5428
 8565TIP3    H147110   3.860   3.548   0.213  2.8821 -0.1191  1.1619
 8565TIP3    H247111   3.833   3.697   0.203 -2.7948 -1.1837 -2.1089
 8566TIP3   OH247112   1.163   0.869  12.838 -0.4406  0.4537 -0.0945
 8566TIP3    H147113   1.136   0.944  12.891  1.3265  0.3825  0.9530
 8566TIP3    H247114   1.254   0.854  12.863 -0.2350 -0.9311 -1.6050
 8567TIP3   OH247115   5.435   6.765   3.219  0.1470  0.2508  0.0333
 8567TIP3    H147116   5.474   6.695   3.166  1.2047 -0.3668  1.5829
 8567TIP3    H247117   5.467   6.846   3.181 -0.2983 -0.1356 -1.1753
 8568TIP3   OH247118   6.608   2.797  11.184 -0.5260 -0.0127  0.2722
 8568TIP3    H147119   6.669   2.805  11.111 -0.1806  0.2342  0.5843
 8568TIP3    H247120   6.663   2.772  11.258 -0.8195  0.1085  0.5314
 8569TIP3   OH247121   4.399   5.565  13.509 -0.3632  0.2644  0.0077
 8569TIP3    H147122   4.457   5.535  13.439  1.8455  1.4917  1.2386
 8569TIP3    H247123   4.438   5.527  13.589 -0.9855  1.4862  0.9018
 8570TIP3   OH247124   6.556   4.198  15.212  0.2736 -0.3927  0.1273
 8570TIP3    H147125   6.507   4.198  15.130 -2.3057  1.0499  1.5996
 8570TIP3    H247126   6.514   4.130  15.265  0.2802  0.3833  1.1535
 8571TIP3   OH247127   1.308   3.805   2.035  0.6758  0.1249  0.1929
 8571TIP3    H147128   1.353   3.721   2.040  0.8888  0.1820 -0.6912
 8571TIP3    H247129   1.217   3.785   2.060  0.1646 -0.8232 -2.2488
 8572TIP3   OH247130   4.291   0.289   4.297  0.4992 -0.1484  0.0596
 8572TIP3    H147131   4.339   0.364   4.262  1.1057  0.1083  1.3940
 8572TIP3    H247132   4.202   0.322   4.311  1.0467  0.6695  1.7067
 8573TIP3   OH247133   3.085   0.462  11.159 -0.2250  0.4301  0.2226
 8573TIP3    H147134   3.019   0.454  11.229  0.6360 -0.8192  0.9059
 8573TIP3    H247135   3.149   0.394  11.178  0.3913  0.5310 -1.4136
 8574TIP3   OH247136   6.692   5.643  15.970  0.1851  0.5059  0.5986
 8574TIP3    H147137   6.671   5.730  15.936  1.1171  0.6299  0.3244
 8574TIP3    H247138   6.644   5.637  16.052 -1.6763  0.3975 -0.4779
 8575TIP3   OH247139   0.866   2.662   4.759 -0.1928 -0.6222  0.1537
 8575TIP3    H147140   0.835   2.662   4.850  0.0186 -0.1775  0.2228
 8575TIP3    H247141   0.792   2.626   4.710 -0.0560 -1.5240  0.5857
 8576TIP3   OH247142   1.231   5.040   4.215  0.3492  0.2572  0.0780
 8576TIP3    H147143   1.239   5.045   4.119 -2.0261 -0.9026 -0.2285
 8576TIP3    H247144   1.174   5.114   4.238  1.8186  1.1982  0.7435
 8577TIP3   OH247145   0.420   6.685   2.119  0.0623  0.1761 -0.0955
 8577TIP3    H147146   0.461   6.695   2.205 -0.5961 -1.0584  0.3790
 8577TIP3    H247147   0.334   6.726   2.129  0.7430  1.8074 -0.7700
 8578TIP3   OH247148   2.987   0.121   5.966  0.3427  0.3523 -0.6038
 8578TIP3    H147149   3.049   0.092   6.032  0.2202 -0.0039 -0.6430
 8578TIP3    H247150   2.986   0.217   5.973 -0.4075  0.2651  0.5802
 8579TIP3   OH247151   0.574   5.553  14.200 -0.5382 -0.0799  0.0279
 8579TIP3    H147152   0.642   5.618  14.179 -1.9106  1.0028 -1.1416
 8579TIP3    H247153   0.580   5.543  14.295  1.4256 -0.1941 -0.0801
 8580TIP3   OH247154   4.055   3.215   4.943 -0.6508  0.4980  0.3254
 8580TIP3    H147155   4.105   3.154   4.997  0.1117  1.9108  1.2428
 8580TIP3    H247156   4.121   3.265   4.896 -1.2261  1.6463  0.7354
 8581TIP3   OH247157   6.580   5.055  10.670 -0.3215  0.2333 -0.2389
 8581TIP3    H147158   6.577   5.150  10.657 -1.5145 -0.0858 -2.6471
 8581TIP3    H247159   6.657   5.027  10.621 -0.9031 -0.2258 -0.8928
 8582TIP3   OH247160   6.520   3.507   5.395  0.0501  0.3449 -0.1812
 8582TIP3    H147161   6.592   3.445   5.389  0.8296  1.3337 -1.1229
 8582TIP3    H247162   6.562   3.593   5.400 -1.0066  0.8144  1.2819
 8583TIP3   OH247163   0.332   4.320  16.578 -0.0915  0.1469  0.3085
 8583TIP3    H147164   0.369   4.403  16.547 -0.4012  0.6230  1.2046
 8583TIP3    H247165   0.265   4.299  16.513  1.2449 -0.3563 -0.9376
 8584TIP3   OH247166   3.937   1.982   6.383 -0.0302 -0.1304 -0.2165
 8584TIP3    H147167   3.989   2.057   6.411  1.8676 -1.3396 -0.4441
 8584TIP3    H247168   3.936   1.924   6.459 -0.5632 -0.3859 -0.4164
 8585TIP3   OH247169   3.771   1.541  16.381  0.5850 -0.0777  0.8807
 8585TIP3    H147170   3.863   1.516  16.384  0.6292  0.0603  0.6685
 8585TIP3    H247171   3.735   1.489  16.309  0.8912  1.1888 -0.1959
 8586TIP3   OH247172   5.553   3.148  15.902  0.6669  0.3027  0.3204
 8586TIP3    H147173   5.480   3.127  15.843  1.2144 -0.7213 -0.0010
 8586TIP3    H247174   5.573   3.239  15.883  1.4740 -0.2909 -1.8076
 8587TIP3   OH247175   1.710   6.014  10.670 -0.5280  0.2199 -0.3778
 8587TIP3    H147176   1.729   5.946  10.735 -1.9595  0.5815  0.4380
 8587TIP3    H247177   1.796   6.037  10.634  0.0828 -1.2764  0.0742
 8588TIP3   OH247178   4.142   2.992   3.819 -0.1831  0.3152 -0.2111
 8588TIP3    H147179   4.052   2.990   3.786  0.0482 -2.1344 -0.7950
 8588TIP3    H247180   4.197   2.985   3.741  0.4619  0.0130  0.2602
 8589TIP3   OH247181   5.465   0.285   1.397 -0.2681 -0.2450  0.6041
 8589TIP3    H147182   5.477   0.377   1.374 -1.3021 -0.8077 -2.3391
 8589TIP3    H247183   5.400   0.287   1.467  0.2412  1.2975  1.0681
 8590TIP3   OH247184   4.529   3.490   4.587  0.2767 -0.4014 -0.6475
 8590TIP3    H147185   4.544   3.398   4.565 -0.5146 -0.4755 -0.8937
 8590TIP3    H247186   4.585   3.505   4.663 -1.0530 -1.6278  0.6185
 8591TIP3   OH247187   4.944   2.594  14.787 -0.0138  0.0564 -0.5408
 8591TIP3    H147188   4.860   2.549  14.796 -0.5691  0.8849 -1.5704
 8591TIP3    H247189   4.990   2.545  14.718  1.2609 -1.7374  1.4951
 8592TIP3   OH247190   5.164   4.444  11.225 -1.0010 -0.3795 -0.1345
 8592TIP3    H147191   5.246   4.403  11.197  1.0144  1.5802  2.6264
 8592TIP3    H247192   5.144   4.506  11.155  0.4974 -0.0616 -0.2983
 8593TIP3   OH247193   3.007   1.356  10.558  0.0550  0.1279 -0.2289
 8593TIP3    H147194   3.050   1.271  10.566 -2.4095 -0.9197  4.4539
 8593TIP3    H247195   2.915   1.334  10.541 -0.5123  1.8407  0.5146
 8594TIP3   OH247196   6.265   0.390  12.807  0.6398  0.2986  0.3877
 8594TIP3    H147197   6.321   0.428  12.875  0.3074 -0.6141  1.1709
 8594TIP3    H247198   6.327   0.359  12.741  0.9420  1.6912 -0.0081
 8595TIP3   OH247199   1.277   1.675  15.168  0.2449 -0.1217  0.3483
 8595TIP3    H147200   1.313   1.707  15.085  0.5702  0.2852  0.6434
 8595TIP3    H247201   1.214   1.607  15.143 -0.2431  0.5512 -0.2791
 8596TIP3   OH247202   0.003   4.954  11.379  0.6299 -0.4612 -0.3735
 8596TIP3    H147203   0.006   5.032  11.434 -0.1307 -0.3863 -0.4370
 8596TIP3    H247204  -0.060   4.975  11.310  0.9420 -0.8683 -0.7852
 8597TIP3   OH247205   5.376   2.280   0.716  0.0533 -0.5455  0.3657
 8597TIP3    H147206   5.431   2.352   0.747  0.0242 -0.0818 -0.6461
 8597TIP3    H247207   5.424   2.201   0.741  1.9619 -0.1404 -1.8772
 8598TIP3   OH247208   2.159   4.261   0.991 -0.2863  0.3724 -0.4511
 8598TIP3    H147209   2.233   4.208   1.021 -1.2292 -0.5493  0.2833
 8598TIP3    H247210   2.177   4.349   1.024 -1.0644 -0.5118  2.4411
 8599TIP3   OH247211   2.004   6.505   4.131  0.2032  0.2113 -0.3181
 8599TIP3    H147212   2.032   6.456   4.208 -1.1003  0.2372  0.1858
 8599TIP3    H247213   1.940   6.448   4.088 -0.6829  1.0949 -0.1945
 8600TIP3   OH247214   3.987   4.537  10.704  0.1000 -0.5279 -0.4518
 8600TIP3    H147215   3.968   4.602  10.772  0.0657 -0.1873 -0.7815
 8600TIP3    H247216   4.082   4.526  10.707  0.0209 -1.0522  0.1361
 8601TIP3   OH247217   2.826   2.611  11.065  0.4445  0.4731 -0.5072
 8601TIP3    H147218   2.882   2.567  11.001 -0.5618  1.0712 -1.8155
 8601TIP3    H247219   2.850   2.704  11.058 -0.8183  0.7569 -1.2078
 8602TIP3   OH247220   1.283   0.863   2.609 -0.3139  0.3494  0.3389
 8602TIP3    H147221   1.282   0.905   2.696 -0.9849  0.2627  0.3772
 8602TIP3    H247222   1.194   0.831   2.597 -0.5050  1.3068 -0.8471
 8603TIP3   OH247223   5.781   3.381   6.311  0.1917  0.0312  1.0357
 8603TIP3    H147224   5.700   3.356   6.266 -0.0880 -0.9556  2.0591
 8603TIP3    H247225   5.759   3.462   6.356  0.7642  1.5808 -1.3709
 8604TIP3   OH247226   4.375   2.760  14.360  1.1294 -0.0806  0.7727
 8604TIP3    H147227   4.375   2.855  14.375 -1.1589 -0.1042  1.1730
 8604TIP3    H247228   4.336   2.724  14.440 -1.3097 -1.0541 -0.8152
 8605TIP3   OH247229   1.850   5.365  15.842  0.9263 -0.1021 -0.2689
 8605TIP3    H147230   1.857   5.384  15.936 -1.3057 -0.5886  0.0299
 8605TIP3    H247231   1.856   5.450  15.800 -1.8580  0.5915  0.5954
 8606TIP3   OH247232   6.330   2.027  14.109  0.8133  0.6470  0.4276
 8606TIP3    H147233   6.386   1.979  14.170  0.4897  2.2929  2.0876
 8606TIP3    H247234   6.241   1.997  14.130  0.7344  0.9485  0.5304
 8607TIP3   OH247235   3.650   2.056  16.109 -1.0463  0.2950 -0.0802
 8607TIP3    H147236   3.637   1.976  16.058 -1.2582  0.0972  0.2840
 8607TIP3    H247237   3.592   2.120  16.069 -0.1716  0.5358 -0.9803
 8608TIP3   OH247238   1.535   0.429   0.853 -0.6701  0.3574  0.2190
 8608TIP3    H147239   1.452   0.391   0.881 -0.6660 -0.0930 -0.3578
 8608TIP3    H247240   1.588   0.354   0.826  0.2072  0.5710  1.3018
 8609TIP3   OH247241   3.755   3.021  14.334  0.2496  0.3856 -0.1461
 8609TIP3    H147242   3.693   3.003  14.404  0.9041 -1.0644  0.0826
 8609TIP3    H247243   3.723   3.101  14.293 -2.1745 -0.7231 -0.4929
 8610TIP3   OH247244   0.062   5.943  16.873  0.1767  0.3794  0.0486
 8610TIP3    H147245   0.031   5.997  16.946  0.3280  0.7027 -0.1240
 8610TIP3    H247246   0.136   5.894  16.909 -0.5426 -0.4106  0.4659
 8611TIP3   OH247247   3.765   4.957  10.733 -0.2977  0.0110 -0.6871
 8611TIP3    H147248   3.701   5.002  10.677  0.9060  1.2731 -1.0789
 8611TIP3    H247249   3.749   4.864  10.717 -0.7196  0.3389 -2.2974
 8612TIP3   OH247250   3.836   3.254   2.434 -0.5010 -0.1472  0.3079
 8612TIP3    H147251   3.840   3.234   2.341  0.1675 -2.3532  0.7738
 8612TIP3    H247252   3.924   3.284   2.456 -0.5072 -0.1428  0.3264
 8613TIP3   OH247253   6.003   1.740   3.881  0.1041  0.0797 -0.1711
 8613TIP3    H147254   6.038   1.828   3.891 -0.1748  0.4468 -2.1660
 8613TIP3    H247255   5.951   1.725   3.960 -0.1482  1.8515  0.0034
 8614TIP3   OH247256   0.215   2.953   4.160 -0.1863 -0.1966  0.2495
 8614TIP3    H147257   0.308   2.930   4.164 -0.1639  0.1615  1.7689
 8614TIP3    H247258   0.212   3.046   4.178 -0.9854 -0.5197  1.8476
 8615TIP3   OH247259   6.727   4.634   0.929 -0.4331  0.5344 -0.6765
 8615TIP3    H147260   6.760   4.648   0.840 -0.8441  1.9989 -0.6188
 8615TIP3    H247261   6.796   4.585   0.973 -0.6765 -1.1430 -2.1012
 8616TIP3   OH247262   5.909   6.583  14.666  0.1850  0.1541  0.3850
 8616TIP3    H147263   5.863   6.521  14.723  1.7137 -0.9211  0.4724
 8616TIP3    H247264   5.878   6.563  14.578  0.1342 -0.2516  0.4946
 8617TIP3   OH247265   1.797   3.792   0.002 -0.2694 -0.4434  0.4926
 8617TIP3    H147266   1.801   3.887   0.016  0.2991 -0.6232  1.5907
 8617TIP3    H247267   1.844   3.755   0.076  2.2203 -1.4813 -1.5160
 8618TIP3   OH247268   0.409   3.924   3.010  0.5567  0.3018 -0.2461
 8618TIP3    H147269   0.454   3.854   3.057 -0.3329 -0.0389  0.1111
 8618TIP3    H247270   0.374   3.980   3.078 -1.6229 -0.7573 -0.4491
 8619TIP3   OH247271   4.676   3.810   3.523  0.5132 -0.2697  0.3019
 8619TIP3    H147272   4.722   3.813   3.439 -0.6685  1.9662 -0.2976
 8619TIP3    H247273   4.699   3.725   3.560  2.3093 -0.6260 -1.5684
 8620TIP3   OH247274   2.296   2.200   6.543 -0.1775 -0.0226 -0.2921
 8620TIP3    H147275   2.365   2.168   6.485  0.6696  1.2944 -0.0437
 8620TIP3    H247276   2.286   2.292   6.520 -0.2256  0.3742  1.2545
 8621TIP3   OH247277   6.519   5.209   2.538 -0.3246  0.1286 -1.1015
 8621TIP3    H147278   6.520   5.147   2.466  1.3067  1.0686 -1.9104
 8621TIP3    H247279   6.561   5.163   2.611 -0.9200 -0.4107 -1.0988
 8622TIP3   OH247280   2.958   2.083  17.055 -0.5615  0.0916  0.0178
 8622TIP3    H147281   3.034   2.080  17.114 -1.1940 -1.6398  0.7636
 8622TIP3    H247282   2.996   2.100  16.968  0.6711 -0.7377  0.3816
 8623TIP3   OH247283   2.929   4.010  14.509 -0.3208 -0.1753  0.4033
 8623TIP3    H147284   2.929   4.084  14.570  0.3886  1.1822 -1.2178
 8623TIP3    H247285   3.007   3.959  14.532  0.9780  1.3477 -0.5708
 8624TIP3   OH247286   1.605   1.517   0.263  0.8734  0.2980 -0.2551
 8624TIP3    H147287   1.682   1.468   0.232  1.6019  1.6782 -0.6391
 8624TIP3    H247288   1.571   1.463   0.335  1.1706 -1.2040 -1.2044
 8625TIP3   OH247289   1.121   0.453  14.916 -0.6907  0.2279 -0.8426
 8625TIP3    H147290   1.081   0.453  14.829 -0.9498  0.2565 -0.7254
 8625TIP3    H247291   1.075   0.383  14.963 -0.5028  0.1654 -0.7505
 8626TIP3   OH247292   4.579   3.695   5.764  0.1063 -0.9192  0.2820
 8626TIP3    H147293   4.528   3.664   5.689  0.4342 -0.8485  0.0305
 8626TIP3    H247294   4.578   3.790   5.756 -0.8003 -0.8540  0.9896
 8627TIP3   OH247295   6.370   5.576  10.854  0.2738 -0.2238 -0.3228
 8627TIP3    H147296   6.377   5.544  10.764 -0.0095  0.5028 -0.6080
 8627TIP3    H247297   6.277   5.596  10.865  0.3088 -0.3084  0.1344
 8628TIP3   OH247298   2.123   3.314  13.738  0.1003 -0.1490  0.6108
 8628TIP3    H147299   2.036   3.343  13.764 -0.0819 -0.3626  0.2434
 8628TIP3    H247300   2.169   3.300  13.821 -0.4555 -0.7757  0.8215
 8629TIP3   OH247301   4.028   4.085   2.320  0.6426 -0.1801 -0.0791
 8629TIP3    H147302   4.059   4.172   2.346 -0.1348  0.1402 -0.2281
 8629TIP3    H247303   3.936   4.098   2.298  0.8489 -0.7959 -1.3235
 8630TIP3   OH247304   6.445   2.078   5.713 -0.3245  0.4808 -0.0247
 8630TIP3    H147305   6.512   2.143   5.732 -1.0779  1.0449  0.7141
 8630TIP3    H247306   6.385   2.122   5.652  0.6479 -0.4408 -1.6826
 8631TIP3   OH247307   2.890   2.769   3.154  0.7849 -0.0874  0.3916
 8631TIP3    H147308   2.838   2.798   3.229  0.0527 -2.6597  0.9416
 8631TIP3    H247309   2.834   2.787   3.078  0.7108  0.7069  0.6290
 8632TIP3   OH247310   3.475   0.833  11.847  0.6148  0.0714 -0.8345
 8632TIP3    H147311   3.525   0.767  11.798  0.6380 -0.4892 -0.0754
 8632TIP3    H247312   3.528   0.851  11.924  0.2366  0.4077 -0.6480
 8633TIP3   OH247313   2.478   0.474  12.967  0.0839 -0.5632  0.0133
 8633TIP3    H147314   2.502   0.384  12.948  1.1361 -0.2955 -0.0055
 8633TIP3    H247315   2.388   0.470  12.997 -0.1021 -1.5386 -0.6447
 8634TIP3   OH247316   1.212   4.324  15.946  0.0841  0.2176 -0.1891
 8634TIP3    H147317   1.247   4.399  15.898  1.0387  1.0986  1.8096
 8634TIP3    H247318   1.150   4.362  16.008 -1.1056 -0.8934 -0.6837
 8635TIP3   OH247319   3.644   1.033  16.363  0.1516  0.0392  0.6917
 8635TIP3    H147320   3.683   1.079  16.289  0.6385  0.4686  1.2158
 8635TIP3    H247321   3.641   0.942  16.335 -1.9209  0.5107 -0.8353
 8636TIP3   OH247322   2.906   6.145  14.015  0.1458 -0.7480 -0.1767
 8636TIP3    H147323   2.850   6.168  14.089 -1.1086 -1.4694 -0.8963
 8636TIP3    H247324   2.849   6.098  13.955  1.8017 -2.5486 -0.3916
 8637TIP3   OH247325   3.585   1.160   2.056  0.0028  0.2686 -0.2655
 8637TIP3    H147326   3.585   1.253   2.077 -0.0310  0.1281  0.3568
 8637TIP3    H247327   3.669   1.128   2.090 -0.0398  0.0480 -0.3687
 8638TIP3   OH247328   6.292   6.011   0.031 -0.3204 -0.2658  0.1644
 8638TIP3    H147329   6.211   5.975  -0.005 -0.3842  1.0836 -1.1041
 8638TIP3    H247330   6.274   6.104   0.044  1.4947  0.4028 -1.6648
 8639TIP3   OH247331   2.932   1.574   4.382  0.5809  0.1996 -0.2346
 8639TIP3    H147332   2.986   1.500   4.411  0.2185  0.1880  0.3984
 8639TIP3    H247333   2.971   1.599   4.298  0.5026 -0.9211 -0.6147
 8640TIP3   OH247334   2.326   5.584  12.130  0.7954 -0.0704 -0.3617
 8640TIP3    H147335   2.306   5.580  12.036 -0.5561 -0.4136 -0.0727
 8640TIP3    H247336   2.297   5.671  12.157 -0.3842 -0.5810  0.0676
 8641TIP3   OH247337   0.867   5.048  10.510  0.2089 -0.1156  0.3734
 8641TIP3    H147338   0.943   5.070  10.564  1.1553 -1.4632 -0.3948
 8641TIP3    H247339   0.869   4.953  10.501 -0.7091 -0.0361 -0.9116
 8642TIP3   OH247340   2.280   5.224   1.220 -0.3199  0.4505 -0.1518
 8642TIP3    H147341   2.366   5.185   1.231 -0.3900  0.0280 -1.0163
 8642TIP3    H247342   2.219   5.163   1.262 -0.2900  0.2761 -0.3577
 8643TIP3   OH247343   1.760   3.542  16.708  0.2014  0.0578 -0.2187
 8643TIP3    H147344   1.821   3.468  16.703 -0.3464 -0.3916 -0.4133
 8643TIP3    H247345   1.756   3.564  16.801 -1.7252 -1.9724  0.2331
 8644TIP3   OH247346   6.489   6.560   0.416 -0.0331 -0.5121  0.0155
 8644TIP3    H147347   6.412   6.599   0.459  0.5898  0.9262 -0.1512
 8644TIP3    H247348   6.548   6.538   0.488  0.8023  1.4508 -0.0361
 8645TIP3   OH247349   3.060   1.445  17.211 -0.7987 -0.2056  0.0002
 8645TIP3    H147350   3.135   1.466  17.155 -1.6097  0.6118 -0.7874
 8645TIP3    H247351   2.986   1.490  17.171 -1.5034 -0.0598  1.4217
 8646TIP3   OH247352   2.636   6.209   1.225 -0.5422 -0.2621 -0.2198
 8646TIP3    H147353   2.715   6.224   1.276  0.4701  1.2611 -2.1493
 8646TIP3    H247354   2.577   6.280   1.251 -0.5945 -0.3604 -0.0711
 8647TIP3   OH247355   4.196   6.490  10.818 -0.0461  0.1866 -0.5480
 8647TIP3    H147356   4.131   6.487  10.888  2.0295 -0.4899  1.4218
 8647TIP3    H247357   4.211   6.398  10.796  0.1763  0.3417 -1.0443
 8648TIP3   OH247358   6.615   1.146  14.250 -0.3778  0.0804  0.2190
 8648TIP3    H147359   6.525   1.176  14.238 -0.6311 -0.8819 -0.3487
 8648TIP3    H247360   6.624   1.073  14.189  1.3059  1.2411 -0.9720
 8649TIP3   OH247361   2.169   0.674  12.396 -0.0657 -0.3114 -0.6348
 8649TIP3    H147362   2.076   0.654  12.384 -0.3428  0.6920 -0.1820
 8649TIP3    H247363   2.178   0.764  12.366  0.3293  0.3316  1.3723
 8650TIP3   OH247364   1.744   4.295  10.919  0.2762  1.1021  0.0002
 8650TIP3    H147365   1.822   4.349  10.934 -0.4925  2.2627 -0.1807
 8650TIP3    H247366   1.684   4.351  10.871 -1.7444  1.1381  2.4411
 8651TIP3   OH247367   5.401   1.728   1.372 -0.1585 -0.0690 -0.2748
 8651TIP3    H147368   5.404   1.675   1.452  1.1172  1.1902  0.5396
 8651TIP3    H247369   5.477   1.699   1.321 -1.1772 -1.1229 -1.2012
 8652TIP3   OH247370   2.694   5.361  15.949  0.1708 -0.5660  0.3153
 8652TIP3    H147371   2.637   5.396  16.017  0.7530  0.1647  0.4314
 8652TIP3    H247372   2.763   5.314  15.996 -0.1487 -1.1637  0.1862
 8653TIP3   OH247373   1.904   6.700   6.306  0.1380 -0.5830  0.1162
 8653TIP3    H147374   1.905   6.605   6.317 -0.5615 -0.5785  0.2064
 8653TIP3    H247375   1.834   6.731   6.363 -0.0589 -0.0701 -0.3929
 8654TIP3   OH247376   0.118   6.219  15.716  0.2380  0.8379  0.1344
 8654TIP3    H147377   0.030   6.202  15.749  0.3813  0.1036  0.1392
 8654TIP3    H247378   0.135   6.311  15.740 -0.2467  0.7682  0.7633
 8655TIP3   OH247379   1.040   2.613   4.550  0.2111  0.3381  0.0960
 8655TIP3    H147380   1.124   2.600   4.594  0.6395  1.5596 -0.3527
 8655TIP3    H247381   0.979   2.635   4.620  0.6932  1.3759  0.2011
 8656TIP3   OH247382   4.519   1.958  14.205 -1.2962 -0.3849  0.1618
 8656TIP3    H147383   4.532   1.968  14.299  2.1422  0.8178 -0.3350
 8656TIP3    H247384   4.453   2.024  14.183 -0.1149  1.2599  1.3739
 8657TIP3   OH247385   4.659   5.538  13.985 -0.4353 -0.0914  0.1997
 8657TIP3    H147386   4.655   5.616  13.930 -0.5390 -1.0592 -1.1915
 8657TIP3    H247387   4.580   5.544  14.039 -0.5003  0.7114  0.0296
 8658TIP3   OH247388   6.465   3.189  15.720 -0.0695  0.3774  0.1557
 8658TIP3    H147389   6.506   3.259  15.771  0.8751  1.6092 -2.1816
 8658TIP3    H247390   6.383   3.226  15.689 -0.2495 -0.0609  0.1030
 8659TIP3   OH247391   0.592   1.481  13.125 -0.0152  0.1394 -0.1711
 8659TIP3    H147392   0.588   1.498  13.219  1.4689 -0.5251  0.0103
 8659TIP3    H247393   0.500   1.477  13.098 -0.4454  1.0322  1.1155
 8660TIP3   OH247394   1.448   0.600   0.488 -0.5477 -0.3496 -0.1647
 8660TIP3    H147395   1.516   0.624   0.424 -1.0385 -1.1606 -1.0096
 8660TIP3    H247396   1.441   0.505   0.479  0.1689 -0.6197  1.8976
 8661TIP3   OH247397   0.698   5.467  13.938  0.0539 -0.8573 -0.6295
 8661TIP3    H147398   0.670   5.488  14.027 -1.0769  1.1281 -1.4177
 8661TIP3    H247399   0.788   5.498  13.933 -0.2219 -0.0358 -0.4879
 8662TIP3   OH247400   3.454   3.024  12.396 -0.0212  0.0056  0.3251
 8662TIP3    H147401   3.458   3.077  12.317 -0.4833  1.8306  1.4995
 8662TIP3    H247402   3.401   2.948  12.371 -0.3549  0.6667 -1.0506
 8663TIP3   OH247403   4.129   6.011   0.121  0.1866  0.1133 -0.0812
 8663TIP3    H147404   4.051   6.060   0.146 -0.2187 -1.2871  1.5277
 8663TIP3    H247405   4.095   5.933   0.077  0.7092 -0.2489  0.1605
 8664TIP3   OH247406   4.816   0.171   3.263 -0.0557 -0.1210  0.3260
 8664TIP3    H147407   4.827   0.092   3.210  0.2126  0.4371 -0.4558
 8664TIP3    H247408   4.852   0.148   3.348 -1.3384 -1.3286  0.5584
 8665TIP3   OH247409   5.426   1.092  11.769 -0.2078  0.5447 -0.0685
 8665TIP3    H147410   5.517   1.114  11.789 -0.6437  1.3233  1.0920
 8665TIP3    H247411   5.410   1.011  11.817 -0.1961  0.5130 -0.1176
 8666TIP3   OH247412   0.067   0.183   3.128 -0.4933 -0.3839  0.5180
 8666TIP3    H147413   0.062   0.231   3.211  0.3082 -0.5643  0.6721
 8666TIP3    H247414   0.154   0.203   3.094 -1.6318  1.5029 -1.3983
 8667TIP3   OH247415   5.206   6.757   3.766 -0.1790 -0.0267  0.1595
 8667TIP3    H147416   5.247   6.841   3.747  1.4518 -1.1125 -1.3032
 8667TIP3    H247417   5.249   6.728   3.847 -0.3811  0.3089  0.3897
 8668TIP3   OH247418   4.289   5.489   5.835 -0.0119  0.0913  0.1221
 8668TIP3    H147419   4.374   5.470   5.875  0.1765 -0.1993 -0.4107
 8668TIP3    H247420   4.310   5.523   5.748 -0.4591 -0.9748 -0.4207
 8669TIP3   OH247421   3.573   4.142  16.681  0.6741  0.3887 -0.1980
 8669TIP3    H147422   3.655   4.104  16.648  0.7744  0.0270  0.4685
 8669TIP3    H247423   3.560   4.101  16.767 -1.6134 -1.5843 -1.4323
 8670TIP3   OH247424   1.482   1.166  16.562  0.6573 -0.3186 -0.5185
 8670TIP3    H147425   1.545   1.100  16.533 -1.3577 -2.6893  0.2906
 8670TIP3    H247426   1.430   1.121  16.629 -0.5366  2.2274  0.2982
 8671TIP3   OH247427   4.113   1.113   5.379  0.9082 -0.2657 -0.1663
 8671TIP3    H147428   4.068   1.197   5.371  0.2546 -0.6323 -0.3448
 8671TIP3    H247429   4.201   1.130   5.346  0.5043  0.1134 -1.0701
 8672TIP3   OH247430   0.823   6.675  17.136  0.3238  0.1565  0.1286
 8672TIP3    H147431   0.832   6.681  17.041 -2.1020 -1.0769 -0.2121
 8672TIP3    H247432   0.902   6.716  17.170  1.5762 -0.0460 -2.4325
 8673TIP3   OH247433   2.542   4.836   0.564 -0.4706 -0.3719 -0.3501
 8673TIP3    H147434   2.475   4.773   0.539 -0.1887  0.1279 -2.4641
 8673TIP3    H247435   2.495   4.901   0.618 -1.0876 -1.4697  0.4546
 8674TIP3   OH247436   4.184   2.721  13.056 -0.3284  0.0555  0.4764
 8674TIP3    H147437   4.250   2.742  13.122 -0.5589 -0.0471  0.7388
 8674TIP3    H247438   4.225   2.746  12.973 -0.6473  1.6250  0.7863
 8675TIP3   OH247439   4.021   1.320  11.709  0.4261 -0.0175  0.1161
 8675TIP3    H147440   4.018   1.228  11.683  0.3987  0.0214 -0.0187
 8675TIP3    H247441   4.062   1.319  11.796  0.9985 -0.1045 -0.1466
 8676TIP3   OH247442   2.142   1.216  13.432 -0.1525 -0.0819  0.5500
 8676TIP3    H147443   2.147   1.170  13.516 -1.6766 -0.0671  0.6745
 8676TIP3    H247444   2.232   1.220  13.400  0.4386 -0.0531  2.2049
 8677TIP3   OH247445   3.727   6.741   4.860  0.0068  0.5908  1.0233
 8677TIP3    H147446   3.777   6.662   4.842  0.0426  0.8870 -0.2049
 8677TIP3    H247447   3.728   6.749   4.956 -0.3294 -1.0955  1.1773
 8678TIP3   OH247448   6.232   4.167  14.053 -0.1965  0.4423  0.2094
 8678TIP3    H147449   6.171   4.155  14.126  1.1086 -1.8723  1.0133
 8678TIP3    H247450   6.299   4.227  14.087 -1.2765  1.9019 -0.2075
 8679TIP3   OH247451   5.743   6.486  14.413 -0.7778 -0.1261  0.5187
 8679TIP3    H147452   5.670   6.473  14.352 -0.8566  0.9923  0.3576
 8679TIP3    H247453   5.789   6.402  14.414 -0.5833 -0.0586 -1.3364
 8680TIP3   OH247454   1.220   5.433   2.855  0.4471 -0.6250  0.4239
 8680TIP3    H147455   1.284   5.378   2.901  1.6255 -0.8932 -1.4909
 8680TIP3    H247456   1.196   5.382   2.778 -1.7384 -0.3161  0.8776
 8681TIP3   OH247457   3.894   5.211   4.992  0.3586  0.2987 -0.1647
 8681TIP3    H147458   3.832   5.141   4.968  0.1969  0.0823  0.8501
 8681TIP3    H247459   3.906   5.261   4.911 -1.3742  0.5194 -0.3197
 8682TIP3   OH247460   0.525   1.997   3.804  0.1810 -0.2435  0.6115
 8682TIP3    H147461   0.436   1.967   3.787  0.1834  0.4016 -0.5989
 8682TIP3    H247462   0.515   2.086   3.838  0.4737  1.0786 -2.5914
 8683TIP3   OH247463   1.302   4.594  16.666 -0.5085 -0.6410  0.5599
 8683TIP3    H147464   1.222   4.622  16.710 -0.4587 -1.1388  0.9782
 8683TIP3    H247465   1.279   4.510  16.626 -0.1500 -0.8696  0.8258
 8684TIP3   OH247466   3.509   0.285  14.643  0.3478 -0.2632  0.2959
 8684TIP3    H147467   3.492   0.283  14.737 -0.6923  2.3822  0.2061
 8684TIP3    H247468   3.424   0.302  14.604  0.7228 -1.6513 -1.1710
 8685TIP3   OH247469   5.247   2.649   0.567  0.2647 -0.5750 -0.1045
 8685TIP3    H147470   5.161   2.687   0.581  0.2983  0.2107 -1.9220
 8685TIP3    H247471   5.280   2.630   0.655 -0.8691  1.0908  0.7005
 8686TIP3   OH247472   4.442   6.245   4.857  0.2350 -0.7614  0.0617
 8686TIP3    H147473   4.536   6.258   4.872  0.0159 -1.4751  2.1135
 8686TIP3    H247474   4.428   6.276   4.767  2.0874  1.0715  0.3586
 8687TIP3   OH247475   0.099   6.237   1.296 -0.0961  0.0530 -0.6124
 8687TIP3    H147476   0.188   6.272   1.297  0.2922 -0.8769 -1.2369
 8687TIP3    H247477   0.107   6.150   1.337 -0.8591  0.2837  0.0414
 8688TIP3   OH247478   1.208   3.037  13.156  0.1010  0.7283  0.0212
 8688TIP3    H147479   1.237   3.091  13.082  2.4911 -1.7142 -0.9070
 8688TIP3    H247480   1.267   3.061  13.227  0.9221 -0.3082 -0.2859
 8689TIP3   OH247481   4.019   1.317  16.395 -0.2935 -0.2774  0.2526
 8689TIP3    H147482   4.097   1.288  16.443 -0.6562  0.4592  1.3249
 8689TIP3    H247483   3.947   1.302  16.457 -1.3306 -3.0465 -1.5397
 8690TIP3   OH247484   6.601   4.552   3.414 -0.0269 -0.5792  0.2285
 8690TIP3    H147485   6.619   4.626   3.356  0.6363  0.7191  2.0433
 8690TIP3    H247486   6.539   4.586   3.478  1.0510 -1.2873  1.6816
 8691TIP3   OH247487   5.703   0.774  11.152 -0.3802  0.1732 -0.0718
 8691TIP3    H147488   5.715   0.869  11.153  1.8545 -0.0680  1.8841
 8691TIP3    H247489   5.616   0.761  11.116 -0.8204  2.9716 -0.1469
 8692TIP3   OH247490   2.536   5.109   1.991  0.8406 -0.1252  0.6975
 8692TIP3    H147491   2.495   5.157   1.919  0.8846 -1.0439  0.0598
 8692TIP3    H247492   2.624   5.089   1.960  0.0756 -2.6333  0.0193
 8693TIP3   OH247493   5.432   4.072  11.948 -0.0525  0.1648 -0.4498
 8693TIP3    H147494   5.396   4.017  11.878 -1.6198  2.0161 -1.1524
 8693TIP3    H247495   5.527   4.065  11.938 -0.2524  0.2733 -2.6785
 8694TIP3   OH247496   4.079   2.280   4.283  0.3775 -0.4437  0.2967
 8694TIP3    H147497   4.060   2.363   4.239  0.8123 -0.6044 -0.1980
 8694TIP3    H247498   3.993   2.238   4.292  0.2905 -0.4487 -0.4830
 8695TIP3   OH247499   1.696   0.863   4.813 -0.6362 -0.4487  0.3582
 8695TIP3    H147500   1.620   0.882   4.757 -0.0746  0.2617 -0.1824
 8695TIP3    H247501   1.730   0.780   4.779  0.8572  0.9490 -1.6580
 8696TIP3   OH247502   2.465   5.384   1.780 -0.3098  0.2989  0.2133
 8696TIP3    H147503   2.373   5.362   1.766 -0.1328 -0.5614  0.3918
 8696TIP3    H247504   2.513   5.323   1.724  0.0809  2.2255 -1.6091
 8697TIP3   OH247505   0.973   6.303  13.958 -0.5933 -0.2583 -0.0423
 8697TIP3    H147506   1.020   6.336  14.034 -0.2156 -1.2063  0.1326
 8697TIP3    H247507   1.025   6.333  13.883 -1.4900  1.5201  0.0170
 8698TIP3   OH247508   5.425   6.190   0.872 -0.1076  0.1198  0.0242
 8698TIP3    H147509   5.464   6.243   0.941 -0.8562 -1.0015  1.3533
 8698TIP3    H247510   5.399   6.109   0.917 -1.4730 -0.2339 -1.3787
 8699TIP3   OH247511   2.979   1.995   2.417 -0.1520  0.0754 -0.2159
 8699TIP3    H147512   2.940   1.944   2.488  1.7670 -0.7614  0.2746
 8699TIP3    H247513   2.986   2.083   2.453 -1.4417  0.2061 -0.2619
 8700TIP3   OH247514   4.611   4.166   1.528 -0.6322  0.2136  0.0464
 8700TIP3    H147515   4.700   4.157   1.493 -0.0402 -1.2873  1.8362
 8700TIP3    H247516   4.556   4.177   1.451  1.0264  0.4851 -1.1368
 8701TIP3   OH247517   0.655   3.898  12.399 -0.4558  0.0284  0.7050
 8701TIP3    H147518   0.680   3.879  12.490 -0.5113  0.4402  0.8056
 8701TIP3    H247519   0.587   3.964  12.406 -0.6217 -0.1038  0.3686
 8702TIP3   OH247520   2.472   2.865   1.614 -0.6230 -0.1464 -0.2488
 8702TIP3    H147521   2.547   2.843   1.669  0.4527  0.1936 -1.5431
 8702TIP3    H247522   2.432   2.941   1.656 -1.7260 -1.8242  1.8132
 8703TIP3   OH247523   4.273   3.413   0.136 -0.0470 -0.4991  0.1619
 8703TIP3    H147524   4.243   3.479   0.198  0.5906 -1.2829  1.3189
 8703TIP3    H247525   4.193   3.377   0.098 -0.3955  2.0335 -1.6923
 8704TIP3   OH247526   0.431   5.715   3.831  0.3604  0.0585 -0.5277
 8704TIP3    H147527   0.409   5.808   3.821 -1.2547 -0.1952  0.5625
 8704TIP3    H247528   0.352   5.675   3.867  1.6036 -1.4467  0.6123
 8705TIP3   OH247529   2.968   3.217  14.985  0.1166  0.0259  0.0315
 8705TIP3    H147530   2.967   3.275  15.061  0.0189 -0.6065  0.5121
 8705TIP3    H247531   3.046   3.163  14.997  1.2097  1.2404 -1.3228
 8706TIP3   OH247532   3.306   2.146  10.637 -0.5015  0.0865 -0.0755
 8706TIP3    H147533   3.286   2.052  10.638 -0.3628  0.0606  0.3743
 8706TIP3    H247534   3.400   2.150  10.620 -0.4139  0.1238  0.3919
 8707TIP3   OH247535   3.055   6.354  11.219 -0.0499  0.2451  0.5117
 8707TIP3    H147536   3.100   6.375  11.301  0.3389  1.3543  0.0258
 8707TIP3    H247537   2.965   6.382  11.233 -0.5556 -1.7133  1.3825
 8708TIP3   OH247538   0.120   0.336  16.731 -0.0930 -0.3144 -0.0003
 8708TIP3    H147539   0.102   0.242  16.722 -0.3900 -0.3900  1.2939
 8708TIP3    H247540   0.048   0.369  16.785  0.0662  0.6424 -0.3617
 8709TIP3   OH247541   6.185   4.656  15.694 -0.1506  0.3152 -0.9974
 8709TIP3    H147542   6.120   4.614  15.751  2.9257  0.2574  2.7375
 8709TIP3    H247543   6.169   4.750  15.706  0.1538  0.2952 -0.3732
 8710TIP3   OH247544   5.048   0.361  12.653  0.5937 -0.0123  0.1477
 8710TIP3    H147545   5.105   0.432  12.622  0.3950  0.2208  0.3102
 8710TIP3    H247546   4.985   0.405  12.711  1.0267 -0.4465  0.9622
 8711TIP3   OH247547   3.198   5.785  11.918 -1.2146 -0.1581  0.0630
 8711TIP3    H147548   3.197   5.873  11.879  1.1946  0.6327  1.7033
 8711TIP3    H247549   3.128   5.738  11.872 -0.2534  1.5448 -3.2985
 8712TIP3   OH247550   4.775   5.820  14.683 -0.0943  0.3566 -0.1803
 8712TIP3    H147551   4.695   5.771  14.664  0.1198  0.2804 -0.8847
 8712TIP3    H247552   4.746   5.911  14.691 -0.2300  0.3483 -0.5732
 8713TIP3   OH247553   2.781   4.085  11.658  0.0511  0.0363  0.5201
 8713TIP3    H147554   2.811   4.106  11.569 -0.5736 -2.5212 -0.3358
 8713TIP3    H247555   2.856   4.106  11.714  0.9949  0.2386 -0.7927
 8714TIP3   OH247556   3.713   3.950   3.088 -0.3379 -0.2912 -0.3884
 8714TIP3    H147557   3.785   3.980   3.144 -0.7459 -2.5710  1.4309
 8714TIP3    H247558   3.742   3.972   2.999  0.7997  2.4139  0.6044
 8715TIP3   OH247559   3.460   2.734  17.004  0.7229  0.3454 -0.0043
 8715TIP3    H147560   3.381   2.700  16.963 -0.2878  3.3648 -0.6919
 8715TIP3    H247561   3.509   2.775  16.932  1.5355  0.9809  0.8974
 8716TIP3   OH247562   4.275   6.682  16.279 -0.4284 -0.2943 -0.1510
 8716TIP3    H147563   4.187   6.654  16.253 -0.2828 -0.0011 -0.9858
 8716TIP3    H247564   4.303   6.618  16.344 -0.6943 -1.2199 -0.9366
 8717TIP3   OH247565   0.958   5.435   3.546 -0.5926  0.2738 -0.0966
 8717TIP3    H147566   0.905   5.371   3.595 -0.3197 -0.2166 -0.4323
 8717TIP3    H247567   0.958   5.513   3.601 -0.7181 -0.1022  0.4483
 8718TIP3   OH247568   3.439   5.502   1.590  0.6519  0.1075 -0.3316
 8718TIP3    H147569   3.489   5.559   1.648 -1.6667  0.0788  1.7772
 8718TIP3    H247570   3.362   5.477   1.641 -0.0817 -2.1778 -2.4333
 8719TIP3   OH247571   0.560   2.941  10.939 -0.2717 -0.1820 -0.6369
 8719TIP3    H147572   0.578   3.013  10.878 -2.7198 -0.0918 -1.2841
 8719TIP3    H247573   0.612   2.868  10.905 -1.8289 -0.2161 -3.0283
 8720TIP3   OH247574   5.489   6.003   5.402 -0.3328 -0.1101  0.3210
 8720TIP3    H147575   5.540   5.941   5.455 -0.6161 -0.5265  0.1050
 8720TIP3    H247576   5.470   5.955   5.322  0.7140  0.7696 -0.4614
 8721TIP3   OH247577   3.433   2.921   1.099 -0.0193 -0.0003 -0.8033
 8721TIP3    H147578   3.403   2.908   1.189  0.3442  0.3622 -0.6278
 8721TIP3    H247579   3.357   2.956   1.053 -0.3628 -0.6968 -0.7641
 8722TIP3   OH247580   4.523   6.518  11.958  0.4272 -0.5594 -0.4149
 8722TIP3    H147581   4.525   6.508  11.863  2.2977 -0.1473 -0.4432
 8722TIP3    H247582   4.550   6.608  11.974 -0.1101 -0.5531  0.5005
 8723TIP3   OH247583   2.596   2.754  11.296 -0.0453  0.0714  0.0895
 8723TIP3    H147584   2.620   2.833  11.247  0.2756 -1.1347 -1.7526
 8723TIP3    H247585   2.558   2.696  11.230  0.0723 -1.4481  1.3453
 8724TIP3   OH247586   1.553   4.507   4.920 -0.1260 -0.0137 -0.0647
 8724TIP3    H147587   1.609   4.576   4.885 -1.4262  0.5396 -1.1275
 8724TIP3    H247588   1.611   4.431   4.930  0.4150 -0.0581 -3.0541
 8725TIP3   OH247589   5.982   0.976  16.050  0.0695  0.2469  0.0920
 8725TIP3    H147590   6.006   0.940  15.965  0.1040  2.1034 -0.7175
 8725TIP3    H247591   6.022   0.917  16.114  1.9773  0.0961 -1.1955
 8726TIP3   OH247592   2.505   3.788  10.905  0.5779 -0.0530 -0.6391
 8726TIP3    H147593   2.450   3.733  10.848  0.4445 -0.9961  0.3762
 8726TIP3    H247594   2.523   3.732  10.980  0.2813  1.3797  0.5142
 8727TIP3   OH247595   4.067   1.668   3.718 -0.1435 -0.4666  0.0530
 8727TIP3    H147596   4.163   1.672   3.719 -0.0479 -0.7994 -2.9698
 8727TIP3    H247597   4.040   1.758   3.733  0.6667 -0.1377 -0.4195
 8728TIP3   OH247598   4.550   1.611   6.423  0.0020  0.0846  0.0889
 8728TIP3    H147599   4.528   1.647   6.509  0.1087  1.2478 -0.3600
 8728TIP3    H247600   4.466   1.591   6.383 -0.1213  1.2594 -0.2518
 8729TIP3   OH247601   6.618   6.454  11.185 -0.9304 -0.5564 -0.3418
 8729TIP3    H147602   6.565   6.379  11.210 -0.4775 -0.8137 -0.1591
 8729TIP3    H247603   6.604   6.518  11.254  0.4352 -1.3207  0.6588
 8730TIP3   OH247604   2.839   5.009   6.398 -0.2704  0.0418  0.6242
 8730TIP3    H147605   2.901   5.067   6.355  0.5403  0.1631  1.9393
 8730TIP3    H247606   2.892   4.957   6.459 -1.6661  1.2418  2.9131
 8731TIP3   OH247607   4.206   5.282   2.442 -0.2927 -0.8062 -0.1175
 8731TIP3    H147608   4.296   5.285   2.474 -0.3403 -0.9501  0.0297
 8731TIP3    H247609   4.161   5.353   2.488 -0.3332 -0.9417  0.0516
 8732TIP3   OH247610   4.197   6.237   2.603  0.0663 -0.0853  0.2136
 8732TIP3    H147611   4.282   6.196   2.620  0.3474  0.8456  1.1156
 8732TIP3    H247612   4.157   6.183   2.535  1.2944 -0.6576 -0.0666
 8733TIP3   OH247613   0.346   0.314   4.377 -0.5465  0.2292 -0.1594
 8733TIP3    H147614   0.376   0.403   4.396  0.8459  0.1455 -1.7993
 8733TIP3    H247615   0.361   0.304   4.283 -2.9667 -0.9069 -0.4614
 8734TIP3   OH247616   2.415   4.517  11.942 -0.4315 -0.1019  0.1214
 8734TIP3    H147617   2.374   4.497  12.026  1.0865  0.5104  1.0379
 8734TIP3    H247618   2.394   4.443  11.885 -0.7390 -0.9374  1.3198
 8735TIP3   OH247619   2.487   4.291  15.528  0.6584 -0.5467 -0.1604
 8735TIP3    H147620   2.554   4.296  15.460  1.2525  1.9921  0.5530
 8735TIP3    H247621   2.520   4.348  15.598 -0.9761 -1.3812  1.3272
 8736TIP3   OH247622   4.630   3.690   1.761 -0.2091  0.0157 -0.2757
 8736TIP3    H147623   4.576   3.650   1.693 -1.9767  1.3598  0.2884
 8736TIP3    H247624   4.675   3.762   1.716  0.9004 -0.9370 -0.6869
 8737TIP3   OH247625   1.620   3.930  16.873 -0.2656  0.2848  0.1507
 8737TIP3    H147626   1.554   3.999  16.882  1.0253  1.4456  1.0114
 8737TIP3    H247627   1.585   3.856  16.923 -1.1631  0.6932  0.1359
 8738TIP3   OH247628   0.518   2.907   4.222 -0.1694  0.0003  0.2451
 8738TIP3    H147629   0.590   2.912   4.159 -0.2000 -1.1319  0.1053
 8738TIP3    H247630   0.560   2.895   4.307 -0.0877  2.5849  0.6066
 8739TIP3   OH247631   6.504   5.534   0.272  0.9932 -0.0134 -0.6969
 8739TIP3    H147632   6.579   5.585   0.241  0.4603  1.8384  0.9106
 8739TIP3    H247633   6.539   5.448   0.293  2.3526  0.3497 -1.4905
 8740TIP3   OH247634   4.774   1.425  11.892 -0.0650  0.1485 -0.3807
 8740TIP3    H147635   4.714   1.351  11.885 -0.0940  0.0727  0.6651
 8740TIP3    H247636   4.792   1.433  11.985 -0.2117  1.5913 -0.4625
 8741TIP3   OH247637   1.880   6.188  16.727 -0.1040 -0.0607 -0.0968
 8741TIP3    H147638   1.972   6.216  16.737 -0.5018  1.0911  0.5439
 8741TIP3    H247639   1.875   6.105  16.775  0.6447 -0.2099 -0.2694
 8742TIP3   OH247640   2.043   4.849  10.801 -0.1599  0.1932 -0.4098
 8742TIP3    H147641   2.121   4.807  10.765 -0.6187 -0.8268 -0.2278
 8742TIP3    H247642   2.077   4.923  10.852  0.8600 -1.5440  1.5054
 8743TIP3   OH247643   1.040   3.351  13.115  0.4333  0.3089 -0.5006
 8743TIP3    H147644   1.104   3.397  13.061  0.6682  1.7966  0.9750
 8743TIP3    H247645   0.970   3.416  13.129  0.9654  0.3852  1.9630
 8744TIP3   OH247646   2.786   5.051   1.913 -0.1060 -0.2483  0.1782
 8744TIP3    H147647   2.870   5.019   1.946 -1.9607 -2.0637  3.3753
 8744TIP3    H247648   2.760   4.986   1.848  1.8022  1.3611 -2.3039
 8745TIP3   OH247649   3.731   3.718   5.914 -0.0612  0.2977 -0.3269
 8745TIP3    H147650   3.746   3.800   5.960 -3.0513  0.9013 -0.2985
 8745TIP3    H247651   3.663   3.673   5.965  1.4266 -2.1341 -0.4187
 8746TIP3   OH247652   1.940   6.317  15.558  0.6449 -0.2896 -0.3290
 8746TIP3    H147653   1.867   6.323  15.620  1.6179 -0.8128  0.8908
 8746TIP3    H247654   1.998   6.250  15.595  1.6383 -0.0393 -1.3938
 8747TIP3   OH247655   6.562   5.858  12.257  0.3178 -0.3347  0.1053
 8747TIP3    H147656   6.542   5.848  12.350  0.9082  0.6424  0.3427
 8747TIP3    H247657   6.513   5.787  12.214 -0.3351 -0.4965  1.1056
 8748TIP3   OH247658   4.779   0.823   2.756 -0.4806 -0.2974  0.1911
 8748TIP3    H147659   4.728   0.837   2.837 -0.5247  2.7127 -0.3013
 8748TIP3    H247660   4.757   0.899   2.701  1.9523 -0.7170 -1.4003
 8749TIP3   OH247661   3.886   6.768   1.200 -0.1559  1.2066 -0.5174
 8749TIP3    H147662   3.972   6.729   1.216 -0.8166  0.7628  2.1715
 8749TIP3    H247663   3.850   6.715   1.128  0.8485 -0.1415 -0.0631
 8750TIP3   OH247664   3.178   4.716   4.475 -0.0829  0.0286 -0.2850
 8750TIP3    H147665   3.198   4.802   4.510 -2.1292  0.6656 -0.6093
 8750TIP3    H247666   3.184   4.726   4.380 -1.2026  0.0803 -0.3658
 8751TIP3   OH247667   5.486   4.886  14.667  0.6931  0.0415  0.0944
 8751TIP3    H147668   5.485   4.957  14.603 -0.5810  1.5297  1.7007
 8751TIP3    H247669   5.496   4.806  14.615 -1.6465  1.0858 -2.0650
 8752TIP3   OH247670   3.522   0.482   4.272  0.2712 -0.1357 -0.2110
 8752TIP3    H147671   3.460   0.410   4.284 -1.2682  0.4943 -3.7733
 8752TIP3    H247672   3.472   0.549   4.226  1.6325  3.3259  3.0762
 8753TIP3   OH247673   6.680   5.761  16.775 -0.0388 -0.2309 -0.2938
 8753TIP3    H147674   6.750   5.710  16.734  0.1420 -0.0214 -0.2418
 8753TIP3    H247675   6.724   5.832  16.821 -0.2908 -0.0392 -0.3447
 8754TIP3   OH247676   5.038   0.708   1.679 -0.3236  0.2214  0.3820
 8754TIP3    H147677   5.077   0.678   1.761  1.0677 -1.3825 -0.8109
 8754TIP3    H247678   4.999   0.793   1.700  1.1698  0.4498  2.3743
 8755TIP3   OH247679   0.554   0.232   0.210 -0.5916  0.3761 -0.5315
 8755TIP3    H147680   0.610   0.186   0.148  1.0168  0.8902  0.4964
 8755TIP3    H247681   0.578   0.195   0.295 -1.6543  0.7770 -0.0517
 8756TIP3   OH247682   6.004   3.565   5.373 -0.0157  0.0096 -0.0386
 8756TIP3    H147683   6.016   3.651   5.414  0.5547 -1.3100  2.7185
 8756TIP3    H247684   6.093   3.536   5.353  0.2706 -2.1349  3.9192
 8757TIP3   OH247685   0.494   2.511  15.356  0.5099 -0.1086  0.0567
 8757TIP3    H147686   0.511   2.417  15.351  1.3543  0.0588 -0.2681
 8757TIP3    H247687   0.562   2.551  15.303 -1.6019  0.5252 -2.2715
 8758TIP3   OH247688   5.606   5.922  11.929  0.0756  0.3107  0.2863
 8758TIP3    H147689   5.533   5.948  11.873  0.2817  0.0278 -0.1159
 8758TIP3    H247690   5.606   5.986  12.000 -2.3639 -1.3458  1.8691
 8759TIP3   OH247691   4.693   5.126   0.428 -0.0934  0.6486  0.4618
 8759TIP3    H147692   4.788   5.141   0.429 -0.2244  1.5613 -0.1599
 8759TIP3    H247693   4.671   5.106   0.519  1.0728 -2.0589  0.1910
 8760TIP3   OH247694   0.867   5.225  11.516  0.3240  0.2007 -0.4348
 8760TIP3    H147695   0.827   5.212  11.431 -1.6446  0.5658  0.4168
 8760TIP3    H247696   0.828   5.158  11.572  1.0626  0.4127  0.3516
 8761TIP3   OH247697   0.676   5.689   3.457 -0.4848  0.6996 -0.4500
 8761TIP3    H147698   0.669   5.668   3.364 -1.5733  0.7219 -0.3791
 8761TIP3    H247699   0.640   5.778   3.464 -1.5954  0.2039  0.1836
 8762TIP3   OH247700   4.252   3.399   4.832 -0.3121 -0.3851 -0.3466
 8762TIP3    H147701   4.330   3.353   4.865 -2.1033 -3.3331  0.0126
 8762TIP3    H247702   4.254   3.484   4.876  1.2846 -1.4331  1.7099
 8763TIP3   OH247703   0.917   0.581   2.454  0.2642  0.4690 -0.2466
 8763TIP3    H147704   0.979   0.510   2.469 -0.3380 -0.1577 -0.6326
 8763TIP3    H247705   0.954   0.657   2.499  0.4332 -0.3424  1.0007
 8764TIP3   OH247706   4.108   3.661  15.286 -0.1972  0.6514  0.2215
 8764TIP3    H147707   4.052   3.629  15.356  0.9416  0.9730  1.3016
 8764TIP3    H247708   4.053   3.723  15.238 -0.8935  0.6523  1.0058
 8765TIP3   OH247709   3.662   2.049  15.718  0.2523  0.0079  0.4715
 8765TIP3    H147710   3.605   2.098  15.659 -0.9288 -1.9471 -0.0399
 8765TIP3    H247711   3.746   2.095  15.713 -0.5506  1.4063 -0.7059
 8766TIP3   OH247712   6.715   1.105  15.244 -0.0255 -0.2879  0.0565
 8766TIP3    H147713   6.793   1.159  15.237 -1.6021  1.8811 -1.5317
 8766TIP3    H247714   6.723   1.043  15.171 -0.7071  1.2193 -1.3354
 8767TIP3   OH247715   0.851   5.777   1.907  0.4390 -0.1738  0.2548
 8767TIP3    H147716   0.945   5.792   1.894  0.4551  0.2294  0.8410
 8767TIP3    H247717   0.808   5.842   1.852  0.5051  0.2262  0.6760
 8768TIP3   OH247718   3.683   0.505   1.853 -0.1921 -0.1410 -0.5720
 8768TIP3    H147719   3.615   0.439   1.837  0.5436 -0.8344 -0.9225
 8768TIP3    H247720   3.641   0.588   1.834 -1.8897 -0.2871  2.2685
 8769TIP3   OH247721   3.278   4.891   5.888 -0.0698 -0.0184  0.5135
 8769TIP3    H147722   3.270   4.914   5.981  2.7579 -1.0992  1.0850
 8769TIP3    H247723   3.373   4.880   5.874 -0.5415 -1.1296 -2.1941
 8770TIP3   OH247724   2.109   5.904  16.677 -0.2158  0.0568  0.2080
 8770TIP3    H147725   2.200   5.931  16.668 -1.0921  3.3374  0.5720
 8770TIP3    H247726   2.069   5.972  16.731 -2.7936 -1.5762  0.4649
 8771TIP3   OH247727   2.946   3.634  12.514 -0.2451  0.0025  0.4122
 8771TIP3    H147728   3.016   3.697  12.495  0.3747 -0.8169 -0.0274
 8771TIP3    H247729   2.942   3.630  12.610  1.5062 -1.2617  0.4471
 8772TIP3   OH247730   4.403   4.615  16.000  0.1473 -0.0168  0.3135
 8772TIP3    H147731   4.373   4.705  16.010  1.5742  0.4370  0.6323
 8772TIP3    H247732   4.372   4.570  16.078 -1.2075  0.0107 -0.2001
 8773TIP3   OH247733   3.180   3.772  16.439 -0.0573  0.5398 -0.2222
 8773TIP3    H147734   3.122   3.743  16.369  0.9229 -0.3355 -0.6919
 8773TIP3    H247735   3.260   3.720  16.427 -0.2006 -0.2545  2.0684
 8774TIP3   OH247736   6.101   6.203   3.596  0.7077  0.3369 -0.0251
 8774TIP3    H147737   6.123   6.291   3.627 -0.8026  0.4064  0.8719
 8774TIP3    H247738   6.134   6.144   3.663 -0.3630  0.3550  0.5273
 8775TIP3   OH247739   5.733   4.535   6.255 -0.2334  0.1536  0.9357
 8775TIP3    H147740   5.808   4.593   6.259  0.2887 -0.5645  1.9421
 8775TIP3    H247741   5.771   4.447   6.252 -1.0314 -0.3097  3.4179
 8776TIP3   OH247742   0.725   3.127  14.210  0.3250  0.2984  0.4322
 8776TIP3    H147743   0.775   3.048  14.227  0.4986  0.6936  1.8536
 8776TIP3    H247744   0.752   3.188  14.279 -0.0217  1.4856 -0.4618
 8777TIP3   OH247745   6.548   5.062   0.753  0.2779 -0.3664  0.5850
 8777TIP3    H147746   6.577   5.152   0.737 -2.4774  0.4985  0.1355
 8777TIP3    H247747   6.511   5.064   0.842 -0.4561 -0.8814  0.2926
 8778TIP3   OH247748   0.462   4.789   2.718  0.6665 -0.0328 -0.2315
 8778TIP3    H147749   0.375   4.811   2.752  1.2247  1.3912  0.3066
 8778TIP3    H247750   0.448   4.776   2.624 -0.1080  0.3216 -0.1700
 8779TIP3   OH247751   1.499   4.739  15.784  0.2371 -0.6829  0.3766
 8779TIP3    H147752   1.592   4.717  15.789  0.2731 -0.9291 -1.1827
 8779TIP3    H247753   1.492   4.825  15.824  1.3673 -0.0724 -0.7128
 8780TIP3   OH247754   0.819   0.646   4.211 -0.1414 -0.0567 -0.1599
 8780TIP3    H147755   0.810   0.553   4.231 -0.8767 -0.2818 -1.5032
 8780TIP3    H247756   0.883   0.678   4.275  0.5708 -1.6025 -0.0835
 8781TIP3   OH247757   1.647   1.386  12.779 -0.0774 -0.5921  0.0788
 8781TIP3    H147758   1.613   1.296  12.777 -1.5618 -0.0462  0.3741
 8781TIP3    H247759   1.641   1.415  12.688 -0.5841 -0.4386  0.1577
 8782TIP3   OH247760   4.009   3.743   2.207 -0.3523  0.8007  0.1013
 8782TIP3    H147761   4.042   3.744   2.296 -1.2234 -0.2095  0.4403
 8782TIP3    H247762   4.041   3.825   2.169  0.4307  1.0053  1.1773
 8783TIP3   OH247763   1.959   2.382  16.765  0.0178  0.1548 -0.6353
 8783TIP3    H147764   1.866   2.395  16.747 -0.8127 -0.2034  2.9624
 8783TIP3    H247765   1.989   2.466  16.800  0.7400 -0.1378 -0.5294
 8784TIP3   OH247766   4.226   3.548   6.521 -0.3866 -0.4230 -0.4400
 8784TIP3    H147767   4.313   3.512   6.541 -0.4652 -1.4341 -1.8638
 8784TIP3    H247768   4.244   3.633   6.481 -0.2081  1.3768  3.1951
 8785TIP3   OH247769   6.220   0.008  13.977  0.4480 -0.7611 -0.2282
 8785TIP3    H147770   6.295   0.052  14.015  1.0424 -0.5064 -1.6421
 8785TIP3    H247771   6.235  -0.085  13.992  0.6150 -0.6525  0.2628
 8786TIP3   OH247772   5.690   0.880  16.987 -0.1067  0.0667  0.4111
 8786TIP3    H147773   5.775   0.837  16.993 -0.5072 -0.6464  1.0077
 8786TIP3    H247774   5.683   0.933  17.067  0.1630  0.8377 -0.0710
 8787TIP3   OH247775   6.498   4.705  12.718 -0.5341  0.4681  0.2514
 8787TIP3    H147776   6.466   4.619  12.743 -0.4815  0.1652 -0.7190
 8787TIP3    H247777   6.467   4.763  12.788 -1.8597 -0.0834  0.1435
 8788TIP3   OH247778   1.624   5.711  13.015  0.4410 -0.1913 -0.0571
 8788TIP3    H147779   1.650   5.803  13.014  0.9376 -0.3264  0.1853
 8788TIP3    H247780   1.529   5.712  13.016  0.4618  0.3331  1.3182
 8789TIP3   OH247781   4.452   6.506   2.721  0.0614  0.0417 -0.2330
 8789TIP3    H147782   4.429   6.469   2.636  2.6648 -1.1090 -0.4797
 8789TIP3    H247783   4.426   6.598   2.715 -3.0265 -0.8158 -0.9695
 8790TIP3   OH247784   1.137   6.620  16.078 -0.1926 -0.4394  0.4900
 8790TIP3    H147785   1.181   6.696  16.116  0.9885 -1.1507  0.5625
 8790TIP3    H247786   1.182   6.545  16.116 -1.6532 -1.1852  0.7661
 8791TIP3   OH247787   5.413   5.737  15.210 -0.0431 -0.5922 -0.1496
 8791TIP3    H147788   5.376   5.807  15.156  1.1679  2.0940  2.3505
 8791TIP3    H247789   5.353   5.731  15.285  1.7497  0.2520  1.3928
 8792TIP3   OH247790   5.195   1.500  14.789 -0.2905  0.2288  0.0721
 8792TIP3    H147791   5.208   1.508  14.884 -0.6600  0.3254  0.1175
 8792TIP3    H247792   5.220   1.586  14.755 -2.2624  0.9404  0.3289
 8793TIP3   OH247793   4.204   1.840  11.565 -0.1247  0.0487 -0.0144
 8793TIP3    H147794   4.290   1.798  11.560 -0.0187  0.0651  1.6665
 8793TIP3    H247795   4.194   1.882  11.479  0.7050 -1.5472 -0.9136
 8794TIP3   OH247796   5.867   2.473   2.015  0.0706  0.6351 -0.3920
 8794TIP3    H147797   5.896   2.383   2.033 -0.9479  0.4728  0.4834
 8794TIP3    H247798   5.886   2.486   1.922  1.1404 -0.1371 -0.2953
 8795TIP3   OH247799   4.088   0.909   5.124  0.5933 -0.1197 -1.1288
 8795TIP3    H147800   4.165   0.875   5.169  0.1425 -0.1894 -0.3855
 8795TIP3    H247801   4.054   0.976   5.183  0.7364  0.7068 -1.9853
 8796TIP3   OH247802   4.444   5.012  15.866 -0.5278 -0.0008 -0.1848
 8796TIP3    H147803   4.366   5.009  15.810  0.4222 -0.6234 -1.4782
 8796TIP3    H247804   4.419   4.963  15.944 -1.9387  1.0688  0.0532
 8797TIP3   OH247805   4.999   5.152   0.180  0.4831 -0.4633 -0.2838
 8797TIP3    H147806   4.936   5.162   0.109 -0.9402 -0.3116  0.9523
 8797TIP3    H247807   5.084   5.173   0.141 -0.4394  0.9211 -1.6089
 8798TIP3   OH247808   1.667   1.722   4.615 -0.2565 -0.3158 -0.0186
 8798TIP3    H147809   1.761   1.735   4.629 -0.2493 -1.5047  1.0999
 8798TIP3    H247810   1.646   1.782   4.543  0.9614  1.3504  0.9604
 8799TIP3   OH247811   1.200   6.087  16.721 -0.8668  0.0919 -0.5871
 8799TIP3    H147812   1.270   6.028  16.752 -0.5663  1.2316  0.9533
 8799TIP3    H247813   1.135   6.028  16.682 -0.6183 -1.2828  1.0221
 8800TIP3   OH247814   1.798   6.001  12.080 -0.0076 -0.0311 -0.0939
 8800TIP3    H147815   1.761   6.056  12.149  1.3868  1.0852 -0.2230
 8800TIP3    H247816   1.836   5.927  12.128 -0.6269 -0.1699  0.1910
 8801TIP3   OH247817   5.630   3.458  13.980  0.5008 -0.3354  0.1812
 8801TIP3    H147818   5.655   3.465  13.888  0.9669  1.3719  0.4080
 8801TIP3    H247819   5.663   3.373  14.008  1.4437 -0.3423 -0.9230
 8802TIP3   OH247820   4.838   5.911   5.838  0.3354 -0.1080 -0.3663
 8802TIP3    H147821   4.843   5.842   5.903 -0.3569  0.7999  0.6647
 8802TIP3    H247822   4.928   5.922   5.807  0.9841  0.6721  1.7251
 8803TIP3   OH247823   2.282   3.493   3.032 -0.2482  0.1653 -0.1168
 8803TIP3    H147824   2.290   3.414   2.978  0.6465 -0.0729  0.3422
 8803TIP3    H247825   2.315   3.466   3.118  1.1507  1.3505 -0.2606
 8804TIP3   OH247826   5.628   6.313  13.355 -0.0841 -0.3109  0.0801
 8804TIP3    H147827   5.662   6.294  13.443 -0.3189  0.2045  0.2781
 8804TIP3    H247828   5.614   6.226  13.317 -1.5625 -0.5731  1.1539
 8805TIP3   OH247829   1.899   4.573  11.144 -0.0885  0.5879 -0.3960
 8805TIP3    H147830   1.960   4.541  11.211 -0.0550  0.8059 -0.3211
 8805TIP3    H247831   1.949   4.572  11.063 -0.2807 -0.1470 -0.5053
 8806TIP3   OH247832   0.764   1.696  15.960  0.2615  0.4250 -0.2657
 8806TIP3    H147833   0.718   1.730  15.883 -0.1155 -2.0097 -1.1626
 8806TIP3    H247834   0.826   1.766  15.984 -0.7770  1.8899 -1.7568
 8807TIP3   OH247835   2.423   5.977   4.990  0.3096  0.4967 -0.0893
 8807TIP3    H147836   2.429   5.884   4.972 -0.2109  0.7072 -1.4294
 8807TIP3    H247837   2.507   5.999   5.032  0.7114 -0.4381 -0.3935
 8808TIP3   OH247838   2.844   0.408  13.165 -0.1962  0.3475 -0.1967
 8808TIP3    H147839   2.906   0.398  13.093  0.4358  2.0793  0.0915
 8808TIP3    H247840   2.854   0.498  13.194 -1.2588  0.0105  1.3238
 8809TIP3   OH247841   0.939   1.218  11.834 -0.0928 -0.6896 -0.2535
 8809TIP3    H147842   0.889   1.198  11.755  1.1829 -1.5890 -0.8602
 8809TIP3    H247843   0.885   1.186  11.905 -0.8592 -0.6833 -0.8225
 8810TIP3   OH247844   1.413   4.846  12.296 -0.1463 -0.5831 -0.2308
 8810TIP3    H147845   1.349   4.911  12.326 -0.1963 -0.7678  0.0667
 8810TIP3    H247846   1.359   4.773  12.265 -0.1130 -0.0911 -1.4731
 8811TIP3   OH247847   4.584   4.170   3.769 -0.2654 -0.5327 -0.2696
 8811TIP3    H147848   4.548   4.092   3.811 -1.5574 -0.2742 -0.8686
 8811TIP3    H247849   4.525   4.241   3.796  0.3210  0.0565 -0.5321
 8812TIP3   OH247850   6.427   1.025  16.448 -0.4755 -0.1638  0.2693
 8812TIP3    H147851   6.441   0.931  16.461  0.6440 -0.1085 -0.4066
 8812TIP3    H247852   6.377   1.030  16.366 -0.5352 -0.1787  0.3046
 8813TIP3   OH247853   2.971   3.576   2.558 -0.1080 -0.3550 -0.6109
 8813TIP3    H147854   2.923   3.542   2.634  0.2270 -2.2151 -1.2024
 8813TIP3    H247855   2.935   3.663   2.543  0.7411  0.5964  2.4972
 8814TIP3   OH247856   4.613   0.470  11.732 -0.0704 -0.0587 -0.0489
 8814TIP3    H147857   4.650   0.514  11.656 -2.4286 -1.6973 -2.2482
 8814TIP3    H247858   4.666   0.391  11.744 -0.4462 -0.4359 -0.8117
 8815TIP3   OH247859   4.747   4.612  14.677  0.3802  0.2987  0.6246
 8815TIP3    H147860   4.687   4.674  14.635  0.7787 -0.9978 -1.9429
 8815TIP3    H247861   4.693   4.537  14.699  0.1254  1.0596  2.7439
 8816TIP3   OH247862   2.418   4.615   5.475 -0.0222  0.1850  0.7753
 8816TIP3    H147863   2.332   4.649   5.500  0.2467  0.2456  1.6343
 8816TIP3    H247864   2.470   4.694   5.459 -0.4970  0.1470 -1.0773
 8817TIP3   OH247865   6.013   0.200  12.771  0.0261 -0.1173  0.1678
 8817TIP3    H147866   6.053   0.180  12.856  2.1017  1.0658 -0.5121
 8817TIP3    H247867   6.063   0.274  12.737 -2.9581  1.6239 -0.5827
 8818TIP3   OH247868   4.914   3.804   4.326  0.5903  0.5182  0.1956
 8818TIP3    H147869   4.941   3.718   4.293  1.0542  0.1376  1.5189
 8818TIP3    H247870   4.995   3.845   4.356  0.3443  1.3492 -0.2572
 8819TIP3   OH247871   2.199   0.161   5.788  0.1980 -0.0579 -0.4432
 8819TIP3    H147872   2.194   0.238   5.845 -0.5269  0.1741 -0.8209
 8819TIP3    H247873   2.261   0.103   5.833  0.2542  0.4679  0.1720
 8820TIP3   OH247874   5.778   0.012   2.115  0.2553 -0.6748  0.4914
 8820TIP3    H147875   5.822   0.062   2.047  2.3631 -0.3011  2.1065
 8820TIP3    H247876   5.716  -0.043   2.067  0.6510  0.6549 -1.6002
 8821TIP3   OH247877   0.324   5.998  10.802  0.0982 -0.3002  0.0507
 8821TIP3    H147878   0.348   5.906  10.791  1.1186 -0.1791  1.2043
 8821TIP3    H247879   0.377   6.045  10.738 -1.0390 -0.5990 -1.1174
 8822TIP3   OH247880   2.704   5.678   1.307 -0.3873 -0.4124 -0.1424
 8822TIP3    H147881   2.682   5.586   1.293 -0.3882 -0.2757 -1.0864
 8822TIP3    H247882   2.729   5.710   1.220  0.7508  0.1768  0.3932
 8823TIP3   OH247883   0.524   5.682   1.650  0.4979 -0.0628  0.0341
 8823TIP3    H147884   0.619   5.687   1.661  0.5434  1.1597 -0.8169
 8823TIP3    H247885   0.498   5.772   1.631 -0.8577 -0.3665  0.4254
 8824TIP3   OH247886   0.794   4.988  16.594 -0.3907 -0.0633  0.0838
 8824TIP3    H147887   0.865   4.992  16.658  0.4169 -1.4407 -0.7006
 8824TIP3    H247888   0.716   4.966  16.646 -0.2021  1.1469  0.8992
 8825TIP3   OH247889   3.516   1.126  14.969 -0.1876 -0.7363  0.7678
 8825TIP3    H147890   3.421   1.125  14.980 -0.3226 -0.7146 -0.3445
 8825TIP3    H247891   3.542   1.213  14.998 -0.6750 -0.2685 -0.1571
 8826TIP3   OH247892   2.250   0.378   1.179  0.9272  0.0076  0.1441
 8826TIP3    H147893   2.209   0.422   1.254 -0.6972  0.0573 -0.7545
 8826TIP3    H247894   2.188   0.391   1.107  1.1957 -2.3608 -0.5433
 8827TIP3   OH247895   3.112   5.236   4.402  0.3268  0.1338  0.3398
 8827TIP3    H147896   3.087   5.305   4.341  0.8214  0.7276  0.7954
 8827TIP3    H247897   3.042   5.172   4.397  0.9282 -0.3916 -1.7149
 8828TIP3   OH247898   0.122   2.719   5.056  0.1094 -0.2933 -0.3238
 8828TIP3    H147899   0.094   2.745   4.969  0.2579  0.7244 -0.0656
 8828TIP3    H247900   0.041   2.690   5.099 -0.0784 -0.0989 -0.5452
 8829TIP3   OH247901   2.415   5.576  14.316 -0.7860 -0.5208 -0.1487
 8829TIP3    H147902   2.426   5.647  14.252 -0.5699  0.2874  0.7711
 8829TIP3    H247903   2.489   5.587  14.376 -2.2778  0.1756  1.5966
 8830TIP3   OH247904   1.915   5.484  15.543 -0.1151 -0.1194  0.2096
 8830TIP3    H147905   2.007   5.483  15.571  0.0573  0.7745 -0.3299
 8830TIP3    H247906   1.915   5.533  15.461 -1.1674  0.4474  0.5383
 8831TIP3   OH247907   4.334   6.444  17.222  0.2398 -0.4179 -0.2441
 8831TIP3    H147908   4.312   6.537  17.218  1.1079 -0.0145  3.3939
 8831TIP3    H247909   4.253   6.400  17.196 -1.4942  1.2802  2.0142
 8832TIP3   OH247910   3.670   5.502  12.402 -0.1515 -0.1776 -1.3828
 8832TIP3    H147911   3.591   5.448  12.412  0.5289 -0.6561  2.1092
 8832TIP3    H247912   3.740   5.448  12.438  1.3792  1.1781 -2.2695
 8833TIP3   OH247913   0.769   1.736  14.422 -0.1738 -0.0916  0.2240
 8833TIP3    H147914   0.735   1.813  14.467 -0.3232 -0.6604  1.0993
 8833TIP3    H247915   0.798   1.769  14.337 -0.9196  0.7876  0.3015
 8834TIP3   OH247916   1.523   6.352   2.421 -0.1092 -0.0885 -0.0639
 8834TIP3    H147917   1.495   6.327   2.333 -1.2179  0.7255  0.0428
 8834TIP3    H247918   1.506   6.446   2.426  0.6402  0.0090  0.7638
 8835TIP3   OH247919   1.223   3.266  16.136  0.2782 -0.4165 -0.6852
 8835TIP3    H147920   1.226   3.356  16.103 -0.3518 -0.2824 -0.3828
 8835TIP3    H247921   1.149   3.227  16.090 -0.8232 -0.1286  0.8226
 8836TIP3   OH247922   5.539   5.179  14.761  0.0467  0.1112 -0.0817
 8836TIP3    H147923   5.582   5.247  14.813  0.0526 -0.0432  0.1139
 8836TIP3    H247924   5.468   5.147  14.818 -0.9837  1.0902 -0.7911
 8837TIP3   OH247925   5.556   5.632   1.310  0.1973  0.1448  0.5220
 8837TIP3    H147926   5.637   5.676   1.285  0.8143 -0.8672  0.7029
 8837TIP3    H247927   5.545   5.564   1.243  1.1700 -1.7422  2.2289
 8838TIP3   OH247928   4.907   3.886   3.686  0.0458 -0.4378 -0.0895
 8838TIP3    H147929   4.820   3.909   3.651 -1.1024 -1.4672  1.9813
 8838TIP3    H247930   4.888   3.825   3.757  2.3547  0.9039  1.7447
 8839TIP3   OH247931   0.193   4.200  12.079 -0.2698  0.1977  0.5496
 8839TIP3    H147932   0.206   4.242  11.994 -0.0369  0.3499  0.6607
 8839TIP3    H247933   0.129   4.255  12.124 -1.8037 -0.8977 -0.2482
 8840TIP3   OH247934   6.018   2.656   6.164 -0.5430  0.3058  0.1453
 8840TIP3    H147935   5.948   2.609   6.119 -0.0913 -2.4412  2.2073
 8840TIP3    H247936   5.986   2.746   6.170 -2.9030 -0.4272 -0.9197
 8841TIP3   OH247937   1.227   5.533  12.288 -0.2505  0.2034  0.7288
 8841TIP3    H147938   1.215   5.549  12.382  0.5413  0.6478  0.7561
 8841TIP3    H247939   1.291   5.598  12.260 -1.0795  0.6032 -0.3013
 8842TIP3   OH247940   0.363   1.759   2.847 -0.9815  0.4319 -0.3519
 8842TIP3    H147941   0.450   1.794   2.870 -0.9377 -0.0719  0.2719
 8842TIP3    H247942   0.378   1.709   2.767 -0.7273  0.4925 -0.3429
 8843TIP3   OH247943   1.567   2.304  10.968 -0.0124  0.3375 -0.3637
 8843TIP3    H147944   1.647   2.354  10.953 -0.3822  1.6846  1.8483
 8843TIP3    H247945   1.534   2.284  10.881  2.1784  0.6631 -1.3025
 8844TIP3   OH247946   4.324   5.303   0.233 -0.3656  0.0433  0.5558
 8844TIP3    H147947   4.354   5.394   0.233 -2.4285  0.7617 -0.3974
 8844TIP3    H247948   4.229   5.309   0.221 -0.2769 -2.2916 -1.7767
 8845TIP3   OH247949   1.809   1.676  13.023  0.1675 -0.2752  0.1234
 8845TIP3    H147950   1.889   1.706  13.068  0.5717  0.6298 -1.1895
 8845TIP3    H247951   1.774   1.608  13.081  1.5869 -0.2927  0.9989
 8846TIP3   OH247952   0.064   4.439  16.947  0.0326  0.8474  0.7796
 8846TIP3    H147953   0.129   4.504  16.976  1.4383  0.4328 -1.3259
 8846TIP3    H247954   0.116   4.365  16.915 -1.5412 -0.7166  1.7581
 8847TIP3   OH247955   6.399   3.323   4.922  0.3669  0.0556  0.5995
 8847TIP3    H147956   6.417   3.229   4.932 -0.4914  0.0337  2.0330
 8847TIP3    H247957   6.306   3.328   4.903  0.7438  0.5245 -1.1922
 8848TIP3   OH247958   3.500   4.427  12.218 -0.3343  0.1640 -0.0233
 8848TIP3    H147959   3.434   4.492  12.192 -0.2434  0.4191  0.3659
 8848TIP3    H247960   3.548   4.470  12.289  0.3981  0.0632 -0.4575
 8849TIP3   OH247961   3.702   6.025  12.785  0.3695 -0.4685  0.6375
 8849TIP3    H147962   3.736   6.011  12.697  0.2636 -0.5159  0.6032
 8849TIP3    H247963   3.763   6.086  12.825 -0.9725  1.5389 -0.3208
 8850TIP3   OH247964   0.425   3.616   5.937 -0.0248 -0.0822 -0.2475
 8850TIP3    H147965   0.336   3.619   5.971  1.0565  0.7402  2.6592
 8850TIP3    H247966   0.461   3.533   5.968  1.8616  1.8723  3.2018
 8851TIP3   OH247967   2.703   2.204   2.486  0.5637  0.2625  0.0628
 8851TIP3    H147968   2.753   2.169   2.559 -1.8081  0.5229  1.8724
 8851TIP3    H247969   2.646   2.132   2.459  0.0526  0.7878 -0.2764
 8852TIP3   OH247970   6.562   1.963  14.319  0.0421 -0.3466 -0.1371
 8852TIP3    H147971   6.647   1.942  14.280  1.3614  1.4111  1.6870
 8852TIP3    H247972   6.546   2.054  14.295 -0.7146 -0.2752  0.6196
 8853TIP3   OH247973   2.598   1.836   2.790  0.1047  0.2991  0.3657
 8853TIP3    H147974   2.546   1.779   2.733 -1.3525  0.7497  1.2222
 8853TIP3    H247975   2.539   1.860   2.861  1.3639  1.1619  1.1527
 8854TIP3   OH247976   2.638   2.591  12.108 -0.0742 -0.4319  0.0629
 8854TIP3    H147977   2.549   2.581  12.142  0.5966 -0.8484  1.7481
 8854TIP3    H247978   2.662   2.503  12.079  0.5043 -0.7231  1.4218
 8855TIP3   OH247979   4.227   1.167   2.977 -0.3220  0.5238  0.2994
 8855TIP3    H147980   4.173   1.188   3.053 -0.6435 -1.6429  0.6910
 8855TIP3    H247981   4.310   1.137   3.013  0.6534  2.3907 -0.2858
 8856TIP3   OH247982   4.524   0.781   2.903  0.4355  0.1865 -0.5256
 8856TIP3    H147983   4.430   0.795   2.911  0.5452  0.1233  0.8786
 8856TIP3    H247984   4.548   0.725   2.976  1.4278 -0.5321 -1.3733
 8857TIP3   OH247985   6.406   4.637  10.862  0.8895  0.8473  0.1378
 8857TIP3    H147986   6.369   4.608  10.778  0.2327  0.9553  0.3878
 8857TIP3    H247987   6.411   4.558  10.915 -2.6467  1.4479  1.4859
 8858TIP3   OH247988   5.290   5.097  15.750 -0.2424 -0.0312 -0.1521
 8858TIP3    H147989   5.257   5.028  15.692  0.3782  0.3250 -0.9405
 8858TIP3    H247990   5.215   5.118  15.806 -1.2602  0.5075 -1.6780
 8859TIP3   OH247991   5.528   5.331   1.543  0.2987  0.1758 -0.1328
 8859TIP3    H147992   5.540   5.415   1.500  1.8320 -0.4519 -0.9639
 8859TIP3    H247993   5.616   5.295   1.553 -0.2464 -0.8878  1.1334
 8860TIP3   OH247994   3.875   3.125   4.754 -0.0864 -0.1047  0.7247
 8860TIP3    H147995   3.949   3.158   4.805  0.6951  0.4966 -0.7633
 8860TIP3    H247996   3.902   3.134   4.663 -1.7236 -0.5267  0.1652
 8861TIP3   OH247997   5.548   5.669  14.929  0.0249 -0.0541  0.3053
 8861TIP3    H147998   5.523   5.613  15.003 -0.0819 -0.6038 -0.1471
 8861TIP3    H247999   5.638   5.696  14.950  0.0295 -0.2837  0.5912
 8862TIP3   OH248000   4.487   5.758  16.376 -0.2009  0.2493  0.0250
 8862TIP3    H148001   4.522   5.847  16.369  1.1027 -0.1852  0.8667
 8862TIP3    H248002   4.397   5.769  16.405 -0.1059  1.3011 -0.0770
 8863TIP3   OH248003   6.297   0.854   0.646 -0.1822  0.4059  0.6336
 8863TIP3    H148004   6.360   0.782   0.636  0.5785  1.4250 -2.3142
 8863TIP3    H248005   6.350   0.929   0.669 -0.1311  1.4323 -2.5430
 8864TIP3   OH248006   6.272   1.173  15.666 -0.5114 -0.4327  0.1660
 8864TIP3    H148007   6.316   1.120  15.733 -1.0360 -0.9262  0.1267
 8864TIP3    H248008   6.199   1.214  15.712 -1.0710 -1.0347 -0.1685
 8865TIP3   OH248009   5.280   2.884   2.148 -0.2903 -0.6315 -0.0622
 8865TIP3    H148010   5.274   2.819   2.078  0.5086 -2.0267  1.1412
 8865TIP3    H248011   5.363   2.865   2.191 -1.0840 -0.2218  1.6902
 8866TIP3   OH248012   6.073   5.788   5.257 -0.1486  0.7040  0.5027
 8866TIP3    H148013   6.082   5.854   5.188  1.3258  0.7372  0.7074
 8866TIP3    H248014   6.116   5.826   5.333  1.6379 -0.8905  0.3362
 8867TIP3   OH248015   2.865   6.688   4.392 -0.0582  0.3957  0.0989
 8867TIP3    H148016   2.834   6.615   4.446  2.2639 -2.6408 -2.4524
 8867TIP3    H248017   2.932   6.731   4.445 -0.6581 -0.0143  1.1877
 8868TIP3   OH248018   1.453   6.749   4.542  0.0091  0.4312  0.6852
 8868TIP3    H148019   1.453   6.750   4.638 -0.0377 -1.7955  0.7503
 8868TIP3    H248020   1.449   6.656   4.520 -1.0033  0.9547 -1.4861
 8869TIP3   OH248021   2.589   2.350  15.686  0.1889 -0.0200  0.2664
 8869TIP3    H148022   2.530   2.414  15.726  0.2639  0.9390 -1.1042
 8869TIP3    H248023   2.531   2.281  15.654  0.0599 -0.3939  1.2885
 8870TIP3   OH248024   3.351   4.886   0.794 -0.2060  0.3239  0.2980
 8870TIP3    H148025   3.443   4.891   0.820 -0.3586 -0.0179  0.9113
 8870TIP3    H248026   3.338   4.963   0.738  0.4048  0.4683  0.3470
 8871TIP3   OH248027   6.321   0.134   3.925  0.5430  0.1598  1.0015
 8871TIP3    H148028   6.405   0.181   3.934  0.3675  0.3010  2.0218
 8871TIP3    H248029   6.286   0.133   4.014  0.8746 -2.5291  1.1283
 8872TIP3   OH248030   4.620   2.655   3.472 -0.3661  0.2575  0.1211
 8872TIP3    H148031   4.597   2.695   3.389  4.5538 -3.8396 -3.5178
 8872TIP3    H248032   4.561   2.579   3.479  0.7296 -0.7080 -0.8663
 8873TIP3   OH248033   3.701   1.974  14.247  0.3404  0.6417 -0.4462
 8873TIP3    H148034   3.767   1.933  14.301  0.2440  1.4382  0.2924
 8873TIP3    H248035   3.724   2.067  14.247 -1.1967  1.0447  0.4542
 8874TIP3   OH248036   1.186   5.880   0.326  0.0805 -0.4984 -1.0550
 8874TIP3    H148037   1.262   5.893   0.269 -0.1352  1.8761 -0.8219
 8874TIP3    H248038   1.149   5.967   0.337 -2.6912 -1.6166 -1.1574
 8875TIP3   OH248039   2.313   2.776  16.850 -0.4136  0.2817  0.2062
 8875TIP3    H148040   2.348   2.863  16.869  2.5491 -0.8988  0.4451
 8875TIP3    H248041   2.311   2.771  16.754 -0.1015  0.4324  0.1915
 8876TIP3   OH248042   6.166   5.057   0.767 -0.5534 -0.2511  0.0248
 8876TIP3    H148043   6.123   5.067   0.852 -1.4013 -2.0673 -0.1737
 8876TIP3    H248044   6.095   5.067   0.703 -0.1324 -0.1353 -0.4263
 8877TIP3   OH248045   0.845   3.996   0.409 -0.0443 -0.3123 -0.9327
 8877TIP3    H148046   0.808   4.041   0.485  2.9920  0.4604  0.1780
 8877TIP3    H248047   0.796   3.914   0.403 -1.8516  0.6256  0.4395
 8878TIP3   OH248048   4.929   2.047   2.263 -0.2190  0.0964 -0.1512
 8878TIP3    H148049   4.858   2.111   2.272 -1.2671 -1.1524  0.7177
 8878TIP3    H248050   4.998   2.079   2.321  0.1479  1.5854 -1.3748
 8879TIP3   OH248051   0.463   3.500  14.582  0.7531  1.0515 -0.3816
 8879TIP3    H148052   0.513   3.547  14.649  1.3459  0.9508 -0.7466
 8879TIP3    H248053   0.420   3.568  14.531  1.2642  1.1860 -0.6396
 8880TIP3   OH248054   2.414   1.782   2.146  0.2667  0.1319 -0.0509
 8880TIP3    H148055   2.353   1.709   2.159  0.7275 -0.0535  1.1493
 8880TIP3    H248056   2.365   1.845   2.093 -0.8254 -0.2108  0.5268
 8881TIP3   OH248057   1.521   0.851   5.166  0.1640  0.2098  0.5736
 8881TIP3    H148058   1.468   0.893   5.098 -1.7000 -0.7458  1.3983
 8881TIP3    H248059   1.603   0.828   5.122 -1.3528 -1.1984 -1.6036
 8882TIP3   OH248060   5.629   5.822   3.218  0.3405 -0.2585 -0.4361
 8882TIP3    H148061   5.607   5.733   3.188 -1.0851  0.1501 -0.6387
 8882TIP3    H248062   5.602   5.878   3.145 -1.6334  0.6059  0.9298
 8883TIP3   OH248063   4.507   2.644  12.220  0.3093  0.4268  0.2740
 8883TIP3    H148064   4.462   2.683  12.294 -0.5942  0.7746 -0.4496
 8883TIP3    H248065   4.443   2.645  12.149  0.6568 -1.2623 -0.1022
 8884TIP3   OH248066   4.604   1.229  11.258 -0.0694 -0.0126  0.6292
 8884TIP3    H148067   4.681   1.173  11.250  0.5580  0.7093  1.4671
 8884TIP3    H248068   4.634   1.303  11.311 -1.1479  0.6319  0.3506
 8885TIP3   OH248069   1.861   3.828  15.619  0.1207 -0.3186  0.3022
 8885TIP3    H148070   1.835   3.768  15.690  0.0879 -0.3209  0.2882
 8885TIP3    H248071   1.825   3.913  15.645 -0.8402 -0.5555 -0.2574
 8886TIP3   OH248072   3.020   4.268  13.154 -0.5790  0.2089 -0.5809
 8886TIP3    H148073   3.009   4.340  13.215 -0.0489  0.7191 -1.0823
 8886TIP3    H248074   2.934   4.257  13.113 -0.5392  0.8504 -0.8310
 8887TIP3   OH248075   0.518   2.290  12.473  0.0620 -0.0022 -0.1337
 8887TIP3    H148076   0.527   2.383  12.497 -1.0954  0.5651 -1.7898
 8887TIP3    H248077   0.441   2.260  12.521  2.9260 -1.3552  3.8732
 8888TIP3   OH248078   2.513   2.858  12.437  0.1107  0.2741  0.2535
 8888TIP3    H148079   2.528   2.944  12.398  1.0571 -0.1895 -0.4098
 8888TIP3    H248080   2.504   2.875  12.530 -1.4553  1.3114 -0.0569
 8889TIP3   OH248081   2.723   6.331  12.794 -0.1905 -0.0149  0.3098
 8889TIP3    H148082   2.710   6.425  12.797  1.4892  0.2236  0.9354
 8889TIP3    H248083   2.812   6.320  12.760 -0.9121 -1.4256 -1.1724
 8890TIP3   OH248084   0.764   2.435  12.340  0.1264  0.1031  0.0764
 8890TIP3    H148085   0.732   2.407  12.254  2.1344 -1.0310 -0.3449
 8890TIP3    H248086   0.758   2.357  12.395 -0.6024  0.6656  0.8105
 8891TIP3   OH248087   1.377   3.416  14.962 -0.1662 -0.1405  0.1858
 8891TIP3    H148088   1.372   3.511  14.960  1.1018 -0.0910 -1.4786
 8891TIP3    H248089   1.448   3.397  15.023  0.8219  0.0360 -0.9052
 8892TIP3   OH248090   2.353   4.238   5.866 -0.4190  0.1685 -0.0503
 8892TIP3    H148091   2.429   4.295   5.877  1.2871 -1.9593 -0.5130
 8892TIP3    H248092   2.353   4.183   5.945 -2.7048  1.5121  0.9302
 8893TIP3   OH248093   4.266   6.538  12.398 -1.2224  0.0261 -0.3102
 8893TIP3    H148094   4.337   6.601  12.380  0.3631 -1.2668  1.2011
 8893TIP3    H248095   4.190   6.593  12.418  0.1774  1.4811  1.1333
 8894TIP3   OH248096   3.148   6.749  12.198 -0.0491 -0.4819  0.0695
 8894TIP3    H148097   3.219   6.690  12.174  0.3419 -0.3399  0.8555
 8894TIP3    H248098   3.068   6.697  12.187  0.1162 -0.4046 -1.5468
 8895TIP3   OH248099   2.513   4.255   1.718 -0.4582 -0.3674  0.1367
 8895TIP3    H148100   2.597   4.229   1.757 -0.4621 -0.0328  0.3645
 8895TIP3    H248101   2.533   4.270   1.626 -0.3457 -0.6651  0.1121
 8896TIP3   OH248102   0.269   0.336  12.089  0.2923  0.2553  0.1143
 8896TIP3    H148103   0.200   0.302  12.147  2.3377 -2.1936  1.2024
 8896TIP3    H248104   0.285   0.266  12.027  1.9858  0.7017  0.0250
 8897TIP3   OH248105   5.369   6.723  11.364 -0.0330 -0.3956 -0.0247
 8897TIP3    H148106   5.415   6.681  11.291  1.6192 -0.1289  0.8238
 8897TIP3    H248107   5.384   6.665  11.438 -0.0967  0.2702  0.5140
 8898TIP3   OH248108   1.646   2.000   6.281 -0.2889 -0.2786  0.0090
 8898TIP3    H148109   1.645   2.083   6.234 -0.9472 -0.2458  0.0705
 8898TIP3    H248110   1.622   2.022   6.371 -1.1553 -0.6144 -0.1286
 8899TIP3   OH248111   1.415   3.622   2.235 -0.5872 -0.8158 -0.3281
 8899TIP3    H148112   1.477   3.635   2.163 -1.3995 -1.7092 -1.1873
 8899TIP3    H248113   1.471   3.611   2.312  0.2921 -0.0664 -0.8398
 8900TIP3   OH248114   3.585   6.071  13.116  0.1334 -0.3025 -0.2394
 8900TIP3    H148115   3.570   6.002  13.051 -0.3302 -0.4175 -0.0135
 8900TIP3    H248116   3.576   6.026  13.200  0.0831 -0.0195 -0.0947
 8901TIP3   OH248117   6.724   6.285  13.950  0.2186  0.4743 -0.3748
 8901TIP3    H148118   6.738   6.368  13.995 -0.4898 -1.6470  3.9558
 8901TIP3    H248119   6.636   6.293  13.912 -0.5112  1.0794  1.4342
 8902TIP3   OH248120   3.036   0.170  11.294 -1.1634  0.1290 -0.0864
 8902TIP3    H148121   3.066   0.134  11.211 -0.7786 -0.1608  0.1707
 8902TIP3    H248122   2.942   0.154  11.296 -1.3412  1.0587 -0.9155
 8903TIP3   OH248123   1.642   1.636  16.295  0.1810 -0.1137 -0.1963
 8903TIP3    H148124   1.636   1.713  16.239  0.8459 -0.0505 -0.1750
 8903TIP3    H248125   1.551   1.619  16.321 -0.2539 -0.6302 -1.9375
 8904TIP3   OH248126   1.813   2.764  13.747  0.1729  0.5365 -0.0093
 8904TIP3    H148127   1.738   2.818  13.774  1.6048  0.8777  3.5382
 8904TIP3    H248128   1.796   2.679  13.786  1.8669  0.7646  1.2747
 8905TIP3   OH248129   6.781   3.912  12.746  0.0127 -0.4607 -0.0270
 8905TIP3    H148130   6.698   3.882  12.782 -0.8500  2.0329  0.1464
 8905TIP3    H248131   6.825   3.954  12.821  0.6290 -0.2030 -0.5333
 8906TIP3   OH248132   1.867   2.281  16.227 -0.0628  0.0371  0.6123
 8906TIP3    H148133   1.963   2.275  16.230 -0.0072  1.2396  1.7309
 8906TIP3    H248134   1.849   2.375  16.236 -1.3878 -0.3012  1.6725
 8907TIP3   OH248135   5.268   4.397  14.599  0.1145  0.5572  0.6411
 8907TIP3    H148136   5.318   4.440  14.669 -0.7896 -0.5209  1.9887
 8907TIP3    H248137   5.177   4.405  14.627 -0.2079 -0.4735 -0.0933
 8908TIP3   OH248138   4.498   6.649  15.355 -0.8146  0.3538  0.1399
 8908TIP3    H148139   4.569   6.707  15.330 -2.2952  2.3063  0.3846
 8908TIP3    H248140   4.489   6.662  15.450 -2.1735  0.9098 -0.0551
 8909TIP3   OH248141   3.305   2.338   4.065  0.1933  0.0081  0.1560
 8909TIP3    H148142   3.226   2.360   4.115  1.5305  3.8592  0.7644
 8909TIP3    H248143   3.366   2.306   4.131 -0.8249 -3.1357 -0.3387
 8910TIP3   OH248144   6.121   2.829  14.351  0.0986 -0.0264 -0.1861
 8910TIP3    H148145   6.094   2.896  14.413 -0.0882  1.1479 -1.5216
 8910TIP3    H248146   6.040   2.804  14.305  0.3102 -0.5449 -0.2828
 8911TIP3   OH248147   0.374   5.523   5.425 -0.2110  0.4256 -0.2027
 8911TIP3    H148148   0.289   5.531   5.468 -0.6659 -0.6100 -0.8782
 8911TIP3    H248149   0.358   5.556   5.336  0.5355  1.8615  0.1775
 8912TIP3   OH248150   3.702   0.255   0.092 -0.3038 -0.0872  0.2543
 8912TIP3    H148151   3.784   0.211   0.113  0.3317  0.3512 -1.2723
 8912TIP3    H248152   3.661   0.201   0.024 -1.2113 -0.2043  0.8708
 8913TIP3   OH248153   5.752   4.868  16.164  0.1362 -0.2270  0.5538
 8913TIP3    H148154   5.669   4.915  16.153  0.8144  0.6166 -1.0489
 8913TIP3    H248155   5.727   4.783  16.200 -1.8424 -1.5857 -3.7356
 8914TIP3   OH248156   2.711   5.336   4.147  0.0058 -0.2756  0.5956
 8914TIP3    H148157   2.741   5.369   4.232  1.5687 -1.1551  0.4122
 8914TIP3    H248158   2.743   5.246   4.144 -0.8328 -0.5490 -0.5509
 8915TIP3   OH248159   1.191   4.771  13.001  0.2697 -0.1359 -0.6848
 8915TIP3    H148160   1.256   4.728  13.057 -0.1235 -0.4589 -0.4724
 8915TIP3    H248161   1.182   4.859  13.038  0.1414 -0.2891 -0.3454
 8916TIP3   OH248162   1.577   1.862  16.081 -0.3924 -0.1664  0.1436
 8916TIP3    H148163   1.646   1.922  16.110 -0.1419 -0.2136 -0.3525
 8916TIP3    H248164   1.495   1.910  16.097 -0.2601 -0.2025  0.9584
 8917TIP3   OH248165   3.172   3.101  15.133 -0.2130 -0.2684 -0.1037
 8917TIP3    H148166   3.227   3.062  15.200 -0.3014  1.1029  0.7784
 8917TIP3    H248167   3.231   3.155  15.081  0.0447 -2.1048 -1.7682
 8918TIP3   OH248168   0.346   5.998  12.921  0.1582 -0.1993  0.6637
 8918TIP3    H148169   0.438   6.012  12.897  0.0651 -0.6537  0.0405
 8918TIP3    H248170   0.342   5.906  12.947 -0.0434 -0.0777  1.0663
 8919TIP3   OH248171   2.409   6.680  16.681 -0.2111 -0.4243  0.4615
 8919TIP3    H148172   2.415   6.743  16.752 -1.8571 -0.9531  1.0854
 8919TIP3    H248173   2.317   6.655  16.678 -0.1573 -0.4356 -1.8451
 8920TIP3   OH248174   0.566   4.801  15.042  0.0565 -0.6131  0.5181
 8920TIP3    H148175   0.647   4.844  15.016  0.4143 -0.9740  1.0456
 8920TIP3    H248176   0.545   4.744  14.968 -0.1025  0.0179  0.0720
 8921TIP3   OH248177   4.957   4.961  14.789  0.0392  0.5170  0.2000
 8921TIP3    H148178   5.016   5.033  14.809  0.6930  0.3749 -1.1688
 8921TIP3    H248179   5.014   4.891  14.757 -0.7613 -0.0011 -0.1161
 8922TIP3   OH248180   2.917   3.903   4.299  0.3111 -0.4621  0.3548
 8922TIP3    H148181   3.003   3.877   4.333  0.5732 -1.1818 -0.8529
 8922TIP3    H248182   2.872   3.820   4.280 -0.1115 -0.0673 -0.3775
 8923TIP3   OH248183   0.751   0.092   4.048 -0.0636 -0.2356 -0.9556
 8923TIP3    H148184   0.691   0.163   4.070 -0.5729 -1.2045  0.9287
 8923TIP3    H248185   0.808   0.084   4.124 -0.5932 -2.4191 -0.7597
 8924TIP3   OH248186   5.211   5.555   1.723 -0.1548 -0.0242  0.3154
 8924TIP3    H148187   5.238   5.595   1.806 -0.3146 -2.5196  1.6473
 8924TIP3    H248188   5.173   5.626   1.672 -0.3007  1.5098  2.5132
 8925TIP3   OH248189   3.553   3.474   1.143  0.1321  0.1370 -0.1708
 8925TIP3    H148190   3.472   3.424   1.149  0.2383  0.2220  2.7754
 8925TIP3    H248191   3.618   3.411   1.111 -0.1271 -1.1496  1.7724
 8926TIP3   OH248192   3.808   4.948  16.558 -0.4875 -0.1693  0.0384
 8926TIP3    H148193   3.885   4.894  16.541 -0.2580 -0.3915  1.7214
 8926TIP3    H248194   3.753   4.894  16.616 -2.1804 -0.2462 -1.6056
 8927TIP3   OH248195   2.072   4.292  12.566  0.6061 -0.7024 -0.6262
 8927TIP3    H148196   2.011   4.232  12.523  0.5152 -0.5096 -0.7677
 8927TIP3    H248197   2.035   4.306  12.653  0.1866 -0.2095 -0.8728
 8928TIP3   OH248198   4.436   1.091  14.946 -0.1769  0.0332  0.4793
 8928TIP3    H148199   4.447   1.181  14.979 -1.1251 -0.9109  3.4881
 8928TIP3    H248200   4.519   1.073  14.901  1.0302  1.5541  1.9897
 8929TIP3   OH248201   3.031   1.154  12.414  0.1048  0.2327  0.4910
 8929TIP3    H148202   2.965   1.123  12.475  0.4120 -2.0682 -0.2693
 8929TIP3    H248203   3.114   1.122  12.449  0.3015 -0.9809 -1.0071
 8930TIP3   OH248204   3.996   5.614   4.623 -0.5884 -0.1924 -0.1103
 8930TIP3    H148205   4.014   5.543   4.561  0.5666 -0.6040  0.6792
 8930TIP3    H248206   4.042   5.588   4.703  0.9082  2.0545 -0.2068
 8931TIP3   OH248207   0.902   4.938  15.617 -0.1176 -0.3389  0.2109
 8931TIP3    H148208   0.809   4.921  15.602 -1.2427  2.5744  3.1050
 8931TIP3    H248209   0.929   4.869  15.678 -0.8264 -0.2471  0.6384
 8932TIP3   OH248210   4.695   0.134  13.639  0.4196  0.3318 -0.1827
 8932TIP3    H148211   4.725   0.094  13.558  0.1334  0.9401 -0.6014
 8932TIP3    H248212   4.600   0.124  13.637  0.4387  0.0640  0.2305
 8933TIP3   OH248213   2.039   4.251   1.815 -0.1676  0.1782  0.2851
 8933TIP3    H148214   2.107   4.316   1.837 -0.4056  0.1981  0.9526
 8933TIP3    H248215   2.033   4.195   1.892  0.1819 -0.7768 -0.3680
 8934TIP3   OH248216   6.337   3.332  17.047 -0.2197  0.1957 -0.0300
 8934TIP3    H148217   6.400   3.404  17.042 -0.6975  0.6106 -0.1161
 8934TIP3    H248218   6.391   3.253  17.044  0.4883  0.5346  2.5130
 8935TIP3   OH248219   0.174   0.705  12.724  0.5889  0.1277  0.5073
 8935TIP3    H148220   0.179   0.793  12.688  1.0590 -0.2613 -0.3772
 8935TIP3    H248221   0.250   0.659  12.689 -0.0615 -0.8556  0.3548
 8936TIP3   OH248222   5.230   2.323  13.453 -0.0223  0.1029 -0.1155
 8936TIP3    H148223   5.212   2.361  13.540  0.8358 -1.0942  0.5904
 8936TIP3    H248224   5.299   2.259  13.469 -0.5104 -0.7806 -1.5448
 8937TIP3   OH248225   2.203   4.392  17.066 -0.5481 -0.2609 -0.1213
 8937TIP3    H148226   2.199   4.335  17.143  0.8087 -0.2225 -0.0088
 8937TIP3    H248227   2.292   4.381  17.033 -0.6731  0.8252 -0.8424
 8938TIP3   OH248228   1.856   2.471   2.310 -0.0254 -0.4285  0.2830
 8938TIP3    H148229   1.780   2.472   2.252 -1.4132 -1.3643  2.0277
 8938TIP3    H248230   1.835   2.404   2.376  2.9646 -1.7597 -0.0501
 8939TIP3   OH248231   0.312   5.747   2.418 -0.3413  0.3855 -0.2725
 8939TIP3    H148232   0.226   5.789   2.418 -0.0078  1.1187 -1.6990
 8939TIP3    H248233   0.300   5.666   2.369 -0.2387  0.4983 -0.4902
 8940TIP3   OH248234   3.167   4.199  14.852  0.4745 -0.1639  0.1572
 8940TIP3    H148235   3.213   4.281  14.836 -1.2135  0.8008  0.0735
 8940TIP3    H248236   3.224   4.131  14.816  0.3734  1.2577 -2.7813
 8941TIP3   OH248237   1.802   6.120   2.321  0.0263 -0.8378 -0.0143
 8941TIP3    H148238   1.795   6.175   2.400  0.2043 -1.5744  0.5167
 8941TIP3    H248239   1.893   6.089   2.321  0.2189 -0.2994 -0.8792
 8942TIP3   OH248240   1.789   6.313   0.821  0.0525 -0.1999 -0.1330
 8942TIP3    H148241   1.774   6.408   0.814  1.0426 -0.1263 -1.4185
 8942TIP3    H248242   1.706   6.274   0.796  0.2942  0.2948 -1.7374
 8943TIP3   OH248243   6.719   2.889  11.485  0.2565 -0.1093  0.0787
 8943TIP3    H148244   6.795   2.946  11.488  2.4232 -2.8407 -0.8805
 8943TIP3    H248245   6.678   2.899  11.571  1.2796  1.9000  0.3604
 8944TIP3   OH248246   1.565   0.463   4.406  0.7181 -0.0754 -0.2989
 8944TIP3    H148247   1.581   0.553   4.380  0.4503  0.0576 -0.0008
 8944TIP3    H248248   1.491   0.435   4.352 -0.9054  0.7219  1.4581
 8945TIP3   OH248249   6.445   5.140  17.212  0.1807  0.0564  0.8510
 8945TIP3    H148250   6.521   5.196  17.195  0.3750 -0.6125 -0.6505
 8945TIP3    H248251   6.479   5.051  17.202 -1.1774 -0.2274 -1.7063
 8946TIP3   OH248252   4.834   3.670  13.363  0.2403 -0.5915  0.4880
 8946TIP3    H148253   4.841   3.661  13.268  0.0043 -1.8090  0.5808
 8946TIP3    H248254   4.925   3.674  13.393  0.3486  3.9515 -0.1372
 8947TIP3   OH248255   2.318   3.892   3.520  0.4680 -0.2409 -0.2296
 8947TIP3    H148256   2.236   3.844   3.508 -1.3984  2.5949  0.7969
 8947TIP3    H248257   2.354   3.858   3.603 -1.2957  0.7261  0.9619
 8948TIP3   OH248258   4.063   3.295   3.609 -0.6359 -0.3549 -0.1320
 8948TIP3    H148259   4.111   3.313   3.690  0.0084 -0.5966 -0.4591
 8948TIP3    H248260   4.075   3.201   3.595 -1.6162 -0.5093  0.0504
 8949TIP3   OH248261   0.315   1.596  16.382 -0.3630  0.4826  0.3318
 8949TIP3    H148262   0.399   1.613  16.340 -1.0676  3.6098  0.0417
 8949TIP3    H248263   0.318   1.648  16.462 -1.1955 -1.1080  1.4163
 8950TIP3   OH248264   3.636   1.123   2.831 -0.1704 -0.1226  0.0439
 8950TIP3    H148265   3.540   1.118   2.831 -0.2797  1.1459 -2.9135
 8950TIP3    H248266   3.663   1.083   2.749  1.7663  0.5890  0.2984
 8951TIP3   OH248267   0.011   0.509   6.121 -0.0463 -0.3707 -0.5280
 8951TIP3    H148268   0.072   0.458   6.066  1.7390  2.5892 -1.4359
 8951TIP3    H248269  -0.074   0.497   6.080  1.0173  0.5441 -3.1296
 8952TIP3   OH248270   2.387   0.866  11.857  0.4675 -0.1098 -0.2822
 8952TIP3    H148271   2.371   0.777  11.888 -0.5605  0.0818 -0.2230
 8952TIP3    H248272   2.384   0.859  11.762 -0.3147 -0.0331 -0.2713
 8953TIP3   OH248273   2.946   0.933   3.345  0.4190 -0.3306  0.2709
 8953TIP3    H148274   2.934   0.975   3.430  1.5811  1.3112 -0.3356
 8953TIP3    H248275   2.865   0.950   3.297  0.4598  0.2940  0.4202
 8954TIP3   OH248276   5.223   1.876   1.578 -0.1631  0.4526  0.8335
 8954TIP3    H148277   5.211   1.945   1.644 -0.2574 -1.4067  2.8238
 8954TIP3    H248278   5.287   1.817   1.617  1.9306  0.7709 -2.0006
 8955TIP3   OH248279   0.909   5.703   3.595  0.7564  0.3578  0.1347
 8955TIP3    H148280   0.839   5.664   3.543  0.3153  0.2293  0.8146
 8955TIP3    H248281   0.932   5.784   3.549 -1.5753  1.7092  1.2385
 8956TIP3   OH248282   2.187   0.444   1.745  0.1398  0.1526 -0.1510
 8956TIP3    H148283   2.209   0.500   1.670 -0.5022 -0.7315 -1.0144
 8956TIP3    H248284   2.101   0.475   1.774  0.1359  0.1275 -0.1351
 8957TIP3   OH248285   5.972   3.680  10.973 -0.2536 -0.5429  0.3859
 8957TIP3    H148286   5.965   3.767  11.012 -0.5327 -0.0055 -0.8402
 8957TIP3    H248287   6.065   3.669  10.956 -0.3318 -0.0841 -0.3496
 8958TIP3   OH248288   2.820   6.272   4.516 -0.3883  0.1572  0.4621
 8958TIP3    H148289   2.889   6.238   4.574 -0.0098 -0.4037 -0.3039
 8958TIP3    H248290   2.781   6.344   4.565 -0.4475 -0.6628  1.6496
 8959TIP3   OH248291   5.548   4.605  11.950  0.7493  0.1364 -0.0214
 8959TIP3    H148292   5.454   4.615  11.964  0.3990 -2.2396 -0.5392
 8959TIP3    H248293   5.555   4.536  11.884  2.8147  1.3882 -1.1579
 8960TIP3   OH248294   5.867   2.251  12.181  0.5268 -0.1615 -0.0479
 8960TIP3    H148295   5.925   2.323  12.209  1.1394 -0.3807 -0.7243
 8960TIP3    H248296   5.919   2.203  12.117  0.0094 -1.0479  0.1897
 8961TIP3   OH248297   3.320   0.284   4.379  0.4675  0.2875  0.2189
 8961TIP3    H148298   3.255   0.270   4.310  1.8825  0.6186 -1.2117
 8961TIP3    H248299   3.332   0.198   4.418  1.2050 -0.3554 -1.3713
 8962TIP3   OH248300   3.141   5.314   1.506  0.0994  0.1234  0.1448
 8962TIP3    H148301   3.145   5.409   1.493  1.7194 -0.1948 -1.8901
 8962TIP3    H248302   3.119   5.303   1.598 -0.1109  2.4738  0.3982
 8963TIP3   OH248303   0.402   3.389   4.919 -0.0613 -0.3850 -0.4529
 8963TIP3    H148304   0.308   3.397   4.901 -0.3475  0.3782  1.2469
 8963TIP3    H248305   0.434   3.326   4.854 -2.0448 -1.8050 -0.0949
 8964TIP3   OH248306   5.208   5.860  12.091 -0.0821  0.3471 -0.1794
 8964TIP3    H148307   5.212   5.786  12.030  2.6829 -1.7368  2.3650
 8964TIP3    H248308   5.150   5.829  12.162 -0.4911  1.3958 -0.0546
 8965TIP3   OH248309   6.405   2.708  12.884 -0.5703  0.2714 -0.4962
 8965TIP3    H148310   6.456   2.782  12.851 -2.0524  1.1281 -0.8646
 8965TIP3    H248311   6.425   2.706  12.977  1.5494 -0.5228 -0.9262
 8966TIP3   OH248312   3.652   3.270   3.330  0.4185 -0.9093 -0.4074
 8966TIP3    H148313   3.571   3.234   3.293  0.7897 -1.2887 -0.8619
 8966TIP3    H248314   3.709   3.283   3.254  0.7814 -0.6296 -0.0884
 8967TIP3   OH248315   6.182   0.815  16.200 -0.3474 -0.1200 -0.5237
 8967TIP3    H148316   6.240   0.891  16.208 -1.1318  0.3512  0.7813
 8967TIP3    H248317   6.216   0.753  16.265 -1.1882  0.0852  0.1157
 8968TIP3   OH248318   3.092   2.435  15.727 -0.4439  0.5058 -0.9355
 8968TIP3    H148319   3.086   2.518  15.774  1.0132  0.0924  0.0254
 8968TIP3    H248320   3.070   2.457  15.637 -3.2546  1.3142 -0.0900
 8969TIP3   OH248321   5.621   5.034   4.163 -0.0069  0.3604 -0.4714
 8969TIP3    H148322   5.565   4.963   4.132 -0.9249  1.3365 -1.0887
 8969TIP3    H248323   5.586   5.112   4.120  2.1024  0.9246 -1.2197
 8970TIP3   OH248324   5.191   5.043   2.391 -0.3397 -1.0209  0.5888
 8970TIP3    H148325   5.241   5.092   2.326 -0.4645 -2.3011 -0.5040
 8970TIP3    H248326   5.108   5.024   2.347 -0.9434 -0.7599  1.6056
 8971TIP3   OH248327   3.079   2.429  16.289 -0.1152  0.3445 -0.5942
 8971TIP3    H148328   3.008   2.415  16.352 -0.6975 -3.1968 -1.8853
 8971TIP3    H248329   3.155   2.385  16.328 -0.3523 -1.4389 -2.0409
 8972TIP3   OH248330   6.007   4.720  10.409  0.0072  0.5659  0.3152
 8972TIP3    H148331   6.002   4.688  10.499 -0.2156  1.5993  0.6811
 8972TIP3    H248332   5.915   4.732  10.382  0.0814  0.6599  0.0974
 8973TIP3   OH248333   0.479   4.483   3.501  0.7794  0.6622 -1.0034
 8973TIP3    H148334   0.446   4.498   3.590  1.8956  1.2753 -0.6842
 8973TIP3    H248335   0.401   4.488   3.446 -0.4894 -3.3193  0.2950
 8974TIP3   OH248336   6.739   3.852   4.630 -0.6679  0.6764 -0.5244
 8974TIP3    H148337   6.665   3.884   4.578 -1.8539 -0.0655  0.6874
 8974TIP3    H248338   6.722   3.759   4.643 -0.8145  1.0151  1.8922
 8975TIP3   OH248339   5.459   1.088  10.843  0.0673  0.2851 -0.1457
 8975TIP3    H148340   5.526   1.048  10.787  0.9941  2.7196 -0.8262
 8975TIP3    H248341   5.466   1.041  10.926  1.7487 -0.3376 -0.6274
 8976TIP3   OH248342   5.090   0.852   0.097 -0.1768 -0.5982  0.0701
 8976TIP3    H148343   5.066   0.861   0.189  1.7019  0.7112  0.4735
 8976TIP3    H248344   5.054   0.930   0.054  2.6144  1.0328  0.5569
 8977TIP3   OH248345   1.514   3.158  14.795  0.2102  0.1160 -0.1238
 8977TIP3    H148346   1.488   3.113  14.715  0.6376 -1.3722  0.5502
 8977TIP3    H248347   1.529   3.087  14.858 -0.4652  1.2836  1.3718
 8978TIP3   OH248348   0.079   6.471  15.802  0.1895  0.3027  0.6640
 8978TIP3    H148349   0.004   6.507  15.849 -0.7215  0.4267 -0.8555
 8978TIP3    H248350   0.150   6.471  15.866 -1.0582  0.3398  2.0723
 8979TIP3   OH248351   4.207   5.702  17.174  0.3130  0.1709  0.0611
 8979TIP3    H148352   4.263   5.780  17.164  0.9573 -0.5075 -1.8365
 8979TIP3    H248353   4.245   5.656  17.249  0.5176  1.1828  0.6007
 8980TIP3   OH248354   4.712   4.830  11.285  0.5685 -0.2417  0.4924
 8980TIP3    H148355   4.749   4.742  11.272 -1.7004 -1.0388 -0.7977
 8980TIP3    H248356   4.659   4.822  11.365 -2.1681 -0.9469 -1.3269
 8981TIP3   OH248357   0.009   4.454   3.802  0.4589 -0.3130  0.5957
 8981TIP3    H148358   0.017   4.362   3.828 -1.1449 -1.4018 -2.5486
 8981TIP3    H248359  -0.078   4.480   3.832 -1.0424 -1.3125 -2.7356
 8982TIP3   OH248360   1.146   2.220   1.950  0.3640 -0.0449 -0.4112
 8982TIP3    H148361   1.217   2.279   1.925  0.8164 -1.2949 -2.1750
 8982TIP3    H248362   1.094   2.270   2.012  1.1832  1.9321 -1.2811
 8983TIP3   OH248363   5.280   4.430   0.498 -0.0913 -0.0486 -0.4486
 8983TIP3    H148364   5.277   4.484   0.577  3.0904 -1.4823  0.7480
 8983TIP3    H248365   5.196   4.385   0.497 -1.0139  1.5518  0.9506
 8984TIP3   OH248366   5.366   3.266  11.983 -0.1887  0.2527  0.1818
 8984TIP3    H148367   5.281   3.260  11.940  0.2455  0.7124 -0.7616
 8984TIP3    H248368   5.353   3.224  12.068 -1.2097 -0.1597 -0.1678
 8985TIP3   OH248369   1.285   2.700  12.385 -0.0340 -0.5940  0.0165
 8985TIP3    H148370   1.204   2.652  12.370  1.8487 -3.2009 -2.1297
 8985TIP3    H248371   1.326   2.657  12.460  0.0214 -0.1145  0.2694
 8986TIP3   OH248372   3.737   0.061  14.300 -0.1284  0.0361 -0.0954
 8986TIP3    H148373   3.800   0.076  14.371  2.7023 -1.0649 -2.2673
 8986TIP3    H248374   3.714   0.149  14.270 -0.3844  0.4719  1.3325
 8987TIP3   OH248375   3.204   4.090   4.932 -0.1000  0.1646 -0.0225
 8987TIP3    H148376   3.138   4.097   5.000 -0.6595  0.4226 -0.5893
 8987TIP3    H248377   3.254   4.171   4.939 -0.0230  0.0976  0.2134
 8988TIP3   OH248378   5.818   6.294   6.136 -0.1312 -0.4181 -0.1701
 8988TIP3    H148379   5.798   6.282   6.043 -1.7681  0.6540  0.0203
 8988TIP3    H248380   5.781   6.217   6.178 -0.2409 -0.4367 -0.2978
 8989TIP3   OH248381   0.543   1.151   1.585  0.6269  0.1626  0.9625
 8989TIP3    H148382   0.528   1.239   1.552  1.3141 -0.4988 -1.2144
 8989TIP3    H248383   0.561   1.163   1.678 -2.0072  2.0227  1.2913
 8990TIP3   OH248384   0.878   5.993  12.504  0.4751  0.0445  0.0162
 8990TIP3    H148385   0.963   5.954  12.526 -0.7657 -2.6334  0.2347
 8990TIP3    H248386   0.856   5.955  12.419 -1.1967 -0.4260  0.6562
 8991TIP3   OH248387   3.499   4.244   2.529  0.1392  0.0958  0.3160
 8991TIP3    H148388   3.447   4.246   2.449  1.1830  4.2683 -0.3568
 8991TIP3    H248389   3.524   4.152   2.538 -1.0947 -0.7207 -3.4023
 8992TIP3   OH248390   2.974   2.578   1.195 -0.2385 -0.3345 -0.6319
 8992TIP3    H148391   2.971   2.574   1.291  0.8464  0.9565 -0.5153
 8992TIP3    H248392   2.977   2.486   1.167 -1.0572 -0.7296  0.5504
 8993TIP3   OH248393   5.293   3.544   0.662  0.4283  0.2288  0.0707
 8993TIP3    H148394   5.296   3.628   0.615 -0.4456 -0.4728 -1.2728
 8993TIP3    H248395   5.200   3.521   0.663  0.6076 -0.4713  0.8850
 8994TIP3   OH248396   2.369   2.751  13.608 -0.0699 -0.3462  0.0095
 8994TIP3    H148397   2.309   2.817  13.641 -3.3773 -2.3671 -1.7096
 8994TIP3    H248398   2.440   2.801  13.567 -1.2653  2.1000  0.8752
 8995TIP3   OH248399   6.246   4.688   4.142  0.2767 -0.4439 -0.2475
 8995TIP3    H148400   6.250   4.680   4.237 -0.0797 -1.4171 -0.3081
 8995TIP3    H248401   6.187   4.761   4.126  1.8083  0.9623  0.3050
 8996TIP3   OH248402   6.451   6.354   4.048  0.2313 -0.7999 -0.4459
 8996TIP3    H148403   6.543   6.342   4.028  0.7301  0.4866  1.0380
 8996TIP3    H248404   6.431   6.443   4.020 -0.7182 -1.2818 -1.3334
 8997TIP3   OH248405   6.685   1.609  15.600 -0.7099 -0.0944 -0.4329
 8997TIP3    H148406   6.726   1.648  15.523 -0.4350 -2.0416 -1.3301
 8997TIP3    H248407   6.615   1.554  15.564 -0.9407 -0.5805  0.7387
 8998TIP3   OH248408   4.339   5.838   0.394 -0.7140 -0.6183  0.3224
 8998TIP3    H148409   4.412   5.824   0.455  2.8723  1.7362 -3.1717
 8998TIP3    H248410   4.305   5.924   0.417  0.0008 -0.1424 -0.4337
 8999TIP3   OH248411   0.257   1.942  16.939 -0.0036  0.0867 -0.3014
 8999TIP3    H148412   0.316   1.895  16.997  1.6986  1.3423 -0.9386
 8999TIP3    H248413   0.313   1.969  16.865 -2.1460 -1.7166 -2.6663
 9000TIP3   OH248414   5.297   4.306   5.516  0.1360  0.5307  0.3189
 9000TIP3    H148415   5.323   4.326   5.606  1.4938 -0.3223  0.1198
 9000TIP3    H248416   5.378   4.281   5.472 -0.3291  1.9578 -1.4295
 9001TIP3   OH248417   0.098   0.515  14.302  0.2872 -0.1297  0.2052
 9001TIP3    H148418   0.084   0.434  14.350  0.2493  0.6296  1.5000
 9001TIP3    H248419   0.076   0.493  14.211 -0.5656 -1.3283  0.6863
 9002TIP3   OH248420   6.208   5.521  14.406  0.2021  0.5549  0.0758
 9002TIP3    H148421   6.114   5.525  14.385 -0.0478 -0.7899  0.9306
 9002TIP3    H248422   6.215   5.561  14.493  0.6281  1.9288 -0.5668
 9003TIP3   OH248423   4.342   0.500   2.792  0.2491  0.0511 -0.1916
 9003TIP3    H148424   4.419   0.444   2.793 -0.6724 -1.2617 -1.0732
 9003TIP3    H248425   4.345   0.547   2.876  1.4047 -0.7890  0.2481
 9004TIP3   OH248426   4.049   2.965  12.022  0.3944 -0.4611 -0.1950
 9004TIP3    H148427   4.129   2.955  12.073 -0.0131  0.9566  0.7425
 9004TIP3    H248428   4.073   3.026  11.952 -0.0908  0.6169  0.5776
 9005TIP3   OH248429   0.072   2.835  13.299 -0.0217  0.3071  0.1613
 9005TIP3    H148430  -0.004   2.803  13.346  0.2294 -0.0386  0.3306
 9005TIP3    H248431   0.147   2.810  13.353  0.2161  0.6110 -0.0196
 9006TIP3   OH248432   3.275   0.683  16.893  0.2994 -0.5658 -0.3091
 9006TIP3    H148433   3.331   0.722  16.960  1.2901 -0.5192 -1.1486
 9006TIP3    H248434   3.211   0.751  16.872 -0.2860 -0.7375  0.8902
 9007TIP3   OH248435   2.868   2.564   2.044  0.1839 -0.0775 -0.8003
 9007TIP3    H148436   2.957   2.597   2.033 -0.6337  1.7832 -2.1820
 9007TIP3    H248437   2.874   2.471   2.020  1.9065 -0.1905 -0.0044
 9008TIP3   OH248438   3.223   4.760   4.198  0.0689  0.5163 -0.3111
 9008TIP3    H148439   3.256   4.680   4.158  1.2696  0.7939  0.1169
 9008TIP3    H248440   3.205   4.818   4.123 -0.0461  0.1307 -0.5806
 9009TIP3   OH248441   3.798   1.002   3.725 -0.3147 -0.1053 -0.1004
 9009TIP3    H148442   3.880   0.985   3.679 -0.5920  1.4155 -1.1828
 9009TIP3    H248443   3.787   0.926   3.783  1.9108 -0.2509  0.1643
 9010TIP3   OH248444   4.969   6.465  14.833  0.2801  0.5923  0.7749
 9010TIP3    H148445   4.971   6.371  14.849 -0.7130  0.9869  3.3101
 9010TIP3    H248446   5.037   6.500  14.890 -1.2089  1.7046  1.8777
 9011TIP3   OH248447   0.193   6.654  12.193  0.3321 -0.2174 -0.7780
 9011TIP3    H148448   0.161   6.572  12.155  0.3218 -0.8247  0.4868
 9011TIP3    H248449   0.115   6.694  12.232  1.0149 -1.7141  2.3382
 9012TIP3   OH248450   0.476   3.811  11.803  0.3440 -0.1019 -0.2771
 9012TIP3    H148451   0.433   3.882  11.851 -2.4882 -0.6495 -1.9018
 9012TIP3    H248452   0.512   3.755  11.871  1.3047  2.0569  1.0669
 9013TIP3   OH248453   1.506   0.491   6.752  0.1845  0.2154 -0.0897
 9013TIP3    H148454   1.579   0.494   6.690  0.2280 -1.9106 -0.1806
 9013TIP3    H248455   1.542   0.527   6.833  1.1214 -0.1169 -0.3452
 9014TIP3   OH248456   3.156   5.237  12.472 -0.6749  0.0233  0.2595
 9014TIP3    H148457   3.152   5.324  12.433  0.8197  1.1387  2.4871
 9014TIP3    H248458   3.076   5.231  12.525 -0.1826  0.5608  1.0838
 9015TIP3   OH248459   0.275   1.559  10.976 -0.3433 -0.2030 -0.1485
 9015TIP3    H148460   0.240   1.626  11.035 -0.2524  0.2362 -0.5882
 9015TIP3    H248461   0.295   1.606  10.895 -1.6595 -1.0421 -0.9867
 9016TIP3   OH248462   6.433   5.726  13.914 -0.3056 -0.0303  0.0511
 9016TIP3    H148463   6.422   5.796  13.978 -0.8808  0.1049 -0.1830
 9016TIP3    H248464   6.527   5.712  13.909 -0.1735  0.7997  0.0349
 9017TIP3   OH248465   6.679   6.434   3.358 -0.2688 -0.0714 -0.2239
 9017TIP3    H148466   6.769   6.468   3.362 -0.9805  1.9712 -0.9757
 9017TIP3    H248467   6.647   6.439   3.448 -0.0036  0.2244 -0.1452
 9018TIP3   OH248468   3.066   0.340  13.020  0.1391 -0.2041 -0.0278
 9018TIP3    H148469   3.128   0.267  13.022 -0.3240 -0.6051 -0.3038
 9018TIP3    H248470   3.116   0.414  13.055  1.7741  0.2411 -3.1128
 9019TIP3   OH248471   3.261   3.914  14.928  0.3981 -0.9499  0.4309
 9019TIP3    H148472   3.308   3.832  14.913  0.4810 -0.5941 -1.3669
 9019TIP3    H248473   3.329   3.977  14.950  0.4717 -1.0392  0.4597
 9020TIP3   OH248474   0.718   5.524  14.730 -0.2838  0.1687 -0.3265
 9020TIP3    H148475   0.627   5.510  14.755  1.0325 -0.5918  4.6423
 9020TIP3    H248476   0.733   5.618  14.745  0.5824 -0.3388  2.3224
 9021TIP3   OH248477   3.229   3.293   0.543 -0.3332  0.6160 -0.0284
 9021TIP3    H148478   3.148   3.314   0.495 -0.1774  1.1548 -0.0624
 9021TIP3    H248479   3.199   3.248   0.622 -0.6198  0.1175 -0.4182
 9022TIP3   OH248480   3.366   4.328   3.322 -0.2447  0.0280  0.1448
 9022TIP3    H148481   3.415   4.315   3.402  1.4185 -0.3125 -0.9044
 9022TIP3    H248482   3.406   4.268   3.259 -1.4805  0.3245 -0.9594
 9023TIP3   OH248483   1.973   6.366   6.657  0.6568  0.1614  0.3819
 9023TIP3    H148484   1.928   6.434   6.707 -0.5512 -0.0765 -0.3352
 9023TIP3    H248485   1.904   6.302   6.637  1.6460 -0.9667  0.5273
 9024TIP3   OH248486   4.524   4.423  16.938  0.3253  0.2433  0.2802
 9024TIP3    H148487   4.550   4.504  16.983 -0.0027  0.9671 -0.8175
 9024TIP3    H248488   4.495   4.365  17.009  4.4635 -0.4655  1.5048
 9025TIP3   OH248489   5.072   0.724  10.521 -0.1672 -0.2188 -0.3749
 9025TIP3    H148490   5.097   0.636  10.549  0.1461  0.1897  0.6351
 9025TIP3    H248491   4.980   0.716  10.496 -0.1411 -0.8338 -0.2778
 9026TIP3   OH248492   1.712   4.101   4.392  0.1770  0.0861 -0.0736
 9026TIP3    H148493   1.775   4.126   4.459  0.6510 -1.1068 -0.0639
 9026TIP3    H248494   1.735   4.011   4.370 -2.7860 -1.0657  1.3543
 9027TIP3   OH248495   1.974   0.979   3.934  0.1113 -0.4574  0.0446
 9027TIP3    H148496   1.981   0.943   3.846 -0.3544  1.6707 -0.8958
 9027TIP3    H248497   2.064   1.000   3.959  0.0820  0.4700 -0.6022
 9028TIP3   OH248498   6.543   4.875   0.075 -0.4044  0.2617 -0.0789
 9028TIP3    H148499   6.620   4.833   0.037 -0.8654 -2.4585  1.8450
 9028TIP3    H248500   6.472   4.814   0.057 -1.6591  1.5938  0.2887
 9029TIP3   OH248501   4.732   2.227  17.144 -0.2728  0.2029 -0.6865
 9029TIP3    H148502   4.780   2.197  17.221  0.5584  1.7376 -0.5992
 9029TIP3    H248503   4.797   2.271  17.090 -0.5994 -1.8806 -2.8540
 9030TIP3   OH248504   5.620   0.890   0.396 -0.0745  0.3276 -0.0682
 9030TIP3    H148505   5.592   0.914   0.484 -0.6324 -1.0146  0.1424
 9030TIP3    H248506   5.546   0.840   0.361  0.9204 -0.8416 -0.5556
 9031TIP3   OH248507   3.968   1.216   1.610  0.0808 -0.6726  0.3284
 9031TIP3    H148508   4.053   1.261   1.605 -0.0278 -0.3712  1.1319
 9031TIP3    H248509   3.957   1.196   1.703  0.3083 -2.7143 -0.0661
 9032TIP3   OH248510   4.907   1.871   1.748 -0.1400  0.1093 -0.0441
 9032TIP3    H148511   4.886   1.920   1.669 -1.7449 -0.9621 -0.2950
 9032TIP3    H248512   4.841   1.899   1.812 -0.3919 -0.9094  0.1490
 9033TIP3   OH248513   3.415   4.083  12.993  0.7733  0.3550  0.6528
 9033TIP3    H148514   3.470   4.099  13.070 -0.2165  1.3615  1.1814
 9033TIP3    H248515   3.344   4.029  13.026 -0.8689  2.6327  1.0125
 9034TIP3   OH248516   4.057   1.927   0.396  0.0205  0.0057  0.1748
 9034TIP3    H148517   3.963   1.917   0.408 -0.2984  0.3993 -1.8637
 9034TIP3    H248518   4.089   1.954   0.482 -1.8031  0.4242  0.7397
 9035TIP3   OH248519   6.727   3.976   0.193  0.1596  0.0669  0.6064
 9035TIP3    H148520   6.767   4.010   0.112  0.5714  1.9309  1.5595
 9035TIP3    H248521   6.691   4.054   0.235 -1.5837 -1.1477  1.3743
 9036TIP3   OH248522   2.950   5.147   5.031 -0.1335  0.2317  0.0683
 9036TIP3    H148523   3.044   5.132   5.035 -0.2506 -0.6216 -0.1753
 9036TIP3    H248524   2.934   5.175   4.941  0.0001  1.2535  0.3521
 9037TIP3   OH248525   5.007   1.123  14.143  0.0291 -0.3034  0.0439
 9037TIP3    H148526   5.052   1.062  14.084  0.4642  0.0430  0.0116
 9037TIP3    H248527   4.916   1.093  14.143  0.4156 -1.5336  0.7561
 9038TIP3   OH248528   1.099   2.206   0.421 -0.1531 -0.1324 -0.3096
 9038TIP3    H148529   1.108   2.137   0.355 -3.2329 -0.7336 -0.2038
 9038TIP3    H248530   1.117   2.287   0.373  3.1713 -0.9277 -0.5155
 9039TIP3   OH248531   0.826   2.226   5.836  0.2222  0.1627  0.8435
 9039TIP3    H148532   0.921   2.229   5.845  0.2592 -0.7537  0.7684
 9039TIP3    H248533   0.796   2.173   5.910 -0.2137  0.2464  0.7319
 9040TIP3   OH248534   3.198   2.393  12.628  0.3281 -0.0088 -0.2738
 9040TIP3    H148535   3.161   2.320  12.678 -0.6923 -0.2542 -1.3585
 9040TIP3    H248536   3.290   2.368  12.615 -0.4726 -2.1348 -2.3659
 9041TIP3   OH248537   4.580   6.358   1.114 -0.3022 -0.3332 -0.2563
 9041TIP3    H148538   4.605   6.283   1.168 -0.6939 -0.1007  0.2492
 9041TIP3    H248539   4.613   6.434   1.161 -0.7283 -0.1214 -0.3006
 9042TIP3   OH248540   4.005   4.020  15.761  0.5248 -0.4061 -0.4127
 9042TIP3    H148541   3.995   4.057  15.849 -0.5860 -1.6348 -0.0182
 9042TIP3    H248542   3.970   4.087  15.703  0.4445  0.0386  0.1416
 9043TIP3   OH248543   5.069   2.337   2.705  0.4669  0.0225 -0.1264
 9043TIP3    H148544   5.019   2.307   2.781  0.5268  0.0092 -0.0920
 9043TIP3    H248545   5.097   2.426   2.728  0.0249  0.2245 -0.3526
 9044TIP3   OH248546   3.255   2.968   3.819  0.3138  0.4088  0.2536
 9044TIP3    H148547   3.224   2.884   3.787 -0.6750 -0.3431  3.0081
 9044TIP3    H248548   3.192   2.993   3.887  1.0412  2.9894  0.0568
 9045TIP3   OH248549   3.091   2.013   1.927 -0.0785  0.6679 -0.4725
 9045TIP3    H148550   3.158   2.080   1.939  0.3006  0.1451  0.3994
 9045TIP3    H248551   3.042   2.012   2.010 -0.8747  0.7283 -0.9354
 9046TIP3   OH248552   1.976   1.748   1.614 -0.4537 -0.3360 -0.0844
 9046TIP3    H148553   1.923   1.765   1.536 -1.1637 -1.6342  0.1015
 9046TIP3    H248554   1.947   1.814   1.677  1.1043  1.6188 -1.3485
 9047TIP3   OH248555   1.210   3.789   6.135 -0.3306  0.3511 -0.0905
 9047TIP3    H148556   1.303   3.811   6.135 -0.4078  0.8046 -2.0726
 9047TIP3    H248557   1.165   3.873   6.143 -0.5696  0.1981  0.1900
 9048TIP3   OH248558   5.927   0.896   4.431 -0.4771 -0.4394 -0.1375
 9048TIP3    H148559   5.863   0.824   4.432 -0.2320 -0.6647 -0.3604
 9048TIP3    H248560   5.938   0.916   4.338 -1.3912  0.6480 -0.0079
 9049TIP3   OH248561   1.151   4.904  13.893  0.0479  0.1232 -0.0988
 9049TIP3    H148562   1.092   4.839  13.853 -0.2120 -0.2368  0.8686
 9049TIP3    H248563   1.179   4.864  13.975 -2.1434  2.2948  1.7719
 9050TIP3   OH248564   4.219   4.674   4.294  0.4374  0.4657 -0.1954
 9050TIP3    H148565   4.229   4.599   4.235  1.1067  1.3633 -1.2217
 9050TIP3    H248566   4.140   4.654   4.344  0.7910 -1.0905 -0.2242
 9051TIP3   OH248567   6.783   2.234   2.442  0.0490  0.0628 -0.1911
 9051TIP3    H148568   6.709   2.249   2.384 -0.2427  0.3100  0.2449
 9051TIP3    H248569   6.784   2.139   2.456  0.0403  0.0181 -0.4894
 9052TIP3   OH248570   5.890   0.546   3.241  0.9181 -0.1983  0.0964
 9052TIP3    H148571   5.886   0.452   3.255  1.8246 -0.3350 -0.5086
 9052TIP3    H248572   5.970   0.560   3.190 -0.5853  0.5933 -2.1741
 9053TIP3   OH248573   4.827   2.093  13.189  0.1397 -0.6165  0.1714
 9053TIP3    H148574   4.840   2.014  13.240 -0.0144 -1.3800 -0.9588
 9053TIP3    H248575   4.907   2.101  13.137 -0.3337 -0.6894 -0.5834
 9054TIP3   OH248576   6.679   3.540   1.894 -0.1416 -0.0088 -0.6620
 9054TIP3    H148577   6.617   3.533   1.821 -0.7705  1.8264 -0.3204
 9054TIP3    H248578   6.623   3.543   1.972  0.5564 -3.2801  0.0599
 9055TIP3   OH248579   2.929   0.200  13.322 -0.4665  0.3382 -0.4319
 9055TIP3    H148580   2.886   0.274  13.279 -0.3375  0.4618 -0.3468
 9055TIP3    H248581   3.020   0.205  13.294 -0.2214  0.8379  0.4062
 9056TIP3   OH248582   2.639   1.893  16.263 -0.7357 -0.1310 -0.1252
 9056TIP3    H148583   2.677   1.963  16.316  0.1751 -0.8560  0.1811
 9056TIP3    H248584   2.655   1.920  16.173  1.3639 -0.8745 -0.0056
 9057TIP3   OH248585   5.865   1.509   5.573 -0.0128 -0.5954 -0.7307
 9057TIP3    H148586   5.948   1.475   5.605  0.6040  0.1221 -1.5402
 9057TIP3    H248587   5.822   1.434   5.533  0.6026 -0.7968 -1.0230
 9058TIP3   OH248588   0.245   2.329   1.163 -0.0717 -0.2625  0.2456
 9058TIP3    H148589   0.162   2.342   1.209  0.0155 -0.7542  0.5418
 9058TIP3    H248590   0.221   2.287   1.081 -0.2418  0.7350 -0.2235
 9059TIP3   OH248591   2.716   6.378   3.852  0.2753 -0.9182 -0.1204
 9059TIP3    H148592   2.622   6.397   3.848  0.5232  0.5592  0.7917
 9059TIP3    H248593   2.743   6.367   3.761 -0.2218  1.4911 -0.5728
 9060TIP3   OH248594   0.102   2.288   3.121  0.3389 -0.5290  0.2289
 9060TIP3    H148595   0.102   2.306   3.215  0.1550 -0.4373  0.2122
 9060TIP3    H248596   0.118   2.194   3.114 -0.1009 -0.6176  0.3692
 9061TIP3   OH248597   5.091   3.981   5.033 -0.4197 -0.0999  0.1018
 9061TIP3    H148598   5.103   3.925   5.110 -0.0282 -0.2205 -0.0482
 9061TIP3    H248599   5.072   3.919   4.962 -1.4133  0.0500  0.2257
 9062TIP3   OH248600   0.539   2.750   1.920  0.1257  0.3160  0.4917
 9062TIP3    H148601   0.515   2.772   2.010 -0.9906  1.7651 -0.1446
 9062TIP3    H248602   0.625   2.789   1.907  1.2698 -1.7269  1.5864
 9063TIP3   OH248603   6.091   4.104   4.163  0.2156  0.2387 -0.0562
 9063TIP3    H148604   6.086   4.076   4.254 -0.4530  0.0237 -0.1561
 9063TIP3    H248605   6.090   4.200   4.167  0.3414  0.2322  0.1686
 9064TIP3   OH248606   2.450   4.406   2.680  0.6254 -0.1151 -0.6020
 9064TIP3    H148607   2.516   4.431   2.745  1.2444  0.3175 -1.3855
 9064TIP3    H248608   2.446   4.481   2.620 -1.5795  0.4530  0.2117
 9065TIP3   OH248609   3.896   5.698   5.571  0.0903  0.5590  0.3227
 9065TIP3    H148610   3.988   5.714   5.548 -0.4442  2.4959 -0.6041
 9065TIP3    H248611   3.894   5.607   5.600  2.2656  0.4266  0.1742
 9066TIP3   OH248612   4.505   3.942   0.913  0.1823 -0.7648  0.1436
 9066TIP3    H148613   4.470   3.913   0.829  0.0194 -1.7175  0.5243
 9066TIP3    H248614   4.460   3.887   0.977 -0.9278  1.0779  0.9842
 9067TIP3   OH248615   2.713   5.640   6.280 -0.2928  0.3233  0.3516
 9067TIP3    H148616   2.713   5.587   6.360 -1.7953  0.5163  0.4867
 9067TIP3    H248617   2.800   5.682   6.280  1.8215 -3.8217 -0.9289
 9068TIP3   OH248618   3.399   0.914   5.434 -0.2294 -0.4368 -0.3816
 9068TIP3    H148619   3.409   0.847   5.366 -1.8030 -1.6321  0.5191
 9068TIP3    H248620   3.393   0.864   5.515  1.0656  0.9465  0.5849
 9069TIP3   OH248621   3.839   4.716  15.693 -0.1756 -0.1862  0.5575
 9069TIP3    H148622   3.873   4.717  15.604 -2.2331  0.3259 -0.2461
 9069TIP3    H248623   3.874   4.796  15.733 -0.8999  0.6289 -0.4266
 9070TIP3   OH248624   2.900   6.183   1.831  0.6296 -0.2415 -0.1829
 9070TIP3    H148625   2.938   6.249   1.773  1.9798 -0.6051  0.2732
 9070TIP3    H248626   2.910   6.220   1.919 -1.0914  0.1520 -0.1296
 9071TIP3   OH248627   2.134   5.517  10.753  0.3022  0.5588  0.5647
 9071TIP3    H148628   2.044   5.486  10.757  0.4142 -0.0537 -1.2767
 9071TIP3    H248629   2.187   5.437  10.754  0.7306  0.8172 -0.5398
 9072TIP3   OH248630   5.527   5.699   4.796 -0.0512 -0.3687  0.1021
 9072TIP3    H148631   5.505   5.779   4.844  2.0752 -0.4836  1.3374
 9072TIP3    H248632   5.452   5.641   4.811 -0.2783  0.3115  1.7102
 9073TIP3   OH248633   1.388   4.940  10.840 -0.2949  0.2209 -1.0835
 9073TIP3    H148634   1.402   4.899  10.755 -4.5803 -1.8217 -0.9814
 9073TIP3    H248635   1.422   4.876  10.903 -1.0551 -0.2775 -1.1632
 9074TIP3   OH248636   3.607   6.614  15.819  0.5715  0.6390  0.2523
 9074TIP3    H148637   3.515   6.639  15.825 -0.2517 -1.3740 -3.2069
 9074TIP3    H248638   3.655   6.696  15.835 -1.8081  1.9686  0.8226
 9075TIP3   OH248639   6.314   4.918   2.804 -0.3669 -0.7715 -0.4012
 9075TIP3    H148640   6.321   4.879   2.891 -0.0426 -0.2380 -0.1915
 9075TIP3    H248641   6.289   5.009   2.819  0.3101 -0.5043 -0.8341
 9076TIP3   OH248642   5.436   4.697   1.152  0.2127  0.1171 -0.3848
 9076TIP3    H148643   5.383   4.751   1.211  0.4650  0.1879 -0.2247
 9076TIP3    H248644   5.526   4.720   1.173  0.3125 -0.1521 -0.5219
 9077TIP3   OH248645   0.143   5.491  13.186  0.4871  0.2833 -0.1049
 9077TIP3    H148646   0.229   5.514  13.222  0.3704  1.9947 -0.8563
 9077TIP3    H248647   0.163   5.446  13.104  0.7020 -1.5378  0.9256
 9078TIP3   OH248648   3.955   1.082   2.533  0.0982 -0.1352 -0.3384
 9078TIP3    H148649   3.982   1.168   2.565 -1.3457 -0.4193  1.7068
 9078TIP3    H248650   4.034   1.028   2.540  0.9302  0.9042 -1.3560
 9079TIP3   OH248651   2.863   0.498  11.985 -0.9027 -0.6132 -0.5688
 9079TIP3    H148652   2.953   0.511  11.954 -0.6849 -1.2204 -0.2102
 9079TIP3    H248653   2.867   0.522  12.078 -0.8665 -1.6206 -0.2993
 9080TIP3   OH248654   5.219   5.045  11.436  0.0364  0.0301  0.6561
 9080TIP3    H148655   5.272   4.965  11.435  0.5871  0.3898  0.8291
 9080TIP3    H248656   5.179   5.050  11.349 -1.0687 -1.1394  1.0740
 9081TIP3   OH248657   4.073   2.856  11.659  0.4551  0.1297  0.3623
 9081TIP3    H148658   4.102   2.944  11.685  0.7984 -0.1761  1.0289
 9081TIP3    H248659   3.981   2.853  11.683  0.4311  0.3219  0.2982
 9082TIP3   OH248660   6.251   6.398  12.099 -0.3783 -0.2907 -0.1641
 9082TIP3    H148661   6.177   6.397  12.037 -0.2094  0.0134 -0.3729
 9082TIP3    H248662   6.244   6.315  12.146 -0.4327 -0.5827 -0.6859
 9083TIP3   OH248663   1.652   1.472  12.537  0.5081 -0.0687 -0.3277
 9083TIP3    H148664   1.686   1.390  12.503  0.4969 -0.7992  1.3457
 9083TIP3    H248665   1.664   1.535  12.466  0.2776 -1.5628 -1.7267
 9084TIP3   OH248666   2.252   0.593   1.516  0.0940 -0.4336 -0.2779
 9084TIP3    H148667   2.336   0.624   1.481  0.2573  0.3476  0.7810
 9084TIP3    H248668   2.193   0.667   1.506  0.4455  0.2281  2.1346
 9085TIP3   OH248669   0.726   3.011  14.929 -0.3935 -0.2915 -0.2231
 9085TIP3    H148670   0.770   3.037  14.848 -3.6652  1.0203 -1.6873
 9085TIP3    H248671   0.677   2.933  14.904  0.4509 -1.2791  1.1720
 9086TIP3   OH248672   3.438   0.557   0.335 -0.4417  0.6566  0.6291
 9086TIP3    H148673   3.425   0.578   0.427 -0.3683  1.2492  0.5064
 9086TIP3    H248674   3.495   0.627   0.302  0.9297 -0.4795  0.5377
 9087TIP3   OH248675   2.390   5.782   3.704  0.3310 -0.3794  0.0628
 9087TIP3    H148676   2.416   5.860   3.753  1.5726 -0.3080 -0.6678
 9087TIP3    H248677   2.359   5.816   3.620  0.6313 -0.6504 -0.1600
 9088TIP3   OH248678   4.406   5.702  16.881 -0.0199  0.3429  0.1137
 9088TIP3    H148679   4.415   5.785  16.930 -1.1253 -0.1228  1.1163
 9088TIP3    H248680   4.318   5.706  16.843  0.1129 -0.1597 -0.2444
 9089TIP3   OH248681   6.624   3.145   2.108 -0.0651 -0.0367 -0.0536
 9089TIP3    H148682   6.600   3.188   2.026  0.3910 -0.0568 -0.2008
 9089TIP3    H248683   6.555   3.169   2.169 -0.3669  0.0404 -0.4251
 9090TIP3   OH248684   5.025   3.127   1.137  0.3183 -0.3036 -0.0962
 9090TIP3    H148685   5.121   3.129   1.140  0.3172  0.6701 -0.4159
 9090TIP3    H248686   4.999   3.105   1.226  0.8051  1.3806  0.4859
 9091TIP3   OH248687   6.436   6.780   4.195  0.6381  0.4571  0.7454
 9091TIP3    H148688   6.356   6.832   4.190  0.1844 -0.3617 -0.8438
 9091TIP3    H248689   6.417   6.702   4.144  1.6262 -0.8787  2.3726
 9092TIP3   OH248690   2.749   4.942  14.818 -0.0374  0.3204  0.0001
 9092TIP3    H148691   2.672   4.985  14.781 -0.0435  0.9654  0.7367
 9092TIP3    H248692   2.823   4.994  14.787  0.4225 -2.4094 -3.6899
 9093TIP3   OH248693   1.613   5.433   3.756 -0.0065  0.0384  0.2041
 9093TIP3    H148694   1.590   5.515   3.799  3.0568  0.5387  1.0268
 9093TIP3    H248695   1.552   5.369   3.793 -2.0484  1.8004 -0.0110
 9094TIP3   OH248696   3.381   5.368   5.043 -0.0450 -0.1202 -0.1317
 9094TIP3    H148697   3.326   5.438   5.078  0.8211  1.1564 -1.2744
 9094TIP3    H248698   3.461   5.372   5.096 -0.5208 -1.1213  0.6730
 9095TIP3   OH248699   3.748   1.930   1.176  0.1235  0.2752 -0.3602
 9095TIP3    H148700   3.688   1.993   1.215  1.9585  1.5335  0.5392
 9095TIP3    H248701   3.765   1.963   1.088  1.3614  1.2959  0.2315
 9096TIP3   OH248702   4.307   0.322   3.778 -0.6942  0.3037  0.3213
 9096TIP3    H148703   4.319   0.388   3.710 -2.5700 -0.7126 -1.0194
 9096TIP3    H248704   4.392   0.278   3.784  0.0862  1.7743  0.0951
 9097TIP3   OH248705   1.778   6.621   0.179  0.5385  0.2690  0.3006
 9097TIP3    H148706   1.841   6.572   0.126  0.7936  1.7252 -0.7678
 9097TIP3    H248707   1.723   6.667   0.115 -0.6960  0.1405  1.2576
 9098TIP3   OH248708   1.610   4.149   3.151 -0.0198  0.2323 -0.0837
 9098TIP3    H148709   1.685   4.099   3.119 -0.8241 -0.2745 -1.2550
 9098TIP3    H248710   1.589   4.109   3.235  1.0373  0.3978  0.2628
 9099TIP3   OH248711   0.326   1.133  15.396 -0.6085  0.3051 -0.6800
 9099TIP3    H148712   0.351   1.159  15.485 -0.2678 -0.5661 -0.5153
 9099TIP3    H248713   0.406   1.094  15.360 -1.1877 -0.7760 -0.8090
 9100TIP3   OH248714   4.620   1.734   5.611 -0.2266 -0.1980 -0.0243
 9100TIP3    H148715   4.530   1.764   5.624  0.1489  1.5881 -1.3753
 9100TIP3    H248716   4.618   1.684   5.530  0.3406  1.4281 -1.0615
 9101TIP3   OH248717   5.111   1.328   2.258  0.4410 -0.2764 -0.0694
 9101TIP3    H148718   5.069   1.400   2.211  0.7989 -0.7832 -1.1904
 9101TIP3    H248719   5.204   1.337   2.238  0.6964 -0.0314  1.1966
 9102TIP3   OH248720   4.939   2.425  16.381  0.1205 -0.1185  0.3804
 9102TIP3    H148721   5.009   2.453  16.323 -1.7038  0.4351 -1.6316
 9102TIP3    H248722   4.906   2.344  16.341  0.4742 -1.1322  2.0570
 9103TIP3   OH248723   1.634   2.102   2.672  0.4514  0.5560 -0.0619
 9103TIP3    H148724   1.581   2.033   2.712  0.6464  0.0758 -0.6269
 9103TIP3    H248725   1.717   2.060   2.651 -0.4772  0.1422 -3.1718
 9104TIP3   OH248726   5.584   4.643   2.204 -0.6817 -0.3420 -0.7242
 9104TIP3    H148727   5.562   4.736   2.192  1.5439  0.7432  2.5483
 9104TIP3    H248728   5.503   4.602   2.232 -1.4608  0.8782 -1.1556
 9105TIP3   OH248729   1.975   0.899  12.164 -0.1240  0.5019 -0.3943
 9105TIP3    H148730   1.984   0.934  12.252 -0.4437 -0.2452 -0.0615
 9105TIP3    H248731   2.037   0.951  12.112  1.7985 -0.5858  0.7164
 9106TIP3   OH248732   1.124   0.284  13.217  0.3058  0.6138 -0.1108
 9106TIP3    H148733   1.210   0.243  13.206 -0.2954 -0.8289  0.4093
 9106TIP3    H248734   1.101   0.314  13.129  0.8887  0.0571 -0.4587
 9107TIP3   OH248735   2.934   6.440  14.371  0.4928  0.3268  0.0642
 9107TIP3    H148736   2.875   6.474  14.439 -0.0844 -0.8087  0.1384
 9107TIP3    H248737   2.877   6.387  14.315  1.6446 -1.6300  0.7276
 9108TIP3   OH248738   3.831   0.225   4.951  0.1215 -0.0972 -0.0548
 9108TIP3    H148739   3.861   0.295   5.008  1.7805  2.2588 -3.6493
 9108TIP3    H248740   3.905   0.164   4.948  0.2028  0.0013 -0.0593
 9109TIP3   OH248741   1.638   4.263   3.457  0.3604  0.0068 -0.8041
 9109TIP3    H148742   1.644   4.306   3.372 -2.4849  0.2463 -0.9331
 9109TIP3    H248743   1.636   4.170   3.437  1.7224 -0.0082 -0.8634
 9110TIP3   OH248744   2.359   1.221  15.251 -0.4408  0.9615 -0.5410
 9110TIP3    H148745   2.406   1.305  15.253 -0.5293  1.0034  2.2516
 9110TIP3    H248746   2.296   1.230  15.179 -0.3181  3.2191 -0.3916
 9111TIP3   OH248747   2.118   4.492  14.151  0.1131  0.0250 -0.2320
 9111TIP3    H148748   2.043   4.519  14.203  0.5503  0.6010  0.1055
 9111TIP3    H248749   2.182   4.563  14.162  1.1981 -1.0421  0.5117
 9112TIP3   OH248750   1.379   5.828  11.789  0.7162 -0.0854 -0.0018
 9112TIP3    H148751   1.441   5.816  11.860  0.1581 -1.4383  0.2675
 9112TIP3    H248752   1.421   5.788  11.713  0.6388 -0.0454 -0.0668
 9113TIP3   OH248753   6.053   6.775   2.190 -0.1070  0.0011 -0.2048
 9113TIP3    H148754   6.074   6.804   2.101 -0.3970  1.9006  0.3366
 9113TIP3    H248755   5.958   6.765   2.190 -0.0303 -0.7507 -0.3255
 9114TIP3   OH248756   1.123   2.741  15.289  0.3478 -0.7926 -0.2741
 9114TIP3    H148757   1.155   2.776  15.206 -0.4989  0.6072 -0.0219
 9114TIP3    H248758   1.078   2.814  15.331  0.3054 -1.6278  1.1874
 9115TIP3   OH248759   5.645   5.623  15.924  0.7903  0.6941 -0.2448
 9115TIP3    H148760   5.593   5.575  15.860  0.4926  1.8189 -0.8589
 9115TIP3    H248761   5.729   5.638  15.880  2.0317 -1.9483  1.0855
 9116TIP3   OH248762   3.481   3.159  15.396  0.5071 -0.0828 -0.3892
 9116TIP3    H148763   3.474   3.255  15.392 -0.5318 -0.1168  0.2931
 9116TIP3    H248764   3.520   3.134  15.312  0.7847  0.9337 -0.5751
 9117TIP3   OH248765   2.092   4.971  14.179  1.0647  0.8452 -0.0773
 9117TIP3    H148766   2.068   5.019  14.258 -0.4840  1.1880 -0.7286
 9117TIP3    H248767   2.126   4.888  14.211  1.5372  1.4335  0.9807
 9118TIP3   OH248768   5.043   1.207   5.273 -0.0179  0.0283 -0.1359
 9118TIP3    H148769   5.068   1.284   5.221  0.9815 -0.6503 -0.6907
 9118TIP3    H248770   5.110   1.201   5.340  0.3515 -0.7995 -0.5659
 9119TIP3   OH248771   4.884   4.534  10.667  0.4225  0.0342 -0.6032
 9119TIP3    H148772   4.936   4.466  10.625  0.3960 -1.5203  1.8394
 9119TIP3    H248773   4.795   4.521  10.633  0.3888 -1.2624 -0.0315
 9120TIP3   OH248774   4.463   3.273   4.987 -0.0744  0.1387  0.2505
 9120TIP3    H148775   4.464   3.280   5.083  0.6339 -0.2981  0.2760
 9120TIP3    H248776   4.503   3.354   4.957 -0.0498  0.1562  0.3303
 9121TIP3   OH248777   3.961   0.809   4.100 -0.3826 -0.5768  0.5667
 9121TIP3    H148778   3.981   0.723   4.065  0.6730  0.2066 -0.8348
 9121TIP3    H248779   4.047   0.847   4.121 -0.6816  0.8740 -0.7001
 9122TIP3   OH248780   2.672   2.689   4.340 -0.1881 -0.0999 -0.2494
 9122TIP3    H148781   2.602   2.625   4.351  0.5734 -0.5829  2.0997
 9122TIP3    H248782   2.752   2.641   4.362  0.5601  1.2375  0.0222
 9123TIP3   OH248783   3.969   1.731   5.703 -0.3478 -0.3198 -0.1692
 9123TIP3    H148784   3.936   1.648   5.736  0.1801 -0.3179  0.3658
 9123TIP3    H248785   3.893   1.789   5.703 -0.5125 -0.5336  0.3398
 9124TIP3   OH248786   4.796   4.694  11.986 -0.4228 -0.8853  0.4114
 9124TIP3    H148787   4.771   4.775  12.031 -0.7197 -1.9936  2.3140
 9124TIP3    H248788   4.866   4.720  11.927  0.7124  0.4566  2.2891
 9125TIP3   OH248789   2.214   5.387   3.945  0.2167 -0.0857  0.1562
 9125TIP3    H148790   2.289   5.407   4.000  1.8101  0.2560 -2.0400
 9125TIP3    H248791   2.215   5.454   3.877 -1.0781 -1.0533 -0.8736
 9126TIP3   OH248792   4.832   0.486  10.613 -0.0214 -0.2351 -0.1298
 9126TIP3    H148793   4.855   0.563  10.667  0.0391 -1.0103  0.9715
 9126TIP3    H248794   4.791   0.523  10.535 -0.0866  0.9219  0.4369
 9127TIP3   OH248795   3.064   2.381   0.593  0.0073  0.4161 -0.3813
 9127TIP3    H148796   3.078   2.424   0.508  0.6512 -0.9352 -0.9752
 9127TIP3    H248797   3.044   2.290   0.571 -3.0259  0.7453  0.7798
 9128TIP3   OH248798   5.211   1.997   0.434  0.0424 -0.0174 -0.0608
 9128TIP3    H148799   5.289   1.952   0.402  0.6147 -0.7119  2.2820
 9128TIP3    H248800   5.138   1.940   0.410  0.4315 -0.3667 -0.4171
 9129TIP3   OH248801   0.139   2.102  12.093  0.3570  0.4704 -0.6094
 9129TIP3    H148802   0.078   2.140  12.155  1.4502  0.7824  0.2791
 9129TIP3    H248803   0.211   2.164  12.089  1.3227 -0.6330 -0.5015
 9130TIP3   OH248804   1.268   5.967  13.332 -0.4661  0.2525  0.1044
 9130TIP3    H148805   1.271   6.048  13.281  0.1551  0.1741  0.0083
 9130TIP3    H248806   1.215   5.988  13.408  0.3635  0.9820  0.4884
 9131TIP3   OH248807   5.807   4.713  15.949  0.0684  0.1229 -0.7083
 9131TIP3    H148808   5.745   4.762  16.002 -0.4297  0.7374 -1.8401
 9131TIP3    H248809   5.844   4.778  15.889  0.5563 -0.5736 -1.1685
 9132TIP3   OH248810   1.234   2.421  16.537 -0.2386 -0.6021 -0.1417
 9132TIP3    H148811   1.208   2.509  16.564 -0.0472 -0.5520 -0.1166
 9132TIP3    H248812   1.314   2.404  16.587  1.1646  0.2170 -2.0096
 9133TIP3   OH248813   4.272   3.812   0.377  0.1215 -0.3964  0.5639
 9133TIP3    H148814   4.214   3.884   0.353 -0.5519 -0.6179  1.5189
 9133TIP3    H248815   4.214   3.742   0.403  0.7625 -1.5483 -1.0286
 9134TIP3   OH248816   1.205   2.308   1.430  0.2194  0.0739  0.7457
 9134TIP3    H148817   1.292   2.268   1.431 -0.1314 -0.6873  2.8920
 9134TIP3    H248818   1.150   2.244   1.385  0.2647 -0.5702  1.5952
 9135TIP3   OH248819   6.321   3.652  16.666  0.5954 -0.1520  0.4077
 9135TIP3    H148820   6.244   3.694  16.705  1.2841  1.4329  0.0832
 9135TIP3    H248821   6.329   3.693  16.580  1.0944 -1.1796 -0.0358
 9136TIP3   OH248822   0.644   3.642  11.955  0.0936 -0.3077 -0.4462
 9136TIP3    H148823   0.739   3.634  11.940  0.2656 -1.2596  0.9587
 9136TIP3    H248824   0.627   3.578  12.025 -1.5718 -0.0685 -0.6349
 9137TIP3   OH248825   6.082   2.029  15.778 -0.2710  0.4024 -0.0590
 9137TIP3    H148826   6.170   2.063  15.792  0.1265  0.0237 -1.5897
 9137TIP3    H248827   6.086   1.983  15.694 -2.3398  1.7807 -0.9639
 9138TIP3   OH248828   2.269   5.285  11.525  0.0384  0.1779 -0.0581
 9138TIP3    H148829   2.201   5.271  11.591  0.3711  0.2955  0.3188
 9138TIP3    H248830   2.256   5.375  11.496  0.6908  0.5535  0.7881
 9139TIP3   OH248831   4.571   6.520  14.943 -0.0443  0.0290 -0.2877
 9139TIP3    H148832   4.648   6.492  14.894  0.6338  0.2500  0.6321
 9139TIP3    H248833   4.578   6.615  14.946 -0.9577  0.1275 -1.1688
 9140TIP3   OH248834   5.601   4.178  15.935  0.0890 -0.3314  0.2901
 9140TIP3    H148835   5.514   4.214  15.925 -0.2011 -1.1619 -0.2545
 9140TIP3    H248836   5.587   4.092  15.975  0.7718  0.2117  1.7284
 9141TIP3   OH248837   5.962   6.452   3.371 -0.1351 -0.5435 -0.1565
 9141TIP3    H148838   5.957   6.542   3.339 -3.4058 -0.7674 -0.4489
 9141TIP3    H248839   5.929   6.456   3.461  0.3559 -1.3573  0.0696
 9142TIP3   OH248840   6.369   4.994  14.378 -0.4607 -0.3663  0.3561
 9142TIP3    H148841   6.405   4.977  14.291 -1.2437  1.5979 -0.3769
 9142TIP3    H248842   6.315   5.072  14.367 -0.9752 -0.3852  2.5032
 9143TIP3   OH248843   0.185   6.739   3.788 -0.1155 -0.2960  0.2901
 9143TIP3    H148844   0.185   6.822   3.835  1.2253 -1.3618  2.2612
 9143TIP3    H248845   0.228   6.758   3.705 -1.4947  1.3703 -0.0772
 9144TIP3   OH248846   2.780   0.138  12.824 -0.0473 -0.2267  0.1843
 9144TIP3    H148847   2.815   0.224  12.801 -1.1857 -0.2041 -1.5348
 9144TIP3    H248848   2.843   0.076  12.788 -0.3284 -0.1470 -0.4406
 9145TIP3   OH248849   0.285   3.939   0.080  0.7373 -0.4567  0.3001
 9145TIP3    H148850   0.257   3.858   0.123 -3.1544  0.2764 -0.7097
 9145TIP3    H248851   0.273   4.007   0.147  1.3727 -0.2839  0.2487
 9146TIP3   OH248852   1.773   1.171   0.952 -0.1238 -0.2114  0.0569
 9146TIP3    H148853   1.861   1.140   0.972 -0.6077 -1.1904  0.7383
 9146TIP3    H248854   1.732   1.099   0.905 -1.7877 -1.3107  3.0601
 9147TIP3   OH248855   6.105   2.340  12.614 -0.2909 -0.3752 -0.1652
 9147TIP3    H148856   6.149   2.303  12.538  1.2076  0.2707  0.3805
 9147TIP3    H248857   6.168   2.400  12.653 -2.3843  2.1351 -0.5217
 9148TIP3   OH248858   6.468   1.285  16.066 -0.0586  0.3835  0.0410
 9148TIP3    H148859   6.519   1.257  16.142 -0.5822  1.3464  0.7522
 9148TIP3    H248860   6.534   1.314  16.003  0.3212  0.8696  0.6529
 9149TIP3   OH248861   3.351   5.868  14.087  0.3216  0.6866 -0.6380
 9149TIP3    H148862   3.352   5.928  14.013 -1.3626  1.4932 -0.0331
 9149TIP3    H248863   3.263   5.831  14.087  0.3720  0.5363  0.8322
 9150TIP3   OH248864   5.542   4.478   0.974  0.4545 -0.0639 -0.2447
 9150TIP3    H148865   5.501   4.512   1.054 -0.7655 -0.7722 -0.5623
 9150TIP3    H248866   5.634   4.465   0.998 -0.4206 -2.7423  1.8432
 9151TIP3   OH248867   5.147   4.037   3.396 -0.6962  0.2830  0.4506
 9151TIP3    H148868   5.138   3.954   3.442  3.3029 -0.6339 -0.2793
 9151TIP3    H248869   5.132   4.015   3.304  0.8844  0.2508  0.1934
 9152TIP3   OH248870   2.642   2.436  11.157 -0.6117  0.6017  0.0553
 9152TIP3    H148871   2.594   2.417  11.076 -0.9628  0.2750  0.3401
 9152TIP3    H248872   2.726   2.472  11.127  0.1647 -1.5735 -0.5004
 9153TIP3   OH248873   0.682   6.503   2.083  0.0089  0.1051  0.4488
 9153TIP3    H148874   0.646   6.492   2.171 -2.0716 -1.3457 -0.5404
 9153TIP3    H248875   0.642   6.585   2.051  0.2346  0.2725  0.5904
 9154TIP3   OH248876   1.811   6.184   5.273  0.4978  0.1175 -0.3925
 9154TIP3    H148877   1.847   6.203   5.359  1.8737  1.0216 -1.1513
 9154TIP3    H248878   1.812   6.268   5.227  0.5543 -0.5107 -1.5753
 9155TIP3   OH248879   6.024   5.286   1.103 -0.1340  0.0170 -0.0990
 9155TIP3    H148880   5.930   5.303   1.105 -0.3574 -1.3882  2.4608
 9155TIP3    H248881   6.031   5.199   1.062 -0.0226 -0.3388  0.6771
 9156TIP3   OH248882   1.833   4.058  16.095  0.4098 -0.4008  0.9705
 9156TIP3    H148883   1.759   3.998  16.101 -0.2979  0.4723  1.0693
 9156TIP3    H248884   1.885   4.039  16.173  0.2336 -0.9342  0.9614
 9157TIP3   OH248885   6.499   3.574   4.914  0.2976 -0.1765  0.0273
 9157TIP3    H148886   6.442   3.622   4.854  0.3871  0.3869  0.3872
 9157TIP3    H248887   6.469   3.483   4.908  0.7666 -0.2479 -1.3976
 9158TIP3   OH248888   5.450   1.218  14.764 -0.5654 -0.6154 -0.4512
 9158TIP3    H148889   5.540   1.216  14.799 -0.3547 -2.5757 -1.0860
 9158TIP3    H248890   5.448   1.148  14.699 -3.0461 -1.6803  0.7246
 9159TIP3   OH248891   2.413   2.447   3.026  0.3528 -0.0722  0.7373
 9159TIP3    H148892   2.380   2.492   3.104 -1.5245  1.7442 -1.0259
 9159TIP3    H248893   2.499   2.485   3.011  0.9990 -0.8951  2.2692
 9160TIP3   OH248894   1.222   0.168   0.765 -0.3397  0.2001  0.2797
 9160TIP3    H148895   1.228   0.081   0.806 -0.0915  0.5473  0.9846
 9160TIP3    H248896   1.259   0.228   0.830  1.6160  0.5610 -1.1261
 9161TIP3   OH248897   5.213   6.339  16.244 -0.1482 -0.2273  0.1637
 9161TIP3    H148898   5.161   6.400  16.295 -0.4336 -0.3789  0.0597
 9161TIP3    H248899   5.151   6.300  16.182  0.0364 -0.5949  0.2063
 9162TIP3   OH248900   2.832   5.315   2.551  0.1088  0.8304  0.4446
 9162TIP3    H148901   2.840   5.222   2.530 -0.5449  0.7488  0.5547
 9162TIP3    H248902   2.793   5.316   2.639  0.4945  1.2011  0.6114
 9163TIP3   OH248903   6.070   2.447  16.541  0.0846 -0.2859 -0.5249
 9163TIP3    H148904   6.002   2.386  16.570  1.1036 -0.0735  2.4488
 9163TIP3    H248905   6.129   2.394  16.488 -0.5344 -1.2362 -0.2746
 9164TIP3   OH248906   5.941   1.901   1.130  0.4922 -0.9258  0.0371
 9164TIP3    H148907   6.004   1.909   1.202  0.1464 -0.7056  0.3175
 9164TIP3    H248908   5.994   1.910   1.051  0.5107  1.7099  0.2856
 9165TIP3   OH248909   4.445   3.007  13.408  0.2064 -0.0995  0.6854
 9165TIP3    H148910   4.539   3.002  13.424  0.5950  1.5440 -0.9139
 9165TIP3    H248911   4.411   3.062  13.478  0.4096 -0.8328  1.3588
 9166TIP3   OH248912   6.157   4.346   6.058  0.0524  0.5065  0.2722
 9166TIP3    H148913   6.220   4.315   5.993  0.1666  2.0274 -0.3597
 9166TIP3    H248914   6.208   4.401   6.118 -0.7358  2.1156 -0.5028
 9167TIP3   OH248915   5.474   0.541   4.696 -0.0339  0.6188  0.7367
 9167TIP3    H148916   5.389   0.501   4.712 -0.5295  1.0035 -0.8729
 9167TIP3    H248917   5.466   0.629   4.733 -0.2569  0.5914  0.7552
 9168TIP3   OH248918   6.306   2.486   0.731  0.1324 -0.0984  0.4468
 9168TIP3    H148919   6.219   2.453   0.709 -1.2453  2.9795  0.9570
 9168TIP3    H248920   6.289   2.561   0.788  3.1567  0.2542  0.9632
 9169TIP3   OH248921   5.671   1.011  10.670 -0.0595 -0.0889  0.1322
 9169TIP3    H148922   5.731   1.071  10.625  0.3063 -1.5510 -1.3931
 9169TIP3    H248923   5.725   0.970  10.737 -0.0152  0.4126  0.4121
 9170TIP3   OH248924   2.954   2.650  15.419 -0.0666 -0.0493 -0.0191
 9170TIP3    H148925   2.922   2.730  15.460  1.9178  1.8067 -1.9330
 9170TIP3    H248926   3.045   2.642  15.449  0.8965  0.4703 -2.6305
 9171TIP3   OH248927   3.592   3.782  11.058  0.1565  0.3201  0.2594
 9171TIP3    H148928   3.541   3.715  11.104  0.4643 -0.1856 -0.1413
 9171TIP3    H248929   3.682   3.770  11.089  0.3153  0.1604 -0.2625
 9172TIP3   OH248930   5.425   6.441   5.396  0.0488 -0.1527  0.2114
 9172TIP3    H148931   5.352   6.452   5.336 -0.6433  1.4095  1.3188
 9172TIP3    H248932   5.415   6.511   5.460  2.3538 -0.0940  0.5568
 9173TIP3   OH248933   1.364   3.864   3.178  0.1822  0.5148 -0.1310
 9173TIP3    H148934   1.397   3.774   3.182 -0.2411  0.3836  0.5172
 9173TIP3    H248935   1.335   3.883   3.267  0.1176  1.2392 -0.3022
 9174TIP3   OH248936   6.353   5.280   5.928  0.3058 -0.0565  0.7150
 9174TIP3    H148937   6.400   5.314   6.004  0.6942  1.5848 -0.2329
 9174TIP3    H248938   6.262   5.274   5.956  0.2635  1.5806  0.9793
 9175TIP3   OH248939   5.375   0.036  14.383 -0.5201  0.0318  0.1767
 9175TIP3    H148940   5.403   0.081  14.303 -0.5388  0.4929  0.4274
 9175TIP3    H248941   5.455  -0.005  14.417 -0.3286  0.5983  0.4099
 9176TIP3   OH248942   1.656   1.782   1.932 -0.0449  0.3373  0.1088
 9176TIP3    H148943   1.636   1.875   1.943  0.3952  0.4632 -0.1463
 9176TIP3    H248944   1.608   1.757   1.853 -0.1751  0.3418  0.1856
 9177TIP3   OH248945   3.844   2.178  12.155  0.2395  0.7103  0.8302
 9177TIP3    H148946   3.935   2.148  12.163  0.1970  0.1510 -0.5645
 9177TIP3    H248947   3.848   2.272  12.171  0.8693  0.4736  2.0805
 9178TIP3   OH248948   1.492   4.610   1.927  0.4216 -0.3664 -0.0146
 9178TIP3    H148949   1.491   4.572   2.015  0.5585 -1.7684 -0.5949
 9178TIP3    H248950   1.413   4.574   1.885  0.6194 -0.1014 -0.6194
 9179TIP3   OH248951   6.473   2.578  12.499  0.0441  0.1872  0.3877
 9179TIP3    H148952   6.400   2.623  12.456  0.8684  2.8482  1.6612
 9179TIP3    H248953   6.548   2.635  12.484  1.4012 -1.4080  0.9980
 9180TIP3   OH248954   1.705   4.153   2.384 -0.3277 -0.3942  0.1895
 9180TIP3    H148955   1.751   4.079   2.424  1.9700  1.5036  1.1760
 9180TIP3    H248956   1.744   4.162   2.297  0.3150  0.4440  0.5575
 9181TIP3   OH248957   1.757   5.752  14.671 -0.0775  0.4430  0.1633
 9181TIP3    H148958   1.677   5.755  14.724 -1.2563 -0.6598 -1.4931
 9181TIP3    H248959   1.802   5.834  14.691 -0.8238  0.3617  2.3367
 9182TIP3   OH248960   0.750   2.425   0.178 -0.2787  0.1875  0.2449
 9182TIP3    H148961   0.738   2.371   0.256  1.1603  1.3290  1.3015
 9182TIP3    H248962   0.807   2.496   0.207 -1.6127  1.9335 -1.2676
 9183TIP3   OH248963   3.156   0.839  14.768  0.3785  0.2539 -0.1439
 9183TIP3    H148964   3.235   0.843  14.822  1.2084  1.6259 -1.3897
 9183TIP3    H248965   3.086   0.812  14.828  1.3518  1.3353  1.5143
 9184TIP3   OH248966   1.135   3.498  11.408 -0.1887  0.0992  0.4887
 9184TIP3    H148967   1.210   3.553  11.431  0.4350 -1.1235  1.4734
 9184TIP3    H248968   1.167   3.443  11.336 -0.1193 -0.4638  0.9477
 9185TIP3   OH248969   5.335   3.138  15.729  0.4836  0.3217 -0.8861
 9185TIP3    H148970   5.251   3.172  15.761  1.7137  1.9911  0.6712
 9185TIP3    H248971   5.326   3.136  15.634 -1.2382  0.7291 -0.7404
 9186TIP3   OH248972   1.719   0.778  13.186  0.9771  0.1951  0.2691
 9186TIP3    H148973   1.736   0.870  13.168  1.6645  0.1676  0.7991
 9186TIP3    H248974   1.681   0.745  13.104 -3.7537  2.0429  1.5557
 9187TIP3   OH248975   2.575   6.189  12.554 -0.1199 -0.1820 -0.1554
 9187TIP3    H148976   2.560   6.274  12.595  0.1784 -0.2942  0.1895
 9187TIP3    H248977   2.616   6.210  12.470 -0.3899  0.0322 -0.2332
 9188TIP3   OH248978   3.695   6.000  16.266  0.0691  0.4790  0.2451
 9188TIP3    H148979   3.737   6.051  16.196  1.1359  0.8309  1.1449
 9188TIP3    H248980   3.739   5.915  16.265  0.3696  0.6286  0.7715
 9189TIP3   OH248981   6.302   4.563  16.259  0.2646 -0.0942 -0.5819
 9189TIP3    H148982   6.376   4.622  16.276  0.5771 -0.1493 -1.7267
 9189TIP3    H248983   6.335   4.500  16.195 -0.7132 -0.2565 -0.9381
 9190TIP3   OH248984   2.254   4.160  15.993 -0.0865 -0.1171 -0.4950
 9190TIP3    H148985   2.242   4.183  16.085 -0.7488  0.2217 -0.6696
 9190TIP3    H248986   2.172   4.119  15.967 -0.3073  0.8037 -1.2511
 9191TIP3   OH248987   5.895   1.519   2.614  0.0319 -0.1014  0.2825
 9191TIP3    H148988   5.802   1.506   2.595 -0.2218  1.5066  0.3467
 9191TIP3    H248989   5.921   1.592   2.558  0.2876  2.0299  3.0793
 9192TIP3   OH248990   6.495   2.967  16.050 -0.1969  0.4227 -0.8679
 9192TIP3    H148991   6.534   2.965  16.137 -1.6254 -0.3174 -0.2249
 9192TIP3    H248992   6.474   3.059  16.035  0.6526  0.6417 -0.6998
 9193TIP3   OH248993   0.548   5.554   0.370  0.5095  0.5365 -0.5065
 9193TIP3    H148994   0.568   5.472   0.415  1.8373  0.6175 -0.9482
 9193TIP3    H248995   0.456   5.544   0.344  0.4329 -0.4942  0.1018
 9194TIP3   OH248996   3.576   1.905  17.078 -0.1916 -0.3452  0.4516
 9194TIP3    H148997   3.622   1.981  17.115 -1.3841  0.8818 -0.5014
 9194TIP3    H248998   3.637   1.868  17.015  0.6855 -0.6289  1.4583
 9195TIP3   OH248999   5.025   1.736  10.878 -0.1374  0.4846  0.5055
 9195TIP3    H149000   4.938   1.698  10.870  0.1077 -0.5841  2.6914
 9195TIP3    H249001   5.024   1.782  10.962  1.6479 -0.2331  0.9402
 9196TIP3   OH249002   0.711   1.048  16.344 -0.2127  0.0291  0.3022
 9196TIP3    H149003   0.735   0.958  16.322 -0.1850 -0.4147  2.1092
 9196TIP3    H249004   0.769   1.072  16.416  0.6806  1.9694 -1.0328
 9197TIP3   OH249005   0.846   0.379  14.094 -0.3333 -0.0246  0.7292
 9197TIP3    H149006   0.919   0.370  14.033 -0.9211  0.8081 -0.1211
 9197TIP3    H249007   0.774   0.410  14.040  0.0598  4.1692  2.4232
 9198TIP3   OH249008   0.112   1.332   3.245 -0.6098  0.0960 -0.2302
 9198TIP3    H149009   0.138   1.264   3.307  1.2978  0.0191 -1.0892
 9198TIP3    H249010   0.068   1.285   3.174  0.5422 -0.2369 -0.7331
 9199TIP3   OH249011   4.297   0.684  15.637 -0.0848  0.2171 -0.5114
 9199TIP3    H149012   4.213   0.727  15.646 -0.2487 -0.1993 -0.0348
 9199TIP3    H249013   4.324   0.664  15.727  0.2219 -0.2173 -0.6979
 9200TIP3   OH249014   2.448   4.647   0.287  0.7631  0.4765 -0.6515
 9200TIP3    H149015   2.450   4.636   0.382 -0.5874  0.8443 -0.5704
 9200TIP3    H249016   2.467   4.560   0.252 -0.5958 -0.0941 -0.0281
 9201TIP3   OH249017   1.108   4.081   5.846  0.1840  0.4535  0.3440
 9201TIP3    H149018   1.071   4.086   5.758 -0.5066 -0.2745  0.5925
 9201TIP3    H249019   1.099   4.169   5.881 -0.1299  0.5869 -0.0729
 9202TIP3   OH249020   3.242   6.328   1.554  0.2935 -0.1572 -0.2296
 9202TIP3    H149021   3.269   6.238   1.537  1.1928  0.0883 -0.0845
 9202TIP3    H249022   3.307   6.382   1.510  1.1796  0.4560  1.7775
 9203TIP3   OH249023   6.203   5.533  14.839  0.1144  0.5863 -0.1519
 9203TIP3    H149024   6.107   5.527  14.834  0.0571  0.7793  0.5401
 9203TIP3    H249025   6.224   5.616  14.796 -0.0327  0.5551 -0.2860
 9204TIP3   OH249026   6.189   0.572   3.429 -0.4708 -0.6314 -0.4416
 9204TIP3    H149027   6.192   0.602   3.338 -0.3191  0.4729 -0.0831
 9204TIP3    H249028   6.277   0.542   3.448  0.1228  1.3284  0.0464
 9205TIP3   OH249029   0.067   3.990   3.357 -0.6256 -0.5658 -0.0333
 9205TIP3    H149030   0.136   3.943   3.404 -0.2200  1.7152  1.7608
 9205TIP3    H249031   0.055   3.941   3.276  2.2739 -1.6677  0.1574
 9206TIP3   OH249032   0.402   6.075   1.196 -0.1324  0.2032 -0.0437
 9206TIP3    H149033   0.426   6.089   1.104 -1.6289 -0.3452 -0.5305
 9206TIP3    H249034   0.427   6.156   1.240 -1.7420  1.4528 -1.4109
 9207TIP3   OH249035   2.390   0.107  11.462 -0.8248  0.0761 -0.1521
 9207TIP3    H149036   2.309   0.105  11.410 -0.5169 -2.7038 -0.5841
 9207TIP3    H249037   2.432   0.023  11.445  2.7686  1.8984 -0.8362
 9208TIP3   OH249038   3.219   5.990  13.870  0.4673 -0.2604  0.0266
 9208TIP3    H149039   3.245   6.080  13.887 -1.5299  0.1605  1.0268
 9208TIP3    H249040   3.126   5.997  13.845  0.4306 -1.9794 -0.3422
 9209TIP3   OH249041   5.297   3.782  14.626 -0.1172  0.1705 -0.3104
 9209TIP3    H149042   5.311   3.799  14.719 -0.1635  0.6185 -0.3822
 9209TIP3    H249043   5.380   3.744  14.595  1.0686  3.0191 -0.7918
 9210TIP3   OH249044   1.845   1.654   6.173 -0.2897  0.3180 -0.1136
 9210TIP3    H149045   1.889   1.641   6.089 -2.1948  2.5981 -1.5366
 9210TIP3    H249046   1.800   1.571   6.190 -1.8257  0.5978 -2.5836
 9211TIP3   OH249047   4.447   5.274   5.207 -0.0809  0.4605 -0.1515
 9211TIP3    H149048   4.361   5.310   5.229 -0.2233 -0.6344  1.1784
 9211TIP3    H249049   4.494   5.271   5.290  0.9140  0.1810 -0.7137
 9212TIP3   OH249050   6.478   3.462   5.642  0.1140  0.2083  0.1547
 9212TIP3    H149051   6.470   3.484   5.549  0.9606  0.8250  0.2228
 9212TIP3    H249052   6.407   3.510   5.683 -0.1438  0.0901 -0.1477
 9213TIP3   OH249053   0.079   2.304  14.429  0.1665 -0.3966  0.5813
 9213TIP3    H149054   0.115   2.233  14.376  1.5948  0.8038 -0.0847
 9213TIP3    H249055   0.143   2.318  14.498 -0.3249 -0.0717  0.9732
 9214TIP3   OH249056   2.609   0.349  16.307  0.6651 -0.1266 -0.2782
 9214TIP3    H149057   2.674   0.320  16.243 -0.9307 -0.3877 -1.8304
 9214TIP3    H249058   2.531   0.298  16.286  0.8146 -2.1080  3.5079
 9215TIP3   OH249059   3.234   2.233   0.307 -0.2519 -0.1077  0.0179
 9215TIP3    H149060   3.158   2.229   0.365 -0.2761 -0.6439 -0.0495
 9215TIP3    H249061   3.200   2.217   0.220  0.2073 -2.3393  0.2240
 9216TIP3   OH249062   5.828   0.561   2.757 -0.0441  0.0826  0.3582
 9216TIP3    H149063   5.878   0.480   2.743 -0.6358 -0.2877  0.3846
 9216TIP3    H249064   5.849   0.616   2.682 -0.9782 -0.7712 -0.5396
 9217TIP3   OH249065   2.966   5.575  12.577  0.0628  0.6820 -0.4278
 9217TIP3    H149066   3.009   5.521  12.643  0.7000  2.8173  0.9898
 9217TIP3    H249067   3.038   5.614  12.527 -0.3680  0.4125 -1.2688
 9218TIP3   OH249068   3.806   2.881   1.527 -0.5371  0.2898 -0.2424
 9218TIP3    H149069   3.847   2.929   1.456  0.5295  1.5318  1.1952
 9218TIP3    H249070   3.877   2.827   1.564 -0.8508  0.3740  0.4910
 9219TIP3   OH249071   0.574   4.020   4.036  0.4531  0.0845  0.4616
 9219TIP3    H149072   0.515   3.972   3.979  0.8037 -0.4512  0.5490
 9219TIP3    H249073   0.520   4.048   4.110  0.6830 -1.9297  1.4328
 9220TIP3   OH249074   4.785   0.594  10.973 -0.3562  0.0656 -0.5033
 9220TIP3    H149075   4.819   0.637  11.052 -0.2272 -0.5564 -0.2191
 9220TIP3    H249076   4.771   0.666  10.911 -0.9311  0.6119  0.2565
 9221TIP3   OH249077   6.187   2.717  13.194  0.1715  0.7930 -0.3342
 9221TIP3    H149078   6.185   2.630  13.233  5.0122 -0.1006 -1.7642
 9221TIP3    H249079   6.152   2.704  13.106 -2.6116  1.1021  0.6841
 9222TIP3   OH249080   5.999   1.706   3.011  0.0209  0.0977  0.0592
 9222TIP3    H149081   6.002   1.748   3.097 -0.1600  0.2551 -0.0127
 9222TIP3    H249082   6.092   1.692   2.989  0.0310 -1.7815  1.1787
 9223TIP3   OH249083   4.566   6.626   0.870 -1.1124  0.2343  0.0748
 9223TIP3    H149084   4.522   6.603   0.788  0.8206  0.3337 -1.0376
 9223TIP3    H249085   4.498   6.618   0.937 -2.4064 -1.1495 -1.3461
 9224TIP3   OH249086   1.559   3.328   5.072  0.8544 -0.2588 -0.4502
 9224TIP3    H149087   1.570   3.345   5.165 -2.1571  1.8543 -0.3874
 9224TIP3    H249088   1.614   3.394   5.028  1.3648 -0.4947 -0.1583
 9225TIP3   OH249089   4.848   0.814   3.303  0.4843  0.0289 -0.6662
 9225TIP3    H149090   4.862   0.735   3.355  1.2894  0.3442 -0.3992
 9225TIP3    H249091   4.914   0.876   3.334 -0.5091  1.0151 -0.4598
 9226TIP3   OH249092   3.636   1.319   4.001  0.2227  0.3924 -0.6542
 9226TIP3    H149093   3.602   1.293   4.087  0.3620  3.1659  0.2888
 9226TIP3    H249094   3.731   1.311   4.010  0.1594 -0.7733 -1.0422
 9227TIP3   OH249095   1.412   6.234  13.275  0.0658  0.0960 -0.1516
 9227TIP3    H149096   1.333   6.285  13.259  0.7478  0.8602 -1.1185
 9227TIP3    H249097   1.478   6.272  13.217  0.9432 -1.0196  0.0895
 9228TIP3   OH249098   0.535   4.425   4.557  0.8240 -0.1655  0.4433
 9228TIP3    H149099   0.490   4.439   4.640 -0.5460 -0.4127 -0.2363
 9228TIP3    H249100   0.572   4.510   4.534 -2.1002  0.8965 -0.5823
 9229TIP3   OH249101   5.570   5.630  16.705 -0.7491 -0.2984  0.4693
 9229TIP3    H149102   5.557   5.710  16.655 -0.4238  0.3474  1.4096
 9229TIP3    H249103   5.546   5.652  16.795  0.5296 -0.8864  0.9835
 9230TIP3   OH249104   3.207   6.741   5.326 -0.4622 -0.0178 -0.5193
 9230TIP3    H149105   3.113   6.760   5.328 -0.6222 -0.8486 -0.0436
 9230TIP3    H249106   3.232   6.758   5.235 -1.1113  0.0362 -0.6953
 9231TIP3   OH249107   4.246   3.400  14.599 -1.0300  0.2377  0.4759
 9231TIP3    H149108   4.220   3.465  14.533 -2.0754  0.0813  0.7279
 9231TIP3    H249109   4.166   3.382  14.648 -0.5946 -0.7407  0.8447
 9232TIP3   OH249110   4.394   2.659  16.576  0.2433  0.3716  0.4353
 9232TIP3    H149111   4.383   2.732  16.636 -0.2491  0.1607  0.6101
 9232TIP3    H249112   4.387   2.699  16.489  1.3569  0.7333  0.5064
 9233TIP3   OH249113   3.714   4.077  11.344  0.2464  0.0294  0.3952
 9233TIP3    H149114   3.755   4.115  11.422 -0.3987 -0.5116  0.9949
 9233TIP3    H249115   3.637   4.133  11.328 -0.1340 -0.4122  0.6842
 9234TIP3   OH249116   2.700   4.418   4.605 -0.2835 -0.4852 -0.6196
 9234TIP3    H149117   2.668   4.471   4.532 -1.0236  1.8102  1.3175
 9234TIP3    H249118   2.793   4.408   4.587 -0.1101  1.5194 -1.0162
 9235TIP3   OH249119   2.206   0.129   6.124 -0.4936  0.2831 -0.5340
 9235TIP3    H149120   2.252   0.105   6.044 -2.1147 -0.9867 -1.1188
 9235TIP3    H249121   2.254   0.085   6.194  0.3013  0.5357 -0.9130
 9236TIP3   OH249122   6.256   3.436   3.187 -0.5588  0.1693  0.5428
 9236TIP3    H149123   6.291   3.398   3.106 -0.2040  0.3412  0.6140
 9236TIP3    H249124   6.303   3.391   3.257 -0.1491  0.7198  0.6284
 9237TIP3   OH249125   3.981   0.973  14.044 -0.0653  0.1586  0.3542
 9237TIP3    H149126   3.917   0.907  14.017 -1.5480  1.8072 -0.2097
 9237TIP3    H249127   4.063   0.944  14.005 -0.6722 -1.4282  0.2205
 9238TIP3   OH249128   3.528   6.121   1.174 -0.1330 -0.9016  0.1819
 9238TIP3    H149129   3.476   6.040   1.173  0.0389 -1.0139  0.3415
 9238TIP3    H249130   3.610   6.096   1.216  0.4023 -0.9356 -0.8741
 9239TIP3   OH249131   5.547   5.613  13.695  0.1319 -0.1520  0.5405
 9239TIP3    H149132   5.500   5.545  13.647 -0.7805 -0.5894  2.0273
 9239TIP3    H249133   5.519   5.695  13.655 -1.9465 -0.3980  1.4088
 9240TIP3   OH249134   3.853   0.269   3.489  0.0371 -0.1611 -0.3817
 9240TIP3    H149135   3.901   0.252   3.570  2.7812  2.0980 -1.4619
 9240TIP3    H249136   3.807   0.351   3.505 -1.2293 -0.8625 -0.3581
 9241TIP3   OH249137   4.149   3.365   5.247  0.4684 -0.1118 -0.8037
 9241TIP3    H149138   4.148   3.378   5.342 -2.8023 -1.4358 -0.5898
 9241TIP3    H249139   4.238   3.336   5.228  1.2409  0.3971  1.8237
 9242TIP3   OH249140   6.553   3.840  12.902  0.4772  0.4274 -0.3748
 9242TIP3    H149141   6.464   3.812  12.925  1.1717 -1.0177  0.6617
 9242TIP3    H249142   6.609   3.772  12.939  2.1634  2.4859  0.9403
 9243TIP3   OH249143   4.197   4.373  11.095  0.2237  0.0713  0.4472
 9243TIP3    H149144   4.198   4.462  11.060 -0.0874  0.0322  0.3334
 9243TIP3    H249145   4.286   4.358  11.126  0.6181 -0.0565 -0.7346
 9244TIP3   OH249146   1.061   0.484   6.537  0.5312 -0.0272 -0.0519
 9244TIP3    H149147   1.139   0.540   6.540  1.0036 -0.7132  0.5436
 9244TIP3    H249148   1.095   0.395   6.529 -0.1341 -0.4822  1.7951
 9245TIP3   OH249149   0.088   2.681  12.074 -0.3236 -0.0028  0.1537
 9245TIP3    H149150   0.047   2.713  11.993 -2.1929  0.6172  1.3041
 9245TIP3    H249151   0.014   2.654  12.129  0.9729 -1.2217  1.3247
 9246TIP3   OH249152   6.736   2.137  16.870  0.0247  0.3193  0.2306
 9246TIP3    H149153   6.657   2.167  16.916  0.6677  0.5990  1.1587
 9246TIP3    H249154   6.808   2.181  16.915  0.8433 -1.2182  0.4507
 9247TIP3   OH249155   1.124   3.150  12.643 -0.7847  0.1660 -0.6552
 9247TIP3    H149156   1.145   3.104  12.724  0.4083 -1.0215 -1.6170
 9247TIP3    H249157   1.149   3.241  12.660  0.1788 -0.2232  0.0374
 9248TIP3   OH249158   2.132   2.413  11.197 -0.4053 -0.0356 -0.1308
 9248TIP3    H149159   2.117   2.480  11.130 -0.7825 -0.4112 -0.4254
 9248TIP3    H249160   2.112   2.331  11.153  1.0844 -0.4303 -0.0836
 9249TIP3   OH249161   1.231   2.500  15.200 -0.4564  0.3835  0.0096
 9249TIP3    H149162   1.183   2.576  15.231  0.3401  0.8541  0.1054
 9249TIP3    H249163   1.211   2.495  15.107  0.9538  1.8250 -0.3972
 9250TIP3   OH249164   6.760   4.655   0.158  0.8680 -0.5443 -0.1799
 9250TIP3    H149165   6.736   4.597   0.230  0.7931  0.7307  0.8379
 9250TIP3    H249166   6.746   4.602   0.079 -2.7184 -0.7638  0.4939
 9251TIP3   OH249167   0.948   5.890   3.218 -0.3064  0.6759  0.1833
 9251TIP3    H149168   0.992   5.913   3.300  2.6951 -1.5757 -0.6709
 9251TIP3    H249169   0.913   5.802   3.234  0.5754  0.0892 -0.9838
 9252TIP3   OH249170   1.158   4.778   4.754 -0.1920 -0.3025  0.2952
 9252TIP3    H149171   1.115   4.855   4.792  0.3151  0.4121 -0.5614
 9252TIP3    H249172   1.250   4.788   4.777 -0.4054 -1.6855  1.8728
 9253TIP3   OH249173   2.399   0.628   2.313  0.1394  0.0147 -0.0146
 9253TIP3    H149174   2.325   0.688   2.310  0.1008 -0.0452 -0.2702
 9253TIP3    H249175   2.473   0.682   2.340 -0.2211 -0.1472  1.3119
 9254TIP3   OH249176   0.033   2.617   1.206 -0.1293  0.0812  0.5470
 9254TIP3    H149177   0.120   2.629   1.244  0.2961  2.8257 -1.1454
 9254TIP3    H249178  -0.027   2.650   1.272  0.3047  0.8465  0.5583
 9255TIP3   OH249179   6.334   2.010  14.880 -0.2212 -0.2658  0.5085
 9255TIP3    H149180   6.285   2.010  14.798  0.6063 -2.1822 -0.0294
 9255TIP3    H249181   6.288   1.946  14.935  0.7270 -0.9135  0.5650
 9256TIP3   OH249182   6.597   4.257   1.781  0.1217  0.1308 -0.1269
 9256TIP3    H149183   6.520   4.309   1.803  0.5382  0.0015  1.7535
 9256TIP3    H249184   6.667   4.322   1.768  1.2695  0.0762  4.7268
 9257TIP3   OH249185   5.041   5.785  15.687  0.2634  0.6648  0.0241
 9257TIP3    H149186   4.990   5.842  15.629  2.4903  0.1511 -2.5535
 9257TIP3    H249187   5.050   5.703  15.639 -0.3877 -0.8846  2.4317
 9258TIP3   OH249188   2.601   2.680   2.050  0.2970 -0.5617 -0.0511
 9258TIP3    H149189   2.681   2.638   2.018  0.3227  0.0279 -0.7773
 9258TIP3    H249190   2.561   2.614   2.107  2.5073  0.0108  2.2847
 9259TIP3   OH249191   5.679   0.666   6.686 -0.4944  0.5523 -0.1727
 9259TIP3    H149192   5.767   0.703   6.679 -0.6773  1.5335  2.0639
 9259TIP3    H249193   5.635   0.721   6.751 -1.0655 -3.0377  2.6529
 9260TIP3   OH249194   1.449   5.742   4.800 -0.4242  0.1784  0.6288
 9260TIP3    H149195   1.359   5.713   4.810 -0.2210 -1.3396 -1.7225
 9260TIP3    H249196   1.500   5.681   4.854 -0.6645  0.3202  1.0224
 9261TIP3   OH249197   1.165   0.565  12.765  0.0726 -0.4080 -0.0304
 9261TIP3    H149198   1.227   0.637  12.754 -0.6643  0.1650 -0.4148
 9261TIP3    H249199   1.116   0.562  12.683  0.2301 -1.4759 -0.0959
 9262TIP3   OH249200   0.271   4.643  16.221  0.3407 -0.0090  0.9124
 9262TIP3    H149201   0.228   4.577  16.274  2.1860 -1.3942  0.7605
 9262TIP3    H249202   0.200   4.686  16.173 -0.8830 -2.1687  0.7055
 9263TIP3   OH249203   4.790   3.419   5.764 -0.1636 -0.1117  0.6756
 9263TIP3    H149204   4.865   3.441   5.821 -0.6472 -0.8599  1.6180
 9263TIP3    H249205   4.727   3.489   5.780 -0.5157 -0.5934  1.4939
 9264TIP3   OH249206   1.753   1.861   5.909  0.0113 -0.2477  0.3273
 9264TIP3    H149207   1.697   1.841   5.984 -0.3829 -1.4478 -0.2729
 9264TIP3    H249208   1.796   1.778   5.888  1.6234  0.5360  0.4471
 9265TIP3   OH249209   2.765   2.651  14.265 -0.0636  0.1155 -0.6608
 9265TIP3    H149210   2.695   2.717  14.256  0.0467  0.5907  1.6142
 9265TIP3    H249211   2.736   2.595  14.337  2.1101  0.6186  0.6618
 9266TIP3   OH249212   0.222   4.488   0.573 -0.1276  0.2727  0.3207
 9266TIP3    H149213   0.257   4.577   0.568  2.1890 -0.7409 -2.9519
 9266TIP3    H249214   0.296   4.434   0.598 -1.0908 -0.9989  0.4773
 9267TIP3   OH249215   1.137   5.868   2.981 -0.3591 -0.5474 -0.3776
 9267TIP3    H149216   1.047   5.881   2.949 -0.1679  0.5750 -0.4524
 9267TIP3    H249217   1.125   5.835   3.070 -0.8325  2.7101  0.8126
 9268TIP3   OH249218   5.564   2.658  12.385 -0.0615 -0.3354 -0.2983
 9268TIP3    H149219   5.540   2.712  12.460 -0.5360 -0.9948  0.0291
 9268TIP3    H249220   5.638   2.704  12.345  1.6279 -1.1043  1.8289
 9269TIP3   OH249221   3.613   5.534  11.818 -0.7315  0.3917 -0.3999
 9269TIP3    H149222   3.566   5.457  11.788 -1.9626  0.6022  0.9420
 9269TIP3    H249223   3.657   5.568  11.740 -0.6834 -1.2953 -1.1238
 9270TIP3   OH249224   6.674   2.138  11.295  0.4135  0.0449  0.1099
 9270TIP3    H149225   6.645   2.057  11.254  0.5561  0.9733 -1.8974
 9270TIP3    H249226   6.763   2.152  11.262  0.3543  1.0627  0.3461
 9271TIP3   OH249227   2.094   5.925   2.012 -0.4085 -0.0369  0.1859
 9271TIP3    H149228   2.147   5.880   1.946 -0.9806 -0.5878  0.1004
 9271TIP3    H249229   2.009   5.882   2.008 -0.0173 -1.0633  2.3265
 9272TIP3   OH249230   4.494   4.959  15.534 -0.0443 -0.2946  0.9918
 9272TIP3    H149231   4.425   4.993  15.590  0.6918  0.8510  1.2210
 9272TIP3    H249232   4.469   4.986  15.446 -0.4914 -0.9076  0.9271
 9273TIP3   OH249233   6.519   4.389  13.208  0.6240  0.6219  0.3203
 9273TIP3    H149234   6.446   4.339  13.245  0.1652  2.5204  2.0166
 9273TIP3    H249235   6.505   4.384  13.113 -0.6510 -0.6123  0.5606
 9274TIP3   OH249236   6.732   5.624   5.446 -0.0095 -0.1488  0.0306
 9274TIP3    H149237   6.662   5.645   5.508 -0.5645 -0.2637 -0.5490
 9274TIP3    H249238   6.695   5.644   5.360  0.5185 -0.6217 -0.3134
 9275TIP3   OH249239   2.465   4.326  17.033  0.3467  0.0235 -0.2280
 9275TIP3    H149240   2.559   4.314  17.026  0.4902  0.8990  0.1246
 9275TIP3    H249241   2.429   4.282  16.956  0.8394 -2.5241  0.9568
 9276TIP3   OH249242   0.361   2.839  12.923 -0.2059  0.1507  0.1936
 9276TIP3    H149243   0.283   2.787  12.903  0.3124 -0.5202 -0.0724
 9276TIP3    H249244   0.393   2.868  12.838  1.2980 -1.6873  0.1216
 9277TIP3   OH249245   3.370   5.812  14.577  0.3783 -0.1342 -0.6318
 9277TIP3    H149246   3.314   5.877  14.534  0.3976 -0.0916 -0.5908
 9277TIP3    H249247   3.418   5.861  14.644 -2.5277 -0.9115  2.1243
 9278TIP3   OH249248   0.584   0.194   4.469 -0.1503  0.4271 -0.1292
 9278TIP3    H149249   0.500   0.197   4.422 -0.7136  0.0460  0.8443
 9278TIP3    H249250   0.564   0.228   4.556  0.7113  0.3382  0.1087
 9279TIP3   OH249251   6.669   6.510  14.959 -0.2268 -0.0246  0.0372
 9279TIP3    H149252   6.620   6.487  15.038 -2.7118  1.1841 -1.0896
 9279TIP3    H249253   6.603   6.547  14.900  1.9676  1.1240 -1.7712
 9280TIP3   OH249254   0.391   1.493  14.764 -0.4148 -0.5726  0.1124
 9280TIP3    H149255   0.423   1.546  14.692 -1.3048 -0.3925 -0.1453
 9280TIP3    H249256   0.320   1.543  14.803 -0.8708 -1.3000  0.2377
 9281TIP3   OH249257   1.209   4.803   2.711 -0.1512  0.3648 -0.2359
 9281TIP3    H149258   1.281   4.829   2.768 -1.0618  1.2250  0.5494
 9281TIP3    H249259   1.242   4.817   2.622  1.0697 -0.4149  0.0805
 9282TIP3   OH249260   0.247   6.177   3.984  0.1687  0.4423 -0.0049
 9282TIP3    H149261   0.202   6.209   4.061  0.5584  1.4497 -0.1845
 9282TIP3    H249262   0.186   6.117   3.943 -1.5953  2.8036 -0.9795
 9283TIP3   OH249263   5.627   5.292   0.763  0.2654  0.0994  0.2544
 9283TIP3    H149264   5.556   5.355   0.757  2.0040  2.0786 -0.2497
 9283TIP3    H249265   5.617   5.236   0.686 -1.1332 -0.0871  0.5628
 9284TIP3   OH249266   5.762   5.618   1.116 -0.1201 -0.6839 -0.3536
 9284TIP3    H149267   5.805   5.565   1.050  0.0184  0.8113 -1.4850
 9284TIP3    H249268   5.818   5.695   1.125 -0.5851 -0.4801  0.8969
 9285TIP3   OH249269   4.896   4.827  13.222 -0.0915 -0.0004 -0.7927
 9285TIP3    H149270   4.850   4.911  13.232  0.4093  0.2462 -0.5622
 9285TIP3    H249271   4.980   4.850  13.183  0.8964 -0.1609  1.1768
 9286TIP3   OH249272   3.972   0.891  12.918  0.7546  0.4740  0.4847
 9286TIP3    H149273   3.983   0.986  12.916  0.9824  0.4446  0.0849
 9286TIP3    H249274   3.944   0.871  13.007  1.6129  0.8230  0.8422
 9287TIP3   OH249275   5.049   0.047  16.869 -0.0300  0.6688  0.1934
 9287TIP3    H149276   5.100   0.127  16.884 -0.7523  0.8419  1.8359
 9287TIP3    H249277   4.971   0.076  16.822  0.4716  0.6815 -0.6420
 9288TIP3   OH249278   5.907   2.130  11.220  0.2937  0.4984 -0.5301
 9288TIP3    H149279   5.877   2.221  11.229 -3.4063 -0.5545 -1.5982
 9288TIP3    H249280   5.956   2.130  11.137  2.0867  1.9224  0.4935
 9289TIP3   OH249281   0.306   5.399  15.823 -0.0826 -0.0307  0.0573
 9289TIP3    H149282   0.372   5.376  15.758  0.2840 -0.0997  0.4530
 9289TIP3    H249283   0.340   5.479  15.865  0.1678 -0.5406  0.8472
 9290TIP3   OH249284   4.948   4.460  14.277  0.0412  0.2528  0.2218
 9290TIP3    H149285   4.856   4.485  14.279 -0.0601 -0.1580  1.4810
 9290TIP3    H249286   4.986   4.502  14.355  0.6923 -0.3740  0.2494
 9291TIP3   OH249287   1.146   1.941   4.072 -0.3479  0.3264 -0.5353
 9291TIP3    H149288   1.148   1.936   3.976 -0.4799 -2.5190 -0.4176
 9291TIP3    H249289   1.065   1.990   4.091 -0.4040  0.7818 -1.8553
 9292TIP3   OH249290   1.106   5.071   2.901 -0.2633 -0.1340 -0.0515
 9292TIP3    H149291   1.138   5.089   2.812  2.3880  2.0685  1.2622
 9292TIP3    H249292   1.179   5.027   2.945 -1.5644 -1.2485  1.0390
 9293TIP3   OH249293   2.640   2.199   4.928 -0.2770  0.0408 -0.2990
 9293TIP3    H149294   2.629   2.294   4.931  0.2705  0.2147 -2.6091
 9293TIP3    H249295   2.699   2.179   5.000  0.4783  1.5901 -0.4717
 9294TIP3   OH249296   4.653   2.065   1.672  0.0124 -0.1587 -0.1828
 9294TIP3    H149297   4.632   2.012   1.595 -2.2414  0.2568  0.1079
 9294TIP3    H249298   4.606   2.023   1.744  1.2291  0.0905  0.7723
 9295TIP3   OH249299   2.758   4.959   1.116 -0.3384  0.0276 -0.2804
 9295TIP3    H149300   2.765   4.866   1.137 -2.0261 -0.1523 -0.5222
 9295TIP3    H249301   2.822   4.972   1.046 -1.5894 -1.3817 -1.6933
 9296TIP3   OH249302   3.999   2.705   5.906  0.0550 -0.0237 -0.2312
 9296TIP3    H149303   3.907   2.679   5.898  0.0192 -0.2738  1.0048
 9296TIP3    H249304   3.996   2.801   5.915  0.0552  0.2110 -2.3860
 9297TIP3   OH249305   0.729   0.487   3.929  0.5834 -0.3183 -0.1261
 9297TIP3    H149306   0.804   0.449   3.975 -1.2608 -1.6769  1.8899
 9297TIP3    H249307   0.700   0.418   3.869  0.2841 -0.2144 -0.1028
 9298TIP3   OH249308   0.880   1.764   4.407 -0.5427 -0.2421 -0.0148
 9298TIP3    H149309   0.833   1.746   4.326  0.2610  0.3866 -0.6208
 9298TIP3    H249310   0.954   1.703   4.406 -0.4712 -0.1606  0.1882
 9299TIP3   OH249311   0.480   5.973  14.634  0.2455  0.0469  0.0339
 9299TIP3    H149312   0.493   6.059  14.674  0.1077  0.1028 -0.0424
 9299TIP3    H249313   0.389   5.974  14.605  0.5169  0.2282 -0.8204
 9300TIP3   OH249314   6.747   5.848  15.473 -0.2965 -0.9812 -0.0444
 9300TIP3    H149315   6.680   5.890  15.527 -0.1916 -1.2432  0.2931
 9300TIP3    H249316   6.732   5.882  15.385  0.6001  0.7874  0.4474
 9301TIP3   OH249317   0.778   6.671   4.757  0.2645 -0.6100  0.4781
 9301TIP3    H149318   0.837   6.682   4.683  0.0479  0.1596  0.4134
 9301TIP3    H249319   0.692   6.656   4.718 -0.2596  1.9576  0.5304
 9302TIP3   OH249320   4.062   2.523   0.774  0.8030 -0.2600  0.6428
 9302TIP3    H149321   4.110   2.575   0.709 -0.9596  1.9838  1.0806
 9302TIP3    H249322   4.100   2.549   0.858 -0.0320  0.2735  0.8587
 9303TIP3   OH249323   4.188   5.099   5.659 -0.1150  0.0358 -0.1821
 9303TIP3    H149324   4.225   5.186   5.643 -0.2049  0.4722  1.8281
 9303TIP3    H249325   4.261   5.039   5.644  0.8321  0.7243  1.6098
 9304TIP3   OH249326   1.021   5.389   0.934  0.1985  0.6325  0.5891
 9304TIP3    H149327   1.104   5.398   0.982 -0.9161 -0.6881  2.8260
 9304TIP3    H249328   0.955   5.381   1.002 -1.5690 -0.2083 -1.1946
 9305TIP3   OH249329   2.343   0.242   4.781 -0.6209 -0.1645  0.5382
 9305TIP3    H149330   2.295   0.281   4.708 -1.3043 -0.1599  0.9849
 9305TIP3    H249331   2.378   0.317   4.830 -2.4371 -0.0542  1.7366
 9306TIP3   OH249332   4.725   2.384   3.205  0.1336  0.0877  0.0043
 9306TIP3    H149333   4.631   2.395   3.218  0.1076 -0.3257  0.1976
 9306TIP3    H249334   4.758   2.358   3.292  0.2695 -0.7482 -0.2941
 9307TIP3   OH249335   0.611   3.916   2.053  0.4721  0.4520  0.1054
 9307TIP3    H149336   0.597   3.964   2.134  0.6068  1.2607 -0.3519
 9307TIP3    H249337   0.524   3.897   2.020  0.4153  2.0279 -0.6878
 9308TIP3   OH249338   4.856   2.178   2.888  1.0012  0.2968 -0.2479
 9308TIP3    H149339   4.817   2.129   2.960 -1.1303 -0.1639 -1.6594
 9308TIP3    H249340   4.905   2.112   2.838  1.9887  0.5032  0.4444
 9309TIP3   OH249341   2.900   2.178  13.583 -0.1702 -0.4477 -0.3684
 9309TIP3    H149342   2.831   2.214  13.527 -0.6209  1.0700  1.1251
 9309TIP3    H249343   2.863   2.098  13.620 -0.1871 -0.9911 -1.5422
 9310TIP3   OH249344   4.233   1.337   3.637 -0.1812  0.1221  0.2512
 9310TIP3    H149345   4.241   1.247   3.670  0.9848  0.8069  1.9005
 9310TIP3    H249346   4.144   1.341   3.600 -0.3470 -1.6196  0.4251
 9311TIP3   OH249347   2.591   0.907  15.883 -0.6205 -0.1030 -0.2128
 9311TIP3    H149348   2.580   0.812  15.889 -0.7798 -0.4712 -5.0083
 9311TIP3    H249349   2.674   0.924  15.927 -0.0548 -2.6050 -0.2458
 9312TIP3   OH249350   3.240   5.477  16.979 -0.4041 -0.1804 -0.2888
 9312TIP3    H149351   3.156   5.473  16.932 -1.3770  0.5250  1.3481
 9312TIP3    H249352   3.288   5.547  16.935 -1.4226  0.6660 -0.0899
 9313TIP3   OH249353   4.072   3.146  13.271  0.1923 -0.3209  0.4951
 9313TIP3    H149354   4.112   3.150  13.184 -0.8742  0.8822  0.0531
 9313TIP3    H249355   3.987   3.189  13.261 -0.3273 -0.9825  1.9251
 9314TIP3   OH249356   3.696   1.385  16.937  0.0921 -0.6380  0.0444
 9314TIP3    H149357   3.625   1.325  16.956  0.3320 -1.3338 -1.1897
 9314TIP3    H249358   3.653   1.466  16.911 -0.2437 -0.7691  0.1971
 9315TIP3   OH249359   0.423   0.290  12.674 -0.7014  0.3205  0.1223
 9315TIP3    H149360   0.331   0.315  12.677 -0.6770  1.0077 -2.9106
 9315TIP3    H249361   0.423   0.195  12.664 -1.0688  0.3212  0.1317
 9316TIP3   OH249362   5.123   6.201   4.511  0.2067  0.2317 -0.3842
 9316TIP3    H149363   5.166   6.119   4.533  0.4699  0.4433 -0.0902
 9316TIP3    H249364   5.109   6.197   4.416  1.7382  0.5627 -0.6346
 9317TIP3   OH249365   0.920   2.082  15.523 -0.1183  0.4225  0.3556
 9317TIP3    H149366   0.858   2.015  15.549 -1.0453  0.7172 -1.0115
 9317TIP3    H249367   0.954   2.051  15.439 -1.0504  1.9465 -0.6129
 9318TIP3   OH249368   6.104   2.191  11.652 -0.0026  0.6895  0.0472
 9318TIP3    H149369   6.089   2.146  11.569  1.6914  1.2991 -0.6127
 9318TIP3    H249370   6.018   2.224  11.678 -1.3557 -3.0276  0.6547
 9319TIP3   OH249371   3.871   4.703   0.776 -0.0326  0.0714  0.1923
 9319TIP3    H149372   3.925   4.624   0.767  0.3933  0.3135  0.5897
 9319TIP3    H249373   3.925   4.772   0.737  0.4835  0.5502  1.7214
 9320TIP3   OH249374   5.549   4.340  11.841 -0.4530 -0.4855 -0.3983
 9320TIP3    H149375   5.485   4.378  11.781  0.7934  0.6751 -0.9928
 9320TIP3    H249376   5.609   4.290  11.785 -0.0392 -0.4619  0.0237
 9321TIP3   OH249377   0.724   5.225  15.927  0.2319  0.6120  0.3605
 9321TIP3    H149378   0.701   5.282  16.001 -1.2083  0.3692  0.1135
 9321TIP3    H249379   0.819   5.235  15.918 -0.0478  3.2578  0.0758
 9322TIP3   OH249380   2.210   2.745   3.473 -0.3775 -0.2750  0.4896
 9322TIP3    H149381   2.298   2.765   3.439 -1.1727 -0.6935 -1.9546
 9322TIP3    H249382   2.212   2.651   3.490 -0.5603 -0.4307 -0.3038
 9323TIP3   OH249383   4.797   1.761   6.506 -0.8604 -0.5169  0.2042
 9323TIP3    H149384   4.736   1.817   6.458 -0.3425  0.0258  0.1712
 9323TIP3    H249385   4.855   1.822   6.552  1.0934 -0.9710 -1.5649
 9324TIP3   OH249386   6.560   2.724   6.357  0.2776  0.1406 -0.2400
 9324TIP3    H149387   6.526   2.744   6.270 -1.6528 -0.3579  0.3622
 9324TIP3    H249388   6.641   2.675   6.341 -0.0047  0.1387 -1.7478
 9325TIP3   OH249389   2.217   1.971   0.737  0.0892  0.2729 -0.2249
 9325TIP3    H149390   2.301   2.015   0.730  0.3607 -0.3786 -1.2589
 9325TIP3    H249391   2.157   2.027   0.687  0.1809  0.0810 -0.5505
 9326TIP3   OH249392   6.505   2.794   3.142 -0.3095 -0.3998 -0.3669
 9326TIP3    H149393   6.444   2.861   3.172 -0.6036 -1.2677  0.9634
 9326TIP3    H249394   6.592   2.831   3.161 -0.3997  0.6699 -1.9202
 9327TIP3   OH249395   1.500   5.115   3.492 -0.3968  0.4035  0.1701
 9327TIP3    H149396   1.596   5.118   3.494 -0.4396  3.0333  1.4731
 9327TIP3    H249397   1.477   5.148   3.406 -0.1341  0.8454  0.2645
 9328TIP3   OH249398   5.650   1.826   3.100 -0.5876 -0.0005 -0.5265
 9328TIP3    H149399   5.649   1.856   3.009  0.3891 -1.2062 -0.9489
 9328TIP3    H249400   5.666   1.905   3.151  1.1830  0.3491 -1.5696
 9329TIP3   OH249401   1.629   0.024  13.960 -0.0141 -0.0187  0.2119
 9329TIP3    H149402   1.657   0.076  14.035 -0.3258  0.9431 -0.3299
 9329TIP3    H249403   1.646   0.081  13.884  0.6311 -1.1134 -0.4723
 9330TIP3   OH249404   4.953   4.718  13.482  0.0171  0.2799  0.6275
 9330TIP3    H149405   5.023   4.708  13.546  0.5079  0.4902  0.1233
 9330TIP3    H249406   4.982   4.789  13.425 -0.0069 -0.4962 -0.3687
 9331TIP3   OH249407   0.280   4.967  11.909  0.3838  0.0634  0.0300
 9331TIP3    H149408   0.299   4.990  12.000  3.7378 -0.6561 -0.4389
 9331TIP3    H249409   0.200   5.016  11.888  0.5898  1.6643  2.7977
 9332TIP3   OH249410   3.689   1.937  13.399  0.1920 -0.4543  0.6804
 9332TIP3    H149411   3.669   1.990  13.476 -1.3474 -1.0667  0.7207
 9332TIP3    H249412   3.669   1.993  13.325  1.4493  0.0527  0.7049
 9333TIP3   OH249413   4.912   6.543  15.484  0.9552  1.0359  0.6273
 9333TIP3    H149414   4.880   6.455  15.505 -0.4671  1.5525  0.7185
 9333TIP3    H249415   4.950   6.574  15.566  1.5930  0.4587  0.5564
 9334TIP3   OH249416   1.177   1.166   6.241  0.3266  0.0513  0.4817
 9334TIP3    H149417   1.208   1.246   6.197  0.2520 -0.5067 -0.6027
 9334TIP3    H249418   1.139   1.197   6.323  2.5067  0.9061  1.2109
 9335TIP3   OH249419   2.657   6.679   3.990 -0.3299 -0.2100 -0.9500
 9335TIP3    H149420   2.665   6.760   4.040 -3.3522  0.2585 -1.1854
 9335TIP3    H249421   2.709   6.615   4.040 -0.1986  1.1648  0.7219
 9336TIP3   OH249422   4.925   5.072  13.697 -0.4121 -0.0164 -0.4528
 9336TIP3    H149423   4.975   5.152  13.681 -2.0038  1.6217  2.2308
 9336TIP3    H249424   4.983   5.017  13.749 -0.0358  0.2866 -0.5567
 9337TIP3   OH249425   4.524   2.825  15.739  0.0679  0.4163 -0.3656
 9337TIP3    H149426   4.517   2.898  15.800  1.0035  0.2604 -0.0721
 9337TIP3    H249427   4.456   2.842  15.673 -3.8103 -1.5187  2.9131
 9338TIP3   OH249428   0.864   6.518  15.500 -0.0680 -0.7556 -0.4053
 9338TIP3    H149429   0.909   6.498  15.582 -0.0544  1.0255  0.0568
 9338TIP3    H249430   0.772   6.531  15.526 -0.1962 -0.9235 -0.7812
 9339TIP3   OH249431   4.148   1.513  11.536  0.5095  0.4424  0.3442
 9339TIP3    H149432   4.089   1.572  11.582 -0.5744 -0.6701  0.4080
 9339TIP3    H249433   4.157   1.438  11.595  0.4560 -0.2504 -0.5132
 9340TIP3   OH249434   5.913   0.195   3.879  0.2562  0.2656 -0.2206
 9340TIP3    H149435   5.889   0.218   3.969  1.7522 -0.6678  0.4439
 9340TIP3    H249436   5.925   0.100   3.881  2.4828  0.5097 -0.8483
 9341TIP3   OH249437   6.777   5.487  11.716 -0.1921  0.4575  0.1873
 9341TIP3    H149438   6.760   5.519  11.805  1.3038 -0.1595  0.7108
 9341TIP3    H249439   6.693   5.453  11.687 -0.3866 -0.6675  1.9436
 9342TIP3   OH249440   2.394   5.226   5.811 -0.7010  0.5502 -0.4401
 9342TIP3    H149441   2.321   5.288   5.809 -1.0449  0.1381 -0.8635
 9342TIP3    H249442   2.453   5.255   5.741 -2.0264 -0.9891 -2.2462
 9343TIP3   OH249443   3.102   1.082   3.593 -0.1802  0.2583 -0.9653
 9343TIP3    H149444   3.119   1.068   3.686  0.3726  1.5209 -0.8583
 9343TIP3    H249445   3.012   1.052   3.580  0.5503 -2.1841 -0.5536
 9344TIP3   OH249446   3.420   1.489   2.970 -0.4812  0.4890 -0.7869
 9344TIP3    H149447   3.412   1.472   2.876  0.0034 -1.1278 -0.5558
 9344TIP3    H249448   3.364   1.422   3.011  1.4127 -0.5534  0.1742
 9345TIP3   OH249449   5.723   2.352   2.880  0.2610  0.7887  0.2426
 9345TIP3    H149450   5.629   2.346   2.862 -0.4749 -1.8313  4.1912
 9345TIP3    H249451   5.765   2.330   2.797 -2.6740 -0.7758 -0.9080
 9346TIP3   OH249452   3.642   3.185   1.345 -0.3590  0.0317  0.0870
 9346TIP3    H149453   3.735   3.165   1.345 -0.6656 -1.4871  1.2127
 9346TIP3    H249454   3.625   3.224   1.431 -0.8804 -0.3655  0.1712
 9347TIP3   OH249455   2.055   1.389   5.570 -0.4838  0.1305  0.1203
 9347TIP3    H149456   1.970   1.353   5.596 -0.2498 -1.9674 -1.8434
 9347TIP3    H249457   2.114   1.364   5.640 -0.7950 -1.4725 -0.1618
 9348TIP3   OH249458   2.104   1.092   0.344  0.0495 -0.0954  0.3774
 9348TIP3    H149459   2.170   1.057   0.283 -1.6854 -0.7164 -1.2142
 9348TIP3    H249460   2.152   1.152   0.401  1.9730 -0.5231 -0.7620
 9349TIP3   OH249461   5.823   2.947  17.201  0.3497  0.0710  0.3639
 9349TIP3    H149462   5.743   2.908  17.166 -0.6435  3.3791 -1.2882
 9349TIP3    H249463   5.811   2.945  17.296 -1.3171 -0.2713  0.1669
 9350TIP3   OH249464   3.570   4.877   5.917 -0.6989 -0.8460 -0.2040
 9350TIP3    H149465   3.624   4.798   5.915 -1.4557 -1.4340  1.6837
 9350TIP3    H249466   3.578   4.910   6.006 -1.2141  0.6367 -0.6936
 9351TIP3   OH249467   0.291   5.710  14.560  0.5186 -0.0480  0.4422
 9351TIP3    H149468   0.378   5.671  14.572  0.6422 -0.4275 -1.4974
 9351TIP3    H249469   0.235   5.636  14.539  0.1170  0.4428 -0.2127
 9352TIP3   OH249470   1.632   4.846  11.718  0.2131  0.8085 -0.2706
 9352TIP3    H149471   1.589   4.931  11.718  1.7733  1.6274 -1.2720
 9352TIP3    H249472   1.560   4.783  11.709 -0.8342  2.0912 -1.0959
 9353TIP3   OH249473   3.526   3.643  12.332  0.4049 -0.3668  0.1804
 9353TIP3    H149474   3.477   3.667  12.253  0.3701  0.2164  0.3737
 9353TIP3    H249475   3.548   3.727  12.373 -0.5149 -0.6909  1.3653
 9354TIP3   OH249476   0.172   5.116   3.068 -0.7615 -0.2772  0.0858
 9354TIP3    H149477   0.192   5.090   3.158  1.5469 -2.1431 -0.9151
 9354TIP3    H249478   0.189   5.210   3.066 -2.4007  0.0731  2.0028
 9355TIP3   OH249479   3.679   5.794   1.750  0.4619  0.3906  0.0881
 9355TIP3    H149480   3.669   5.889   1.746 -0.8162  0.2597 -0.0090
 9355TIP3    H249481   3.733   5.772   1.674  2.7361  1.2748  1.4022
 9356TIP3   OH249482   2.073   6.227   1.583  0.1939  0.2145  0.3253
 9356TIP3    H149483   2.078   6.260   1.673  2.0254  1.3605 -0.1629
 9356TIP3    H249484   2.057   6.305   1.530 -0.0212 -0.3355 -0.4163
 9357TIP3   OH249485   0.295   0.291   3.031  0.0075  0.5301 -0.6548
 9357TIP3    H149486   0.385   0.304   3.059  0.5272  1.2329 -2.5606
 9357TIP3    H249487   0.302   0.239   2.951 -1.4187 -1.4418  0.4659
 9358TIP3   OH249488   6.394   5.972  16.802  0.9708 -0.1931 -0.3314
 9358TIP3    H149489   6.424   5.931  16.883  0.7148  0.7015  0.2261
 9358TIP3    H249490   6.450   5.935  16.734  2.4498  0.4819  0.5115
 9359TIP3   OH249491   3.917   3.061  11.482  0.2883  0.2353  0.0376
 9359TIP3    H149492   3.872   3.144  11.495  1.6317  1.2904 -1.8488
 9359TIP3    H249493   3.963   3.045  11.565 -2.2105 -0.0817  1.4281
 9360TIP3   OH249494   5.117   3.621  16.264 -0.2535 -0.4249  0.6621
 9360TIP3    H149495   5.170   3.595  16.189 -1.4665  0.7428 -0.6255
 9360TIP3    H249496   5.124   3.547  16.324  0.4616 -1.5287 -0.7465
 9361TIP3   OH249497   5.511   4.218   0.113  0.3474 -0.0855  0.0939
 9361TIP3    H149498   5.440   4.206   0.177  1.3499 -0.8485  1.0906
 9361TIP3    H249499   5.588   4.183   0.157  1.6350  1.9964 -0.4500
 9362TIP3   OH249500   0.659   2.553  17.155 -0.3475 -0.0795  0.0198
 9362TIP3    H149501   0.732   2.614  17.153  0.4546 -1.0557 -1.2919
 9362TIP3    H249502   0.673   2.500  17.234 -1.0204  1.3755  1.1275
 9363TIP3   OH249503   2.227   3.194  15.892  0.6377  0.2082  0.0343
 9363TIP3    H149504   2.212   3.288  15.881 -0.1204  0.1706  0.7227
 9363TIP3    H249505   2.234   3.182  15.986 -2.7924 -0.9505  0.2061
 9364TIP3   OH249506   0.440   0.851  15.206  0.1282 -0.2798  0.2758
 9364TIP3    H149507   0.485   0.926  15.246 -0.0823 -0.2017  0.3667
 9364TIP3    H249508   0.359   0.887  15.172 -0.7215 -0.7656  1.7361
 9365TIP3   OH249509   6.414   3.017   2.806  0.1059  0.3990  0.1618
 9365TIP3    H149510   6.354   2.948   2.836  1.4194 -0.1329  1.6461
 9365TIP3    H249511   6.499   2.991   2.841  0.6120  2.8295  0.8172
 9366TIP3   OH249512   1.929   1.893   1.860  0.0551  0.1446 -0.7575
 9366TIP3    H149513   1.873   1.841   1.917 -0.1131  1.1722  0.0332
 9366TIP3    H249514   2.013   1.846   1.859  0.4046  0.6827  1.2152
 9367TIP3   OH249515   3.579   1.740  14.142  1.1900 -0.0562 -0.8930
 9367TIP3    H149516   3.606   1.824  14.179 -0.4023 -0.1770  0.6321
 9367TIP3    H249517   3.586   1.679  14.215 -1.6051 -0.3956 -0.8537
 9368TIP3   OH249518   1.033   0.805   1.267  0.6464 -0.4293 -0.5674
 9368TIP3    H149519   1.125   0.828   1.251  0.2051 -0.3326 -3.2744
 9368TIP3    H249520   0.984   0.866   1.213 -1.1965  1.3759  3.0050
 9369TIP3   OH249521   4.271   1.489  14.564  0.5342 -0.3023 -0.1055
 9369TIP3    H149522   4.360   1.463  14.586 -0.2541 -1.5984  1.6594
 9369TIP3    H249523   4.226   1.407  14.545  0.0379  0.4496 -2.3361
 9370TIP3   OH249524   0.037   0.507   2.564  0.4650 -0.1101  0.0331
 9370TIP3    H149525  -0.032   0.572   2.552  1.4577  1.0766  0.7820
 9370TIP3    H249526   0.113   0.543   2.519  1.0929 -0.6515  0.6520
 9371TIP3   OH249527   3.614   5.420  16.044 -0.1181 -0.6276  0.3704
 9371TIP3    H149528   3.549   5.364  16.001  0.1564  0.3873 -1.4488
 9371TIP3    H249529   3.608   5.503  15.996  0.4435  0.4388  2.1228
 9372TIP3   OH249530   0.404   4.671  15.406 -0.4359  0.0448  0.0201
 9372TIP3    H149531   0.366   4.629  15.483 -1.5757  0.0310 -0.5398
 9372TIP3    H249532   0.481   4.716  15.439 -0.4520 -0.6462  1.0238
 9373TIP3   OH249533   3.521   5.921  14.281 -0.0181 -0.2520 -0.5317
 9373TIP3    H149534   3.468   5.899  14.204 -1.7285  2.5387 -0.2573
 9373TIP3    H249535   3.464   5.900  14.356  0.5697 -0.3546 -0.1074
 9374TIP3   OH249536   4.934   4.914  11.016  0.1912  0.4061 -0.3117
 9374TIP3    H149537   5.010   4.910  10.958  0.8259 -0.0631  0.5485
 9374TIP3    H249538   4.874   4.848  10.982  1.1795 -0.8872  0.4398
 9375TIP3   OH249539   2.950   4.983  11.732 -0.0344  0.0586 -0.4218
 9375TIP3    H149540   2.962   4.897  11.692 -0.3216 -0.3334  0.3310
 9375TIP3    H249541   2.931   4.964  11.824 -0.2178  0.9228 -0.2809
 9376TIP3   OH249542   6.251   4.939   4.372  0.2077  0.0417 -0.3286
 9376TIP3    H149543   6.246   4.965   4.464  0.0539 -2.6391  0.4675
 9376TIP3    H249544   6.258   5.022   4.324  3.1079  1.3914  2.2382
 9377TIP3   OH249545   4.505   1.154   5.280  0.3196  0.9045  0.0948
 9377TIP3    H149546   4.502   1.167   5.185  2.2666  1.7322  0.1369
 9377TIP3    H249547   4.588   1.192   5.307  0.4021 -0.5533  1.9689
 9378TIP3   OH249548   1.117   1.465  15.086  0.1043 -0.0276  0.3048
 9378TIP3    H149549   1.107   1.456  14.992  1.4476 -0.4233  0.1964
 9378TIP3    H249550   1.149   1.380  15.115  0.6949  0.4205  0.9821
 9379TIP3   OH249551   1.132   4.597  13.504 -0.1409  0.5784  0.1912
 9379TIP3    H149552   1.081   4.519  13.482 -1.4074  0.8727  1.9555
 9379TIP3    H249553   1.178   4.619  13.423 -0.4002 -1.5113 -0.5607
 9380TIP3   OH249554   2.272   3.304   3.487 -0.0302 -0.0378 -0.7764
 9380TIP3    H149555   2.284   3.325   3.394  1.4254 -0.5435 -0.7147
 9380TIP3    H249556   2.292   3.211   3.493  0.7069  0.1736  0.1786
 9381TIP3   OH249557   6.385   2.167   3.246  0.3433 -0.0540 -0.4387
 9381TIP3    H149558   6.367   2.107   3.174  1.4506 -1.0709  0.1278
 9381TIP3    H249559   6.458   2.127   3.294 -0.4493  0.5687  1.3098
 9382TIP3   OH249560   0.373   5.619  16.674  0.7788 -0.3592 -0.4733
 9382TIP3    H149561   0.429   5.672  16.618  1.3607  0.5519  0.9473
 9382TIP3    H249562   0.429   5.547  16.702  0.3626 -1.0519 -1.3745
 9383TIP3   OH249563   3.066   2.571   0.395 -0.2664  0.3070  0.2105
 9383TIP3    H149564   3.031   2.658   0.381  2.0113  1.4800  1.4067
 9383TIP3    H249565   3.103   2.545   0.311 -1.4462  0.2388 -0.2921
 9384TIP3   OH249566   6.053   0.591   0.620  0.1334  0.4487 -0.2115
 9384TIP3    H149567   6.030   0.677   0.656 -0.4812 -0.6848  2.2128
 9384TIP3    H249568   5.997   0.529   0.667  0.4614 -1.2761 -2.0308
 9385TIP3   OH249569   3.730   4.733   4.998 -0.0613  0.4820 -0.7721
 9385TIP3    H149570   3.821   4.717   5.024 -0.0489  0.6052 -0.7418
 9385TIP3    H249571   3.709   4.661   4.939 -0.2370 -0.0721 -0.0480
 9386TIP3   OH249572   4.743   4.736   4.734 -0.6400 -0.0193  0.2677
 9386TIP3    H149573   4.666   4.782   4.699 -0.8261 -1.2694 -1.0049
 9386TIP3    H249574   4.736   4.747   4.829 -1.9920  0.5052  0.1271
 9387TIP3   OH249575   5.054   2.326  16.107  0.1938 -0.0947  0.0206
 9387TIP3    H149576   5.056   2.303  16.014  0.5083  2.2168 -0.5823
 9387TIP3    H249577   4.975   2.283  16.141 -0.5019 -0.0903 -1.5535
 9388TIP3   OH249578   6.121   6.470  14.325 -0.0239 -0.5328  0.3133
 9388TIP3    H149579   6.119   6.493  14.418 -0.1599 -2.9966  0.9455
 9388TIP3    H249580   6.030   6.456  14.301  0.0624 -0.5131 -0.0365
 9389TIP3   OH249581   3.776   6.755  12.612 -0.0233 -0.1941  0.1738
 9389TIP3    H149582   3.810   6.821  12.672 -0.0528  1.2854 -1.3818
 9389TIP3    H249583   3.749   6.682  12.668 -2.2502  2.0814  2.1645
 9390TIP3   OH249584   2.135   2.871   0.222 -0.0100  0.3774  0.1193
 9390TIP3    H149585   2.137   2.777   0.209  0.1515  0.2895  0.7903
 9390TIP3    H249586   2.225   2.896   0.241  0.2075  0.8738 -1.4680
 9391TIP3   OH249587   2.095   1.489   0.785 -0.0982 -0.4546 -0.6625
 9391TIP3    H149588   2.001   1.504   0.780 -0.2912 -0.8095  1.4335
 9391TIP3    H249589   2.134   1.560   0.733 -1.4839  0.0641 -1.0010
 9392TIP3   OH249590   5.116   4.377   0.063  0.7088  0.0943  0.3293
 9392TIP3    H149591   5.196   4.410   0.104  0.0505  1.5233  0.4762
 9392TIP3    H249592   5.118   4.413  -0.026  0.2487  0.0937  0.3178
 9393TIP3   OH249593   3.459   3.705  16.380 -0.1636  0.4042  0.0842
 9393TIP3    H149594   3.505   3.639  16.328  2.9168  0.9889  1.9180
 9393TIP3    H249595   3.469   3.786  16.330 -0.4348  0.2484 -0.2219
 9394TIP3   OH249596   1.114   6.486   5.527  0.0046 -0.1140 -0.0009
 9394TIP3    H149597   1.125   6.458   5.436 -0.1478  1.7712 -0.6257
 9394TIP3    H249598   1.083   6.577   5.521  0.5072  0.2185  1.9380
 9395TIP3   OH249599   5.944   1.216  12.570 -0.3330  0.3175  0.3465
 9395TIP3    H149600   6.035   1.243  12.583 -0.4213 -0.4302  2.6775
 9395TIP3    H249601   5.895   1.266  12.635 -1.3105 -0.7544  0.4393
 9396TIP3   OH249602   0.099   1.199  12.622 -0.5323  0.0336 -0.0359
 9396TIP3    H149603   0.159   1.273  12.628 -0.6764  0.1197  0.3539
 9396TIP3    H249604   0.026   1.222  12.679 -1.1092  0.0930 -0.7812
 9397TIP3   OH249605   4.284   0.636  14.721  0.2627  0.1554 -0.0410
 9397TIP3    H149606   4.280   0.614  14.628 -1.4203 -0.0613  0.0641
 9397TIP3    H249607   4.324   0.723  14.724 -1.5841  1.0524 -1.1064
 9398TIP3   OH249608   0.186   6.258  10.255  0.0198  0.6738 -0.4930
 9398TIP3    H149609   0.225   6.346  10.261  0.3555  0.5526 -0.8884
 9398TIP3    H249610   0.093   6.275  10.244 -0.2024  0.9593  1.4707
 9399TIP3   OH249611   6.472   2.547   4.598  0.2037  0.1706  0.3368
 9399TIP3    H149612   6.452   2.591   4.515  0.6793 -0.0754  0.0910
 9399TIP3    H249613   6.566   2.563   4.612 -0.3111  1.9711  1.8682
 9400TIP3   OH249614   1.225   3.425  12.750  0.6994  0.4097  0.2111
 9400TIP3    H149615   1.266   3.464  12.674  3.6526 -2.0216  0.4595
 9400TIP3    H249616   1.175   3.496  12.790 -0.3705  1.8940 -3.5594
 9401TIP3   OH249617   2.523   0.621   1.399 -0.2316  0.5224 -0.1514
 9401TIP3    H149618   2.614   0.632   1.372 -0.1802  0.6608  0.0714
 9401TIP3    H249619   2.519   0.532   1.433 -0.4063  0.1883 -1.0330
 9402TIP3   OH249620   4.053   1.831  13.443  0.1592  0.3075 -0.3507
 9402TIP3    H149621   4.124   1.894  13.433  1.0984 -0.7424 -0.3538
 9402TIP3    H249622   4.012   1.826  13.356 -0.1244  1.1553 -0.2639
 9403TIP3   OH249623   4.615   3.274  11.241  0.3191 -0.2079  0.1068
 9403TIP3    H149624   4.552   3.297  11.310  0.5617 -0.2429  0.3373
 9403TIP3    H249625   4.591   3.330  11.167  0.5904  0.4260  0.4997
 9404TIP3   OH249626   6.311   6.693  10.645  0.2867  0.1417 -0.1653
 9404TIP3    H149627   6.361   6.711  10.724  1.4344  1.6453 -1.2088
 9404TIP3    H249628   6.371   6.644  10.588 -0.5301 -0.9388 -0.1246
 9405TIP3   OH249629   6.757   0.216  13.699 -0.1386 -0.0539  0.1285
 9405TIP3    H149630   6.819   0.159  13.744 -1.7854 -2.4921 -0.6044
 9405TIP3    H249631   6.671   0.175  13.714 -1.3278  2.0624 -0.6888
 9406TIP3   OH249632   0.178   0.944   2.345  0.1022 -0.6756 -0.0310
 9406TIP3    H149633   0.139   0.867   2.305 -1.9931  0.3831 -0.1211
 9406TIP3    H249634   0.230   0.985   2.276 -1.4370 -0.2457 -0.9500
 9407TIP3   OH249635   0.416   4.555  11.226 -0.6395 -0.1465  0.6481
 9407TIP3    H149636   0.393   4.624  11.288  0.6917  0.1851  0.7782
 9407TIP3    H249637   0.418   4.475  11.279 -0.3381  0.0013  0.8559
 9408TIP3   OH249638   5.621   5.806   3.551  0.1391 -0.0420 -0.4068
 9408TIP3    H149639   5.671   5.832   3.628  1.3374  2.6023 -2.0005
 9408TIP3    H249640   5.686   5.797   3.481 -0.9614 -2.0160 -1.2222
 9409TIP3   OH249641   6.584   6.168   0.683  0.7329  0.3965 -0.3013
 9409TIP3    H149642   6.489   6.179   0.684  0.5676 -0.7541 -1.5287
 9409TIP3    H249643   6.611   6.208   0.600  1.1762 -0.3672 -0.5212
 9410TIP3   OH249644   2.413   4.541  11.574  0.7123 -0.2716  0.3282
 9410TIP3    H149645   2.414   4.455  11.531  1.6712  0.7795 -1.8116
 9410TIP3    H249646   2.450   4.523  11.661  0.0051 -2.1962  0.2682
 9411TIP3   OH249647   3.286   3.077  16.876 -0.2959  0.4030 -0.8330
 9411TIP3    H149648   3.365   3.119  16.843  0.2554 -1.0013 -1.3428
 9411TIP3    H249649   3.236   3.056  16.797 -0.4927 -0.0427 -0.5922
 9412TIP3   OH249650   6.559   2.709  16.993 -0.8557 -0.3286 -0.2276
 9412TIP3    H149651   6.549   2.783  17.052  0.3151  1.0278 -1.6932
 9412TIP3    H249652   6.621   2.651  17.038 -0.7783  0.1893  0.3398
 9413TIP3   OH249653   4.089   1.548   1.438  0.1970 -0.1649 -0.0758
 9413TIP3    H149654   4.100   1.586   1.525  0.2725 -0.2057 -0.0670
 9413TIP3    H249655   4.024   1.603   1.395 -0.1993 -0.4321  0.1748
 9414TIP3   OH249656   1.952   4.158  17.071 -0.9254  0.3952 -0.0151
 9414TIP3    H149657   1.993   4.197  17.148 -1.4080 -1.2892  1.1172
 9414TIP3    H249658   1.945   4.230  17.008 -0.6343  1.8128  1.5484
 9415TIP3   OH249659   4.940   3.017   3.052  0.4341 -0.1862  0.7522
 9415TIP3    H149660   4.880   2.954   3.013 -0.4370  0.4810  1.0097
 9415TIP3    H249661   4.888   3.097   3.063  1.4134  0.4487  0.8144
 9416TIP3   OH249662   2.627   5.745  16.557  0.4028 -0.6508 -0.1244
 9416TIP3    H149663   2.717   5.770  16.536  0.1519  0.1975 -0.2110
 9416TIP3    H249664   2.620   5.654  16.529  1.5491 -1.0446  0.8716
 9417TIP3   OH249665   1.480   1.538  12.939  0.3463 -0.4711 -0.1612
 9417TIP3    H149666   1.392   1.521  12.905 -0.5221  0.8272  1.3971
 9417TIP3    H249667   1.535   1.475  12.893 -1.8627 -3.4360  1.0496
 9418TIP3   OH249668   3.344   3.724   4.011  0.2008  0.3739  0.0927
 9418TIP3    H149669   3.360   3.815   4.036  0.8821  0.1476  0.5277
 9418TIP3    H249670   3.428   3.695   3.974  0.4595 -0.5088  1.3267
 9419TIP3   OH249671   2.621   5.851   5.546 -0.1893  0.5227  0.0748
 9419TIP3    H149672   2.579   5.937   5.554  0.0755  0.5380  1.5908
 9419TIP3    H249673   2.624   5.819   5.636 -2.3722 -2.0639 -0.7272
 9420TIP3   OH249674   1.928   3.236   2.838  0.4729 -0.0820  0.5852
 9420TIP3    H149675   1.862   3.185   2.886  3.0950 -0.2782  4.1832
 9420TIP3    H249676   1.954   3.179   2.765 -1.3403 -1.1169  0.7145
 9421TIP3   OH249677   1.777   0.675   1.644 -0.0297  0.0513  0.9627
 9421TIP3    H149678   1.682   0.673   1.642 -0.0322 -0.1251  1.2377
 9421TIP3    H249679   1.800   0.765   1.621 -0.2541  0.0300  0.6528
 9422TIP3   OH249680   0.297   0.765   2.067  0.4583  0.2541 -0.4165
 9422TIP3    H149681   0.233   0.695   2.083  0.9650  0.3050  2.0243
 9422TIP3    H249682   0.248   0.832   2.018 -1.3392  0.2486  1.3283
 9423TIP3   OH249683   3.979   1.508  13.376 -0.1646 -0.2996  0.0082
 9423TIP3    H149684   3.971   1.542  13.288 -0.5976  0.5318  0.3636
 9423TIP3    H249685   4.040   1.567  13.420 -0.0020 -0.6690  0.2843
 9424TIP3   OH249686   2.884   2.297   1.981 -0.4999 -0.1973 -0.2759
 9424TIP3    H149687   2.872   2.216   2.032 -0.0505 -0.4609 -0.5888
 9424TIP3    H249688   2.880   2.269   1.890  0.5773 -0.0040 -0.3868
 9425TIP3   OH249689   2.414   1.484  15.839  0.1997 -0.7081  0.1141
 9425TIP3    H149690   2.445   1.406  15.885  0.0985 -1.6671 -1.3842
 9425TIP3    H249691   2.493   1.528  15.809  0.2535 -0.3636  0.7765
 9426TIP3   OH249692   1.119   1.316   4.210  0.3982 -0.5264 -0.0317
 9426TIP3    H149693   1.044   1.317   4.151 -0.8038 -0.1724  1.4711
 9426TIP3    H249694   1.097   1.249   4.275  1.4960 -0.5914  0.2776
 9427TIP3   OH249695   0.682   0.656   0.003 -0.2073  0.0995 -0.0933
 9427TIP3    H149696   0.773   0.686   0.002 -0.4717  0.9454  0.3319
 9427TIP3    H249697   0.646   0.692   0.084 -0.5218 -1.4675  0.4883
 9428TIP3   OH249698   0.861   4.806  14.891 -0.4249  0.2909 -0.6587
 9428TIP3    H149699   0.946   4.836  14.924 -0.8882  1.0802 -0.1754
 9428TIP3    H249700   0.842   4.728  14.943 -0.6535  0.9189  0.2181
 9429TIP3   OH249701   2.791   1.568   2.410  0.0638 -0.3409 -0.2591
 9429TIP3    H149702   2.749   1.651   2.386  0.5764  0.9263  3.0026
 9429TIP3    H249703   2.727   1.523   2.464  1.3851 -0.1068  1.5613
 9430TIP3   OH249704   5.087   1.048  13.373  0.5619 -0.3304 -0.4733
 9430TIP3    H149705   5.071   0.992  13.297  1.3326  0.3618 -1.1671
 9430TIP3    H249706   5.098   1.136  13.335  1.4300 -0.0627  0.3878
 9431TIP3   OH249707   1.687   6.502   0.435  0.1530 -0.1905  0.2123
 9431TIP3    H149708   1.712   6.562   0.365 -1.5612  2.8518  2.0675
 9431TIP3    H249709   1.767   6.491   0.487  0.7107 -0.2345 -0.6426
 9432TIP3   OH249710   2.968   1.671   0.423 -0.5634  0.1581 -0.1478
 9432TIP3    H149711   2.980   1.580   0.448  1.3412 -0.2221 -2.1839
 9432TIP3    H249712   2.930   1.667   0.335 -0.8124  1.3108 -0.1024
 9433TIP3   OH249713   6.514   2.211  14.205  0.1694  0.3257 -0.6920
 9433TIP3    H149714   6.481   2.297  14.230 -0.5472  0.1484 -0.9812
 9433TIP3    H249715   6.484   2.199  14.114  1.3502  0.2965 -1.0877
 9434TIP3   OH249716   1.273   4.607  15.350 -0.4445 -0.5115 -0.4033
 9434TIP3    H149717   1.331   4.671  15.391  0.4398 -1.9063  0.5427
 9434TIP3    H249718   1.213   4.581  15.420 -0.9544 -0.5530 -0.8520
 9435TIP3   OH249719   3.049   0.896  16.788  0.0992  0.2086 -0.8632
 9435TIP3    H149720   2.970   0.878  16.839  0.3478  0.5141 -0.3741
 9435TIP3    H249721   3.031   0.980  16.745  1.3148  1.7415  1.5552
 9436TIP3   OH249722   3.511   5.411  12.116  0.4943  0.6722 -0.3920
 9436TIP3    H149723   3.586   5.354  12.136  1.2138  1.0361 -1.9801
 9436TIP3    H249724   3.530   5.493  12.162 -0.0330  0.0027  1.0419
 9437TIP3   OH249725   2.932   0.992  10.999 -0.6529 -0.0431  0.8529
 9437TIP3    H149726   2.998   1.027  10.939  0.0964 -0.4412  1.4372
 9437TIP3    H249727   2.872   0.944  10.943 -1.0680  1.2416  0.1820
 9438TIP3   OH249728   4.043   3.287  15.583 -0.3055 -0.6032 -0.1050
 9438TIP3    H149729   4.136   3.309  15.582 -0.5770  0.5883  0.1723
 9438TIP3    H249730   4.019   3.290  15.676 -0.9794  0.6499 -0.3145
 9439TIP3   OH249731   3.727   0.169  12.162 -0.1802 -0.3936  0.1199
 9439TIP3    H149732   3.705   0.248  12.212  1.3518 -0.0267  0.2413
 9439TIP3    H249733   3.687   0.098  12.211 -0.9385  0.2327  0.4248
 9440TIP3   OH249734   3.557   1.702  11.683  0.5476 -0.0835 -0.3189
 9440TIP3    H149735   3.553   1.645  11.759  0.3348 -0.5934 -0.7104
 9440TIP3    H249736   3.633   1.672  11.634 -0.7207 -1.3507 -1.5621
 9441TIP3   OH249737   2.448   3.853   3.750  0.2086  0.1229 -0.2890
 9441TIP3    H149738   2.537   3.856   3.783 -0.0123  0.8069  0.2525
 9441TIP3    H249739   2.415   3.767   3.776  0.1139  0.5590  1.0689
 9442TIP3   OH249740   6.325   0.732  12.590  0.3516  0.3241  0.0692
 9442TIP3    H149741   6.268   0.752  12.664  1.5752  0.4053  0.9917
 9442TIP3    H249742   6.379   0.810  12.580  1.3391 -0.3458  0.1545
 9443TIP3   OH249743   3.952   2.136   1.403  1.0464  0.0168  0.4715
 9443TIP3    H149744   3.906   2.217   1.384  0.2562  0.0563  2.4038
 9443TIP3    H249745   4.037   2.163   1.438  0.7843  0.0322  1.1124
 9444TIP3   OH249746   4.212   4.823   3.780 -0.0512  0.1211 -0.1742
 9444TIP3    H149747   4.158   4.746   3.761  0.7648 -0.8930  1.4892
 9444TIP3    H249748   4.150   4.896   3.782 -0.8976 -0.5551 -1.3588
 9445TIP3   OH249749   0.527   0.253   2.853  0.1296  0.4166  0.1001
 9445TIP3    H149750   0.463   0.194   2.815  1.8207 -1.3803 -0.0672
 9445TIP3    H249751   0.511   0.337   2.811 -1.4440 -0.2572 -0.6724
 9446TIP3   OH249752   1.520   3.965  11.976 -1.3898  0.2577  0.2667
 9446TIP3    H149753   1.589   3.918  11.928 -0.7723 -0.1011  1.4750
 9446TIP3    H249754   1.462   3.895  12.007 -0.6292  0.3004  1.8200
 9447TIP3   OH249755   5.856   1.631  15.577  0.0013 -0.7217  0.1757
 9447TIP3    H149756   5.902   1.596  15.501  0.5380 -0.5172  0.4077
 9447TIP3    H249757   5.763   1.622  15.555  0.1526 -0.9755 -0.3589
 9448TIP3   OH249758   0.305   5.745  16.930  0.5719  0.3026 -1.0834
 9448TIP3    H149759   0.333   5.701  16.849  1.3541 -0.0714 -0.6191
 9448TIP3    H249760   0.338   5.834  16.921  2.9182 -0.4240 -0.0594
 9449TIP3   OH249761   4.483   1.733  12.213  0.3027 -0.0898 -0.0768
 9449TIP3    H149762   4.468   1.684  12.293 -0.1078 -0.6960 -0.5132
 9449TIP3    H249763   4.435   1.684  12.146 -1.3670  1.7127 -0.2459
 9450TIP3   OH249764   2.230   0.827   3.454  0.5346 -0.7285  0.3639
 9450TIP3    H149765   2.272   0.886   3.391 -0.1850 -1.7698 -1.1427
 9450TIP3    H249766   2.289   0.752   3.460 -0.8246 -1.9829 -1.3994
 9451TIP3   OH249767   1.191   6.286  10.883 -0.2535 -0.0566  0.3096
 9451TIP3    H149768   1.276   6.318  10.852 -0.1768  0.8506  1.4109
 9451TIP3    H249769   1.145   6.365  10.911 -1.6678 -0.4734 -0.7318
 9452TIP3   OH249770   0.007   0.361   4.458  0.6422 -0.5738  0.8368
 9452TIP3    H149771  -0.064   0.353   4.394  0.6377 -0.8761  0.8786
 9452TIP3    H249772  -0.036   0.344   4.543  0.8058 -0.9832  0.8409
 9453TIP3   OH249773   4.486   5.383   4.790 -0.0642 -0.1270  0.2734
 9453TIP3    H149774   4.483   5.295   4.826  0.3210  0.4190  1.6621
 9453TIP3    H249775   4.576   5.393   4.760 -0.6622 -0.9786 -1.9041
 9454TIP3   OH249776   5.357   6.543  12.380 -0.7486  0.9277 -0.0201
 9454TIP3    H149777   5.327   6.633  12.382 -1.0132  0.8371  0.0457
 9454TIP3    H249778   5.279   6.491  12.359 -0.2989  0.8578 -1.6173
 9455TIP3   OH249779   6.457   2.543  15.632  0.0968 -0.5446  0.0812
 9455TIP3    H149780   6.499   2.627  15.610  0.9362 -1.2483 -1.0412
 9455TIP3    H249781   6.376   2.568  15.676  0.4579  0.8678 -0.0260
 9456TIP3   OH249782   5.646   0.247  13.905 -0.2958  0.0947  0.3136
 9456TIP3    H149783   5.663   0.153  13.910 -0.6308 -0.1201 -1.9174
 9456TIP3    H249784   5.553   0.256  13.929 -0.2972 -0.1647  0.4093
 9457TIP3   OH249785   1.240   5.832  14.862 -0.7540 -0.1636  0.3075
 9457TIP3    H149786   1.307   5.805  14.926  0.2592  0.1753 -0.5904
 9457TIP3    H249787   1.162   5.847  14.915  0.1308  0.3571  1.5109
 9458TIP3   OH249788   2.338   3.784  14.245 -0.0522  0.6288  0.2073
 9458TIP3    H149789   2.358   3.783  14.339  0.0700 -1.6052  0.1816
 9458TIP3    H249790   2.415   3.745  14.204 -0.1461  1.5169 -0.8216
 9459TIP3   OH249791   2.854   3.644  11.853  0.3628  0.0901 -0.0974
 9459TIP3    H149792   2.828   3.663  11.763  0.3368 -0.6788 -0.2583
 9459TIP3    H249793   2.949   3.629  11.848  0.1583 -1.2357 -0.2258
 9460TIP3   OH249794   6.538   3.835   3.234 -0.0139 -0.0601 -0.4067
 9460TIP3    H149795   6.478   3.839   3.159  1.6751 -1.5985 -1.9071
 9460TIP3    H249796   6.484   3.856   3.310 -1.8755  1.0851 -2.0134
 9461TIP3   OH249797   6.128   1.874  16.776 -0.1441 -0.4297 -0.3909
 9461TIP3    H149798   6.217   1.869  16.740 -0.0861 -0.9146 -0.1743
 9461TIP3    H249799   6.084   1.937  16.718  1.3927  2.7505  1.7397
 9462TIP3   OH249800   2.732   4.564   1.855 -0.2032 -0.3318  0.7692
 9462TIP3    H149801   2.681   4.548   1.776  0.7924  1.5357 -0.2603
 9462TIP3    H249802   2.805   4.502   1.850  0.8827  1.0628 -0.6984
 9463TIP3   OH249803   4.941   5.832   5.030  0.3688  0.1533 -0.8343
 9463TIP3    H149804   4.868   5.786   4.990  0.1407 -0.1768 -0.0534
 9463TIP3    H249805   4.987   5.874   4.957  1.3507 -2.3826 -1.7219
 9464TIP3   OH249806   1.259   2.676  14.440  0.6833  0.0804  0.2935
 9464TIP3    H149807   1.240   2.590  14.404  2.8926 -0.4281  0.2572
 9464TIP3    H249808   1.292   2.727  14.366  1.8411  0.1358  0.8305
 9465TIP3   OH249809   1.793   2.990   4.536 -0.1146 -0.1780 -0.2935
 9465TIP3    H149810   1.812   2.949   4.451  2.0768  0.1531 -0.0094
 9465TIP3    H249811   1.757   3.076   4.514 -0.1491 -0.3460 -0.9052
 9466TIP3   OH249812   3.227   2.621  15.489 -0.1418 -0.1797 -0.1635
 9466TIP3    H149813   3.257   2.651  15.575 -0.8123 -0.4732  0.1744
 9466TIP3    H249814   3.285   2.665  15.427 -1.4695  2.3307  0.2897
 9467TIP3   OH249815   3.065   3.851   2.794  0.3826 -0.1662  0.1583
 9467TIP3    H149816   2.970   3.852   2.800  0.3850 -1.4179  0.4680
 9467TIP3    H249817   3.095   3.834   2.883  0.8525 -1.2993 -0.2018
 9468TIP3   OH249818   1.661   6.421   4.218 -0.1446 -0.7597 -0.0518
 9468TIP3    H149819   1.670   6.364   4.142  2.9319 -1.0887  0.5149
 9468TIP3    H249820   1.702   6.503   4.193 -0.7040 -0.2617  0.6393
 9469TIP3   OH249821   5.715   5.136   2.853 -0.3670 -0.5968  0.3227
 9469TIP3    H149822   5.780   5.207   2.859 -0.4688 -0.4820  0.0871
 9469TIP3    H249823   5.766   5.056   2.866 -0.5364 -0.3881  2.4295
 9470TIP3   OH249824   2.232   1.942   3.194  0.0629 -0.7050  0.5817
 9470TIP3    H149825   2.212   2.035   3.209  0.5978 -0.7634  1.6788
 9470TIP3    H249826   2.208   1.899   3.276  1.1512 -1.3301  0.5715
 9471TIP3   OH249827   3.000   0.201   0.775  0.3780  0.4590 -0.4749
 9471TIP3    H149828   2.927   0.151   0.739 -0.4633  1.6478 -0.4648
 9471TIP3    H249829   2.972   0.292   0.769  1.4336  0.8691  0.4989
 9472TIP3   OH249830   3.051   1.432  11.986 -0.2545  0.5116 -0.1219
 9472TIP3    H149831   3.112   1.412  12.058  2.7588 -0.1620 -2.7528
 9472TIP3    H249832   2.980   1.368  11.997  0.9390 -0.6135  1.3364
 9473TIP3   OH249833   3.654   3.434   0.384  0.2913 -0.1404 -0.0798
 9473TIP3    H149834   3.710   3.505   0.353 -1.0847  0.6232 -0.8583
 9473TIP3    H249835   3.612   3.470   0.462 -0.5124 -0.0425 -0.5540
 9474TIP3   OH249836   4.943   3.309   2.739  0.3332  0.2645  0.1326
 9474TIP3    H149837   5.021   3.328   2.791  0.8192  0.8251 -0.7840
 9474TIP3    H249838   4.918   3.394   2.702 -0.1231 -0.0943 -0.3889
 9475TIP3   OH249839   3.956   5.199  15.565  0.0324  0.2122  0.1791
 9475TIP3    H149840   3.950   5.118  15.514 -2.9168 -0.4236  1.4384
 9475TIP3    H249841   4.038   5.191  15.613 -0.0166 -1.8402 -0.0363
 9476TIP3   OH249842   1.248   3.847   5.815 -0.2522  0.0617 -0.3941
 9476TIP3    H149843   1.209   3.851   5.728  0.0529  0.7806 -0.5021
 9476TIP3    H249844   1.223   3.929   5.857  0.2138  0.0434 -0.0721
 9477TIP3   OH249845   3.258   3.759   1.379  0.0107 -0.2965 -0.0475
 9477TIP3    H149846   3.173   3.752   1.422 -0.2913 -1.7081 -0.8204
 9477TIP3    H249847   3.322   3.738   1.447 -0.2463  0.7670  0.5323
 9478TIP3   OH249848   5.258   1.419   4.452  0.1262  0.0142 -0.5966
 9478TIP3    H149849   5.208   1.459   4.524 -2.2148  0.3311 -2.3328
 9478TIP3    H249850   5.269   1.327   4.478 -2.2301 -0.2884 -0.5885
 9479TIP3   OH249851   5.468   5.091  16.385 -0.7984 -0.2817  0.0129
 9479TIP3    H149852   5.402   5.077  16.453 -1.0378 -1.3744 -0.4387
 9479TIP3    H249853   5.505   5.178  16.405 -0.1936 -0.9853  2.1065
 9480TIP3   OH249854   3.626   1.099  15.256  0.1377 -0.2101  0.8148
 9480TIP3    H149855   3.715   1.064  15.245  0.3774  0.3130  1.0863
 9480TIP3    H249856   3.599   1.122  15.167 -0.2201 -1.5500  0.5599
 9481TIP3   OH249857   0.661   3.601   3.677  0.1675  0.1140  0.4521
 9481TIP3    H149858   0.742   3.550   3.679  0.5479  0.7227  0.6620
 9481TIP3    H249859   0.608   3.565   3.747  0.7469  0.5085  1.1024
 9482TIP3   OH249860   4.278   0.958  15.132 -0.7200  0.1323 -0.0422
 9482TIP3    H149861   4.274   0.996  15.219  0.2237 -0.4424  0.2513
 9482TIP3    H249862   4.321   1.025  15.078  0.7490 -0.4272  0.4267
 9483TIP3   OH249863   3.961   3.536  15.823 -0.2717  0.3869 -0.4394
 9483TIP3    H149864   4.012   3.612  15.851  0.1139  0.0219 -0.1472
 9483TIP3    H249865   3.982   3.468  15.887 -1.9283  0.5505  0.2909
 9484TIP3   OH249866   5.148   5.775   4.716 -0.4938 -0.2984 -0.1210
 9484TIP3    H149867   5.059   5.793   4.745 -0.4999 -0.4908 -0.0210
 9484TIP3    H249868   5.138   5.728   4.633 -0.5230 -1.8980  0.7689
 9485TIP3   OH249869   3.033   3.249  13.841  0.1467 -0.2933  0.1144
 9485TIP3    H149870   3.000   3.180  13.784 -1.0755 -0.6615  1.2345
 9485TIP3    H249871   2.961   3.312  13.848  0.3205 -0.1895  1.1446
 9486TIP3   OH249872   2.495   6.487  10.917 -0.5842 -0.2303 -0.1810
 9486TIP3    H149873   2.575   6.501  10.969 -0.9413  3.0970 -0.4781
 9486TIP3    H249874   2.440   6.431  10.973  1.0832 -0.8642  0.8738
 9487TIP3   OH249875   1.149   0.801   2.126 -0.1120 -0.1902  0.0462
 9487TIP3    H149876   1.057   0.826   2.118  0.3776  2.2272  1.4300
 9487TIP3    H249877   1.179   0.790   2.036 -1.7352 -0.9789 -0.4112
 9488TIP3   OH249878   4.098   5.308   4.121 -0.2260  0.9825  0.7383
 9488TIP3    H149879   4.153   5.343   4.052  0.5554 -2.5520 -0.5478
 9488TIP3    H249880   4.009   5.335   4.098  0.1198  0.4365 -1.2762
 9489TIP3   OH249881   2.896   3.811  16.104 -0.5443  0.0417  0.3263
 9489TIP3    H149882   2.840   3.777  16.034 -3.1471  2.0591  1.3130
 9489TIP3    H249883   2.865   3.767  16.183 -1.8567  2.3309  1.1259
 9490TIP3   OH249884   2.150   3.293   5.612 -0.1161  0.5007  0.9282
 9490TIP3    H149885   2.224   3.353   5.621  1.2447 -1.0114  0.1745
 9490TIP3    H249886   2.158   3.234   5.688 -1.0724  0.8636  1.3198
 9491TIP3   OH249887   1.463   2.581   6.390 -0.5484  0.1529 -0.5643
 9491TIP3    H149888   1.472   2.506   6.448  1.3854 -0.5110 -1.6415
 9491TIP3    H249889   1.429   2.545   6.308  0.7271  0.3724 -1.2052
 9492TIP3   OH249890   0.246   0.005  10.864  0.7924 -0.8035  0.3019
 9492TIP3    H149891   0.220  -0.073  10.816 -1.8307  0.1880  0.0142
 9492TIP3    H249892   0.341   0.008  10.856  0.7452 -2.8579 -1.3880
 9493TIP3   OH249893   5.633   3.348   6.704 -0.3644 -0.1391 -0.0155
 9493TIP3    H149894   5.562   3.411   6.692 -1.7410 -2.0181 -2.1192
 9493TIP3    H249895   5.605   3.295   6.779  0.7563  1.6232  1.7016
 9494TIP3   OH249896   4.298   2.747  11.816  0.1781  0.4475 -0.6433
 9494TIP3    H149897   4.217   2.746  11.764  0.2531 -2.4718 -0.7646
 9494TIP3    H249898   4.282   2.686  11.887  2.6385 -1.0274 -1.2866
 9495TIP3   OH249899   6.703   5.235  13.736 -0.0189  0.2154 -0.2360
 9495TIP3    H149900   6.633   5.178  13.703 -0.0928 -0.0277  0.3306
 9495TIP3    H249901   6.762   5.176  13.782 -1.0626  0.8218  1.9606
 9496TIP3   OH249902   2.937   1.653   5.173  0.2014 -0.0149  0.0312
 9496TIP3    H149903   3.021   1.615   5.197  0.2654 -0.7408 -1.2842
 9496TIP3    H249904   2.872   1.588   5.201  0.2211 -0.4438 -0.8960
 9497TIP3   OH249905   0.148   4.389   4.565 -0.3697 -0.2954  0.3425
 9497TIP3    H149906   0.089   4.314   4.571 -0.8371  0.0865  0.6430
 9497TIP3    H249907   0.222   4.367   4.622 -0.6511 -0.3967  0.6721
 9498TIP3   OH249908   1.975   1.586  16.096 -0.5737 -0.0139  0.3566
 9498TIP3    H149909   1.882   1.586  16.076 -0.2862  0.4495 -0.9850
 9498TIP3    H249910   2.019   1.593  16.011  0.7078 -1.2111  0.8941
 9499TIP3   OH249911   1.692   3.802  15.000  0.2214 -0.9633 -0.4161
 9499TIP3    H149912   1.681   3.708  15.017 -0.1450 -0.6649  1.0735
 9499TIP3    H249913   1.644   3.817  14.918 -0.4722 -1.9208 -0.1998
 9500TIP3   OH249914   4.780   4.034  14.007  0.3015 -0.1558 -0.1858
 9500TIP3    H149915   4.845   4.101  13.987  0.5974 -0.4927 -0.3634
 9500TIP3    H249916   4.785   3.973  13.934 -0.4315 -0.0271 -0.3473
 9501TIP3   OH249917   4.029   5.311  12.093 -0.2597  0.1977 -0.4235
 9501TIP3    H149918   3.948   5.363  12.093 -0.7083 -0.4912 -0.7345
 9501TIP3    H249919   4.007   5.233  12.144  0.8538  0.9713  1.2928
 9502TIP3   OH249920   4.982   3.339  12.065 -0.5840  0.3349 -0.3810
 9502TIP3    H149921   5.033   3.356  11.986 -1.8278  0.4964 -1.1659
 9502TIP3    H249922   4.999   3.414  12.121  0.0403  0.3851 -0.6346
 9503TIP3   OH249923   4.340   2.196   4.247 -0.5482  0.2448  0.1992
 9503TIP3    H149924   4.248   2.209   4.226 -0.8974 -0.5555  1.2013
 9503TIP3    H249925   4.340   2.158   4.335  0.7101 -0.4159 -0.0666
 9504TIP3   OH249926   2.027   1.788   0.632 -0.2148  0.0165 -0.0558
 9504TIP3    H149927   2.004   1.827   0.548 -2.1413 -1.3078 -0.1789
 9504TIP3    H249928   2.054   1.862   0.686 -0.2194  1.0456 -1.4169
 9505TIP3   OH249929   4.586   2.729  11.705  0.0090 -0.2225 -0.1794
 9505TIP3    H149930   4.573   2.703  11.614 -1.2753 -0.7136  0.1307
 9505TIP3    H249931   4.497   2.742  11.740  0.5470  4.1894 -0.1657
 9506TIP3   OH249932   6.282   0.553  13.238  0.7507  0.3530  0.2621
 9506TIP3    H149933   6.377   0.553  13.228  0.7014 -1.1293 -0.3235
 9506TIP3    H249934   6.267   0.591  13.325  1.9888 -1.3229  1.2263
 9507TIP3   OH249935   1.794   6.347   2.145  0.2487 -0.7698  0.4071
 9507TIP3    H149936   1.843   6.317   2.068  0.3320  2.7181 -1.0119
 9507TIP3    H249937   1.819   6.287   2.214  3.2821 -1.6366 -1.3292
 9508TIP3   OH249938   3.526   0.360  12.005  0.1925 -0.5583  1.0275
 9508TIP3    H149939   3.469   0.396  12.073  2.0621 -0.5645  2.6069
 9508TIP3    H249940   3.541   0.269  12.032  0.6844 -0.6562  0.4278
 9509TIP3   OH249941   0.808   1.256  15.510  0.0444 -0.1444  0.0185
 9509TIP3    H149942   0.892   1.282  15.470  0.2080  0.4165  0.7275
 9509TIP3    H249943   0.803   1.162  15.495  0.9349 -0.2298  0.2138
 9510TIP3   OH249944   5.758   4.042  14.496  0.4520  0.1083 -0.0905
 9510TIP3    H149945   5.730   4.093  14.572  1.3205  1.3096 -0.5702
 9510TIP3    H249946   5.845   4.009  14.520  1.3600  1.7001 -1.1187
 9511TIP3   OH249947   3.094   6.247   1.226 -0.1860  0.0508  0.5533
 9511TIP3    H149948   3.029   6.219   1.161 -0.9028 -0.0951  1.3130
 9511TIP3    H249949   3.083   6.342   1.232 -0.2394  0.0432  0.5826
 9512TIP3   OH249950   0.367   5.672   1.989 -0.2882 -0.5246  0.1499
 9512TIP3    H149951   0.383   5.599   1.928 -3.3107  0.3099 -1.7805
 9512TIP3    H249952   0.394   5.750   1.939 -2.8708  0.1747 -0.2113
 9513TIP3   OH249953   1.719   0.833  15.786  0.0937  0.3304  0.3049
 9513TIP3    H149954   1.663   0.902  15.749  0.0351  0.2021  0.1520
 9513TIP3    H249955   1.807   0.870  15.783  0.0297  0.4946  0.4504
 9514TIP3   OH249956   1.918   0.663  14.474  0.3967 -0.0947  0.5190
 9514TIP3    H149957   1.832   0.643  14.436  0.5560  0.1961 -0.0108
 9514TIP3    H249958   1.907   0.648  14.568 -0.1234 -0.4332  0.4100
 9515TIP3   OH249959   4.271   2.658  11.332  0.2016  0.2620  0.0834
 9515TIP3    H149960   4.225   2.588  11.379 -1.5168  0.0041 -1.9143
 9515TIP3    H249961   4.212   2.733  11.339  0.0250  0.2756 -1.4632
 9516TIP3   OH249962   0.565   3.700  13.494 -0.3127 -0.0356  0.1807
 9516TIP3    H149963   0.652   3.694  13.454  0.6556  0.1775  2.2223
 9516TIP3    H249964   0.555   3.793  13.515 -1.8362  0.2709 -1.7392
 9517TIP3   OH249965   0.015   1.912   0.341  0.1168 -0.2483  0.0207
 9517TIP3    H149966  -0.063   1.955   0.376  1.6109  2.0503  0.6333
 9517TIP3    H249967  -0.018   1.831   0.302 -2.3960  0.0305  1.4262
 9518TIP3   OH249968   0.533   5.045  12.403  0.3980  0.2282  0.5196
 9518TIP3    H149969   0.476   5.037  12.479 -1.4922 -0.1640 -0.8796
 9518TIP3    H249970   0.521   5.135  12.373 -1.2184 -0.4774 -1.0539
 9519TIP3   OH249971   5.788   1.959   5.303 -0.2307  1.0696  0.1601
 9519TIP3    H149972   5.826   1.880   5.340  0.4721  1.1652 -0.3356
 9519TIP3    H249973   5.754   2.008   5.378 -2.2924 -0.5338  0.2971
 9520TIP3   OH249974   5.726   0.155  12.775  0.2306  1.0493 -0.1748
 9520TIP3    H149975   5.816   0.177  12.749 -0.1202  2.9701  0.1413
 9520TIP3    H249976   5.714   0.199  12.859 -1.0497  0.9089 -0.2727
 9521TIP3   OH249977   4.817   3.334   0.579  0.2823 -0.0403 -0.2566
 9521TIP3    H149978   4.767   3.390   0.519  1.9877  0.5092 -1.2075
 9521TIP3    H249979   4.750   3.283   0.625 -1.1613  0.8086 -1.3402
 9522TIP3   OH249980   0.439   2.919   0.861  0.6553 -0.3207  0.4453
 9522TIP3    H149981   0.415   3.001   0.905  0.6510 -0.3570  0.5116
 9522TIP3    H249982   0.372   2.908   0.793  1.6553  0.6290 -0.7205
 9523TIP3   OH249983   2.043   1.024  12.396  0.4454 -0.3461  0.1895
 9523TIP3    H149984   2.024   0.989  12.483  3.1142 -0.4883  0.7625
 9523TIP3    H249985   2.016   1.115  12.401  1.2135 -0.1657  1.4196
 9524TIP3   OH249986   6.292   4.620   5.762 -0.3867 -0.0179 -0.0276
 9524TIP3    H149987   6.250   4.574   5.689 -1.3740 -1.9417  1.6769
 9524TIP3    H249988   6.347   4.553   5.803  0.6821  1.2240  0.5903
 9525TIP3   OH249989   2.286   4.692   2.266 -0.6406  0.9436  0.0756
 9525TIP3    H149990   2.277   4.786   2.283  2.3923  1.1576  0.7960
 9525TIP3    H249991   2.346   4.687   2.192  0.3955 -0.4442  0.9980
 9526TIP3   OH249992   0.867   5.307  10.790  0.0434 -0.3533 -0.6682
 9526TIP3    H149993   0.829   5.377  10.843 -1.1099 -1.2013 -0.3598
 9526TIP3    H249994   0.792   5.267  10.746  0.8572 -0.4314 -2.0257
 9527TIP3   OH249995   6.440   4.300  12.317 -0.4253 -0.2165  0.4440
 9527TIP3    H149996   6.497   4.247  12.373 -0.0332 -0.7907 -0.4842
 9527TIP3    H249997   6.486   4.382  12.305 -0.9760  0.2999  1.7868
 9528TIP3   OH249998   0.550   3.979  15.598  0.5195 -0.3129 -0.2523
 9528TIP3    H149999   0.515   3.967  15.510  2.6188 -2.1263 -0.8875
 9528TIP3    H250000   0.540   3.893  15.639 -0.3649  0.4992  1.2634
 9529TIP3   OH250001   5.185   5.073   2.685  0.7915 -0.2855  0.2424
 9529TIP3    H150002   5.160   4.986   2.715  0.0451 -0.1159  0.1379
 9529TIP3    H250003   5.176   5.069   2.590 -0.8510  0.3715  0.3414
 9530TIP3   OH250004   3.246   0.043  15.316  0.4668  0.1105  0.0141
 9530TIP3    H150005   3.226  -0.037  15.365  0.7756  1.0568  1.7286
 9530TIP3    H250006   3.228   0.020  15.225  0.4403 -1.8745  0.4877
 9531TIP3   OH250007   2.428   6.535  15.312  0.5377 -0.2827 -0.6819
 9531TIP3    H150008   2.455   6.596  15.243 -0.5829  0.4325 -0.5022
 9531TIP3    H250009   2.456   6.577  15.393 -1.3536  0.6301 -0.4692
 9532TIP3   OH250010   5.310   1.845   2.187 -0.2533  0.2143 -0.0169
 9532TIP3    H150011   5.370   1.789   2.137 -0.5003 -1.1244  1.1357
 9532TIP3    H250012   5.368   1.891   2.248 -0.2349 -0.1037  0.2119
 9533TIP3   OH250013   1.998   0.847   0.431 -0.1831 -0.0102 -0.6354
 9533TIP3    H150014   2.005   0.878   0.521 -0.6447 -2.1338  0.1788
 9533TIP3    H250015   2.022   0.922   0.377 -3.0752  2.2944  1.1426
 9534TIP3   OH250016   5.556   2.574   3.821 -0.2629 -0.3889 -0.4114
 9534TIP3    H150017   5.536   2.615   3.736  0.8665 -1.3096 -1.1349
 9534TIP3    H250018   5.649   2.553   3.816 -0.1158 -0.1720  1.1900
 9535TIP3   OH250019   3.360   6.317   4.572  0.4501  0.1154  0.2682
 9535TIP3    H150020   3.354   6.404   4.611 -0.0009 -0.1553  0.8104
 9535TIP3    H250021   3.322   6.328   4.484 -0.7855  0.1846  0.7990
 9536TIP3   OH250022   1.348   1.512  13.985 -0.1780 -0.2825  0.1948
 9536TIP3    H150023   1.364   1.501  13.892  0.5320  0.8263  0.1715
 9536TIP3    H250024   1.395   1.592  14.008 -0.8076 -0.2385  1.3863
 9537TIP3   OH250025   2.500   1.856  14.924 -0.1422 -0.0949  0.2963
 9537TIP3    H150026   2.406   1.839  14.938 -0.4418  1.1238 -0.1430
 9537TIP3    H250027   2.510   1.857  14.829  0.2487  0.1370  0.3421
 9538TIP3   OH250028   3.433   2.545   0.991 -0.3582 -0.4118 -0.0291
 9538TIP3    H150029   3.477   2.578   0.913 -0.9185  0.9298  0.2092
 9538TIP3    H250030   3.491   2.570   1.063 -1.1520  0.7280  0.2199
 9539TIP3   OH250031   1.172   1.679   3.949  0.0774 -0.6067 -0.0941
 9539TIP3    H150032   1.200   1.771   3.951 -0.3321 -0.4682 -0.4862
 9539TIP3    H250033   1.232   1.637   3.886  0.4206 -0.6616  0.2694
 9540TIP3   OH250034   2.835   5.611   3.390  0.1442 -0.3147  0.2044
 9540TIP3    H150035   2.745   5.610   3.357  0.4890 -1.7133 -0.7991
 9540TIP3    H250036   2.827   5.594   3.484 -0.7840  2.3742  0.6458
 9541TIP3   OH250037   2.058   2.421  13.827 -0.1828 -0.1060  0.1740
 9541TIP3    H150038   2.081   2.337  13.786  0.2485  0.5137 -0.8717
 9541TIP3    H250039   2.076   2.486  13.760 -1.5384  0.7376  0.6087
 9542TIP3   OH250040   4.175   4.489  16.495  0.0370  0.7418  0.1507
 9542TIP3    H150041   4.171   4.393  16.498  0.2647  0.7234 -0.2208
 9542TIP3    H250042   4.101   4.515  16.442 -1.4171  0.8820  2.1802
 9543TIP3   OH250043   5.321   1.110  14.509 -0.5016  0.4436 -0.7793
 9543TIP3    H150044   5.389   1.075  14.451 -1.1939 -0.5662 -0.9951
 9543TIP3    H250045   5.269   1.168  14.453 -0.1455  0.8014 -0.7422
 9544TIP3   OH250046   2.770   0.105   3.017  0.2526 -0.6164  0.0642
 9544TIP3    H150047   2.864   0.117   3.001  0.5383 -3.1935 -0.3616
 9544TIP3    H250048   2.763   0.019   3.059 -1.9854 -0.7442 -0.5101
 9545TIP3   OH250049   5.426   2.152  12.908 -0.3453 -0.2411  0.7469
 9545TIP3    H150050   5.384   2.073  12.941 -1.6277  0.5148  0.9414
 9545TIP3    H250051   5.476   2.186  12.982  1.2757 -1.5510  0.3016
 9546TIP3   OH250052   0.401   2.759   5.804  0.4197 -0.2648 -0.1308
 9546TIP3    H150053   0.362   2.816   5.870 -0.8652 -0.0193 -1.0694
 9546TIP3    H250054   0.454   2.697   5.853  1.6947  1.6056  0.9419
 9547TIP3   OH250055   3.109   4.708  11.957  0.4725 -0.6355  0.3980
 9547TIP3    H150056   3.064   4.791  11.968  0.4827 -0.2506 -2.0326
 9547TIP3    H250057   3.049   4.643  11.992 -0.6603  0.1668 -0.0187
 9548TIP3   OH250058   6.460   3.125   3.157 -0.2652 -0.1029  0.1026
 9548TIP3    H150059   6.503   3.200   3.197  0.2907 -1.1334  1.5031
 9548TIP3    H250060   6.434   3.155   3.070  1.9343  1.0037 -0.1987
 9549TIP3   OH250061   0.991   3.164   3.739  0.7325 -0.1993 -0.5583
 9549TIP3    H150062   1.012   3.194   3.828  0.4019 -1.7922  0.0856
 9549TIP3    H250063   0.935   3.087   3.753  0.9665 -0.6682 -2.1377
 9550TIP3   OH250064   2.912   5.720   4.834 -0.1621  0.3548  0.3820
 9550TIP3    H150065   2.884   5.812   4.829  1.7360  1.0285  1.6097
 9550TIP3    H250066   2.979   5.712   4.766  0.2381  0.0767  0.8137
 9551TIP3   OH250067   4.822   4.288  13.609  0.3790  0.0865  0.7263
 9551TIP3    H150068   4.762   4.343  13.559 -0.4895 -0.3588  1.2696
 9551TIP3    H250069   4.889   4.262  13.545 -0.5401 -0.2063 -0.1382
 9552TIP3   OH250070   5.171   3.336   0.128  0.2099 -0.1600 -0.2260
 9552TIP3    H150071   5.089   3.306   0.169  1.5676  0.8863  3.4949
 9552TIP3    H250072   5.165   3.306   0.038 -3.2251 -2.1992  0.5757
 9553TIP3   OH250073   4.242   1.667  11.335  0.0839  0.1263 -0.3219
 9553TIP3    H150074   4.177   1.629  11.395  0.4292  1.2328  0.7544
 9553TIP3    H250075   4.195   1.738  11.292 -0.1150 -0.5674 -1.2693
 9554TIP3   OH250076   1.861   3.970  13.280  0.3971 -0.0666  0.0625
 9554TIP3    H150077   1.859   4.025  13.202  0.9247 -0.9831 -0.6169
 9554TIP3    H250078   1.873   3.881  13.246 -3.2432 -0.9790  0.9369
 9555TIP3   OH250079   1.092   0.797  11.425 -0.1359  0.5274  0.0585
 9555TIP3    H150080   1.092   0.870  11.363  0.7203  1.1035  0.7465
 9555TIP3    H250081   1.067   0.836  11.508  2.9565  0.5568  1.0284
 9556TIP3   OH250082   4.792   2.612  16.986  0.5892 -0.1044 -0.7155
 9556TIP3    H150083   4.747   2.618  16.902 -1.3505 -0.9955  0.2075
 9556TIP3    H250084   4.885   2.610  16.964  0.1176  0.0341 -2.8060
 9557TIP3   OH250085   1.880   0.162   1.924 -0.7008  0.4283 -0.2811
 9557TIP3    H150086   1.959   0.123   1.961 -1.9722 -1.2841  0.7173
 9557TIP3    H250087   1.895   0.162   1.830  0.0081 -1.0699 -0.1907
 9558TIP3   OH250088   2.724   5.979  11.816 -0.1372  0.3468  0.6565
 9558TIP3    H150089   2.767   6.054  11.857  0.3805 -0.2622  1.2554
 9558TIP3    H250090   2.632   6.003  11.811  0.1637  1.3668  0.0492
 9559TIP3   OH250091   0.322   4.523   5.225 -1.2720 -0.2036 -0.5141
 9559TIP3    H150092   0.418   4.512   5.223 -1.3709 -1.1974 -0.4764
 9559TIP3    H250093   0.305   4.571   5.306 -0.7130  1.0855 -1.1483
 9560TIP3   OH250094   2.101   1.802   6.198  0.1609  0.5297  0.5249
 9560TIP3    H150095   2.116   1.818   6.291 -2.1831 -0.6798  1.1467
 9560TIP3    H250096   2.010   1.776   6.192  0.5070 -0.2839 -2.0133
 9561TIP3   OH250097   4.113   5.795  14.228  0.4913  0.3570  0.3710
 9561TIP3    H150098   4.105   5.725  14.163 -1.0340 -2.4926  3.4821
 9561TIP3    H250099   4.063   5.867  14.192 -1.0178 -1.4545 -1.2502
 9562TIP3   OH250100   4.871   3.653   4.964  0.3961 -0.2986 -0.1089
 9562TIP3    H150101   4.849   3.621   4.876  1.6836  0.7620 -0.8234
 9562TIP3    H250102   4.967   3.647   4.969  0.4217  0.6749  0.8261
 9563TIP3   OH250103   2.552   2.099  14.441  0.7939 -0.0750 -0.3760
 9563TIP3    H150104   2.458   2.084  14.430  0.5214  0.8522  0.6390
 9563TIP3    H250105   2.573   2.166  14.377  0.3124  1.2877  0.8492
 9564TIP3   OH250106   3.978   0.168  16.844  0.4719 -0.0132  0.0806
 9564TIP3    H150107   3.953   0.105  16.911 -0.2631 -0.9967 -1.0817
 9564TIP3    H250108   4.063   0.202  16.871 -0.2016  0.2231  1.9229
 9565TIP3   OH250109   2.373   5.197  14.999  0.1174 -0.1572 -0.3406
 9565TIP3    H150110   2.302   5.169  15.057 -1.1822 -0.0614 -1.8609
 9565TIP3    H250111   2.330   5.221  14.918  2.0440 -1.5861 -1.8408
 9566TIP3   OH250112   1.476   5.910  11.389  0.1667 -0.2796 -0.1875
 9566TIP3    H150113   1.498   5.861  11.469 -0.0810  0.1103  0.1238
 9566TIP3    H250114   1.431   5.988  11.421  1.8650  0.8853 -0.5852
 9567TIP3   OH250115   5.065   2.432  14.585 -0.2072 -0.2316  0.2365
 9567TIP3    H150116   4.986   2.467  14.544  0.5630 -1.5790 -2.4718
 9567TIP3    H250117   5.135   2.491  14.558  0.2640 -0.9818 -0.1977
 9568TIP3   OH250118   6.451   0.070   2.711 -0.1647  0.6574  0.4174
 9568TIP3    H150119   6.467   0.089   2.803  0.0536 -0.2782  0.5788
 9568TIP3    H250120   6.476  -0.022   2.701 -0.6954  0.6047 -0.4539
 9569TIP3   OH250121   3.374   3.168  11.795  0.0433 -0.0294  0.6093
 9569TIP3    H150122   3.316   3.106  11.839  0.6044 -1.3126 -0.4251
 9569TIP3    H250123   3.379   3.137  11.705  2.5122 -0.1054  0.7287
 9570TIP3   OH250124   0.465   5.211   4.797 -0.2837  0.4463 -0.6314
 9570TIP3    H150125   0.460   5.221   4.893 -1.7752 -0.6101 -0.5655
 9570TIP3    H250126   0.390   5.155   4.776 -0.7554  1.7715 -2.5888
 9571TIP3   OH250127   5.160   5.270  17.239  0.4432 -0.0993 -0.0604
 9571TIP3    H150128   5.145   5.236  17.150  0.1110 -0.9882  0.3290
 9571TIP3    H250129   5.254   5.281  17.245  0.5344 -0.7371 -0.2764
 9572TIP3   OH250130   0.749   0.623   5.589 -0.1583 -0.1086  0.5233
 9572TIP3    H150131   0.844   0.637   5.594 -0.0010 -1.0023  0.0802
 9572TIP3    H250132   0.712   0.697   5.638  0.7971 -0.2215  1.4431
 9573TIP3   OH250133   3.780   4.175  13.393 -0.2293 -0.0609  0.5867
 9573TIP3    H150134   3.766   4.166  13.487 -0.6138  1.6692  0.7258
 9573TIP3    H250135   3.770   4.269  13.377  0.4056 -0.2608 -1.0901
 9574TIP3   OH250136   0.584   5.824   0.401 -0.2739 -0.2410  0.1169
 9574TIP3    H150137   0.676   5.847   0.411 -0.1961  0.4384 -1.8142
 9574TIP3    H250138   0.581   5.729   0.415  0.8081 -0.3475 -0.3362
 9575TIP3   OH250139   3.814   3.202  16.841 -0.3914 -0.2780  0.1840
 9575TIP3    H150140   3.745   3.171  16.900  0.2736 -1.8859  0.1262
 9575TIP3    H250141   3.805   3.298  16.843 -2.1020 -0.4276  0.8033
 9576TIP3   OH250142   5.144   6.059  15.818  0.0317  0.3255 -0.7532
 9576TIP3    H150143   5.218   6.003  15.794 -0.8733 -1.2175  0.0151
 9576TIP3    H250144   5.079   5.999  15.854  0.0724  2.1595  2.5839
 9577TIP3   OH250145   3.900   2.180  16.078 -0.3890  0.4435 -0.4138
 9577TIP3    H150146   3.808   2.158  16.095 -0.5737  0.0986 -1.7809
 9577TIP3    H250147   3.926   2.234  16.152 -1.1109 -1.0932  1.0146
 9578TIP3   OH250148   6.481   1.136   0.341  0.3210 -0.9002  0.3396
 9578TIP3    H150149   6.507   1.228   0.336 -2.2926 -0.0377  1.5629
 9578TIP3    H250150   6.414   1.126   0.274  0.7517 -1.9773  0.0621
 9579TIP3   OH250151   4.426   6.365   2.177 -0.3412  0.7494 -0.0426
 9579TIP3    H150152   4.474   6.441   2.143  0.2159  0.7093  0.6409
 9579TIP3    H250153   4.434   6.299   2.108  1.7088  0.2900  0.6032
 9580TIP3   OH250154   0.039   4.964  12.313 -0.2552 -0.5439 -0.3737
 9580TIP3    H150155   0.133   4.982  12.310 -0.8555  3.1168  1.0691
 9580TIP3    H250156   0.030   4.901  12.385  0.8090  1.1939  1.3128
 9581TIP3   OH250157   3.141   2.451  14.080  0.1312 -0.2387 -0.7595
 9581TIP3    H150158   3.101   2.535  14.102 -0.9159 -0.6852 -0.9437
 9581TIP3    H250159   3.195   2.469  14.004 -0.4483  0.1723 -1.0769
 9582TIP3   OH250160   5.861   0.717  12.643 -0.2007  0.1059 -0.2220
 9582TIP3    H150161   5.898   0.801  12.614  0.5182 -0.4292 -0.8966
 9582TIP3    H250162   5.777   0.711  12.598 -0.3338  0.5501 -0.0308
 9583TIP3   OH250163   4.482   2.319   1.716 -0.3968 -0.3431 -0.3912
 9583TIP3    H150164   4.521   2.232   1.722  0.5764  0.1281  0.2647
 9583TIP3    H250165   4.422   2.323   1.791 -0.2778 -0.3662 -0.2949
 9584TIP3   OH250166   4.493   3.488   1.622 -0.5120  0.7180 -0.0785
 9584TIP3    H150167   4.449   3.432   1.685 -0.9278  0.3892 -0.6579
 9584TIP3    H250168   4.466   3.455   1.536  0.4572  0.8291 -0.4390
 9585TIP3   OH250169   2.346   1.436  16.554  0.3937  0.5804  0.3677
 9585TIP3    H150170   2.263   1.483  16.564 -0.0145 -0.3741  1.6098
 9585TIP3    H250171   2.323   1.360  16.500  0.3404  0.0603  1.1081
 9586TIP3   OH250172   0.972   0.865  15.651  0.0826 -0.6939  0.6305
 9586TIP3    H150173   1.040   0.819  15.601 -0.6442  0.6741 -1.7177
 9586TIP3    H250174   0.891   0.820  15.627 -0.6176  1.6109 -1.5861
 9587TIP3   OH250175   3.263   1.249   0.976 -0.6390  0.0278  0.5400
 9587TIP3    H150176   3.235   1.157   0.983  3.3192 -1.2041  1.0604
 9587TIP3    H250177   3.248   1.285   1.064 -1.4508 -0.3188  0.5483
 9588TIP3   OH250178   4.544   5.440   0.470  0.5738  0.7014  0.0179
 9588TIP3    H150179   4.604   5.402   0.534  2.0501  0.5141 -1.4346
 9588TIP3    H250180   4.461   5.450   0.517  1.0575 -1.3399  1.3427
 9589TIP3   OH250181   2.152   5.883   3.166 -0.1608  0.1220 -0.6911
 9589TIP3    H150182   2.176   5.791   3.157 -2.6675 -0.5321 -0.8424
 9589TIP3    H250183   2.072   5.883   3.218 -0.9344  2.1139 -1.8066
 9590TIP3   OH250184   5.685   4.722   3.964 -0.4640  0.8334  0.0822
 9590TIP3    H150185   5.657   4.642   3.920 -0.5592  0.9112  0.0011
 9590TIP3    H250186   5.712   4.693   4.051 -0.9069  0.7732  0.2028
 9591TIP3   OH250187   5.596   1.842  13.233 -0.1354  0.0294  0.0538
 9591TIP3    H150188   5.527   1.801  13.181 -0.4391 -0.7019  1.0156
 9591TIP3    H250189   5.561   1.845  13.322  1.3260 -0.9656  0.6887
 9592TIP3   OH250190   3.607   0.661  14.095  0.2508  0.3182 -0.4464
 9592TIP3    H150191   3.572   0.632  14.180 -1.3016  1.7517 -0.5570
 9592TIP3    H250192   3.553   0.616  14.030  0.1822  0.6809 -0.6445
 9593TIP3   OH250193   1.935   4.785  13.800 -0.2572  0.5697 -0.5921
 9593TIP3    H150194   1.970   4.863  13.843 -1.1736  0.4772  0.3278
 9593TIP3    H250195   1.841   4.790  13.814 -0.4529 -0.0521 -1.6241
 9594TIP3   OH250196   1.846   0.710   5.326  0.9903 -0.1164 -0.4403
 9594TIP3    H150197   1.820   0.775   5.261  0.7189  0.0069 -0.2136
 9594TIP3    H250198   1.932   0.680   5.298  0.6005 -0.5287 -1.2132
 9595TIP3   OH250199   5.127   0.912   2.382  0.2927  0.3578  0.3104
 9595TIP3    H150200   5.040   0.923   2.342  1.0349 -1.0026 -1.7574
 9595TIP3    H250201   5.125   0.825   2.421 -0.0533  1.2578  2.3856
 9596TIP3   OH250202   4.204   3.851  12.743 -0.5244 -0.1101 -0.1669
 9596TIP3    H150203   4.152   3.771  12.754 -2.4687  1.0052 -0.9963
 9596TIP3    H250204   4.200   3.870  12.649 -1.2620  1.7234  0.2077
 9597TIP3   OH250205   5.825   3.606  15.599 -0.1246 -0.3295 -0.1636
 9597TIP3    H150206   5.808   3.512  15.593 -2.9014  0.2538 -2.6810
 9597TIP3    H250207   5.769   3.636  15.671 -2.5197  0.0149 -2.1063
 9598TIP3   OH250208   5.234   3.760  12.451  0.6719  0.8572  0.4043
 9598TIP3    H150209   5.259   3.784  12.362  0.6687 -0.9297 -0.1043
 9598TIP3    H250210   5.282   3.679  12.469  0.5709  1.1186  1.9786
 9599TIP3   OH250211   3.174   3.383   1.706 -0.4140  0.9914 -0.2914
 9599TIP3    H150212   3.248   3.373   1.646 -0.8825  0.4496 -0.7794
 9599TIP3    H250213   3.130   3.463   1.678 -0.9453  0.4484 -1.0088
 9600TIP3   OH250214   4.275   1.735  13.600 -0.3212 -0.2498  0.2157
 9600TIP3    H150215   4.213   1.792  13.554 -0.9955 -0.6802  0.5777
 9600TIP3    H250216   4.266   1.760  13.692  0.7576  0.3570  0.1536
 9601TIP3   OH250217   6.528   4.753   2.458 -0.2704 -0.1361 -0.3139
 9601TIP3    H150218   6.567   4.668   2.436  0.8176 -0.1706  1.6515
 9601TIP3    H250219   6.452   4.731   2.511 -0.4845  0.0974 -0.5235
 9602TIP3   OH250220   0.937   0.505   0.690 -0.2733 -0.1846 -0.4425
 9602TIP3    H150221   0.861   0.515   0.747  1.0743  0.7514  1.2372
 9602TIP3    H250222   0.978   0.592   0.689  0.3389 -0.4786 -1.9560
 9603TIP3   OH250223   1.893   6.614  12.865 -0.4509  0.6656  0.5748
 9603TIP3    H150224   1.958   6.553  12.830 -0.9859 -0.5844  1.7082
 9603TIP3    H250225   1.871   6.670  12.791  2.6691  1.8082  0.4204
 9604TIP3   OH250226   0.470   6.393  15.291 -0.4117 -0.5149  0.5385
 9604TIP3    H150227   0.395   6.348  15.253 -1.2782  0.4106  1.1506
 9604TIP3    H250228   0.443   6.416  15.380  0.1388  0.9026  0.3619
 9605TIP3   OH250229   5.093   6.433  14.558  0.6001  0.0885  0.3680
 9605TIP3    H150230   5.055   6.371  14.497  1.0955 -0.4049  0.5554
 9605TIP3    H250231   5.042   6.423  14.638  1.0394 -0.4921  0.5816
 9606TIP3   OH250232   6.674   2.207   4.510 -0.2728 -0.7356  0.0741
 9606TIP3    H150233   6.619   2.255   4.572  0.6176  0.7291 -0.2367
 9606TIP3    H250234   6.758   2.197   4.555 -0.0275 -0.7919 -0.3870
 9607TIP3   OH250235   0.612   3.481  13.845 -0.2961  0.1465  0.2704
 9607TIP3    H150236   0.684   3.541  13.864  0.4655 -1.0680  1.2944
 9607TIP3    H250237   0.613   3.419  13.918 -1.9733 -0.2674 -0.0372
 9608TIP3   OH250238   1.856   3.785  10.782  0.7325 -0.1528 -0.5130
 9608TIP3    H150239   1.877   3.878  10.788  1.7012 -0.5528  3.7343
 9608TIP3    H250240   1.936   3.745  10.749  1.0222  0.2727 -0.3387
 9609TIP3   OH250241   5.590   3.883  12.977  0.0281 -0.5037  0.4772
 9609TIP3    H150242   5.679   3.869  13.009  1.3988  2.2158 -1.9701
 9609TIP3    H250243   5.599   3.888  12.882 -2.4051  1.9687  0.3236
 9610TIP3   OH250244   4.875   0.292  17.197  0.0381  0.1052 -0.0228
 9610TIP3    H150245   4.905   0.201  17.187 -0.8198 -0.1778 -0.0491
 9610TIP3    H250246   4.952   0.338  17.230  0.6391 -0.5185 -0.5211
 9611TIP3   OH250247   6.551   0.412   2.356 -0.9613  0.0569  0.2216
 9611TIP3    H150248   6.530   0.363   2.436  1.0935 -0.9209  0.2149
 9611TIP3    H250249   6.486   0.481   2.352 -0.7929  0.4577  3.0671
 9612TIP3   OH250250   0.919   3.252   6.264 -0.2370 -1.0332 -0.3723
 9612TIP3    H150251   0.988   3.244   6.198 -1.8352 -0.8060 -2.1016
 9612TIP3    H250252   0.884   3.163   6.273  0.7690 -1.3070  1.0842
 9613TIP3   OH250253   0.440   0.825  12.901 -0.3795 -0.2080 -0.7111
 9613TIP3    H150254   0.363   0.860  12.945  0.0927 -1.6863  1.3771
 9613TIP3    H250255   0.458   0.887  12.830 -0.9966  2.3946  1.3441
 9614TIP3   OH250256   2.933   1.755   0.682 -0.1996  0.5673  0.4728
 9614TIP3    H150257   2.980   1.731   0.602 -1.6015  0.9473 -0.4745
 9614TIP3    H250258   2.845   1.720   0.670 -1.2289  2.9972  0.6584
 9615TIP3   OH250259   2.679   2.759   6.233  0.3693 -0.2401 -0.2624
 9615TIP3    H150260   2.660   2.669   6.261  0.8654 -0.2001  0.1977
 9615TIP3    H250261   2.625   2.814   6.290 -0.7764 -0.2934 -1.2763
 9616TIP3   OH250262   4.851   3.721   4.613  0.4581 -0.6152  0.1376
 9616TIP3    H150263   4.946   3.730   4.625  0.6387 -1.0798 -0.8877
 9616TIP3    H250264   4.838   3.726   4.518 -0.7888  1.6943  0.3852
 9617TIP3   OH250265   6.208   1.066  16.626  1.0719  0.1346  0.0155
 9617TIP3    H150266   6.291   1.048  16.583  0.0611 -2.1711 -1.0891
 9617TIP3    H250267   6.148   1.086  16.554  0.3797  0.5833  0.7102
 9618TIP3   OH250268   6.543   0.511  12.177  0.2554  0.2339  0.1360
 9618TIP3    H150269   6.541   0.536  12.085 -1.1127 -0.4813 -0.0391
 9618TIP3    H250270   6.463   0.549  12.214 -0.0271 -0.8680  0.6707
 9619TIP3   OH250271   3.770   0.346   4.101  0.4762 -0.2406 -0.1859
 9619TIP3    H150272   3.704   0.384   4.042  0.2165 -0.1848  0.1384
 9619TIP3    H250273   3.719   0.313   4.175  0.7304 -0.9458 -0.3227
 9620TIP3   OH250274   0.570   3.393   0.279  0.5361 -0.1788  0.2586
 9620TIP3    H150275   0.580   3.347   0.363  2.2016 -0.6189 -0.1563
 9620TIP3    H250276   0.660   3.412   0.252 -0.0268  0.6771 -1.0402
 9621TIP3   OH250277   5.880   1.638   1.689  0.1025 -0.0765  0.2985
 9621TIP3    H150278   5.870   1.733   1.682  0.4378 -0.0870 -0.3324
 9621TIP3    H250279   5.940   1.626   1.763 -0.2629  0.1844  0.6391
 9622TIP3   OH250280   5.866   5.037  13.768  0.5878  0.6286 -0.5160
 9622TIP3    H150281   5.923   5.096  13.718  0.4098  1.0017 -0.2775
 9622TIP3    H250282   5.800   5.009  13.705  0.0627  1.5019 -0.3595
 9623TIP3   OH250283   4.458   6.695  12.235  0.3326 -0.4405 -0.1104
 9623TIP3    H150284   4.536   6.709  12.289  0.6835  0.7837 -0.9257
 9623TIP3    H250285   4.469   6.753  12.160 -0.9159 -0.9541 -0.7181
 9624TIP3   OH250286   2.483   2.108  12.396 -1.0092 -0.2668 -0.7090
 9624TIP3    H150287   2.485   2.162  12.475 -0.2026 -1.0964 -0.1538
 9624TIP3    H250288   2.567   2.063  12.396 -0.8014  0.1043 -2.3138
 9625TIP3   OH250289   5.888   6.152  12.325  0.0395  0.3713  0.0139
 9625TIP3    H150290   5.951   6.081  12.312  0.7655  1.2830 -1.5332
 9625TIP3    H250291   5.922   6.201  12.400  1.1002  0.7702 -0.7157
 9626TIP3   OH250292   1.747   2.182  11.669 -0.1209 -0.1023 -0.1608
 9626TIP3    H150293   1.702   2.209  11.749 -1.4739 -0.1019 -0.9081
 9626TIP3    H250294   1.812   2.251  11.655 -0.2283  0.1764  0.6379
 9627TIP3   OH250295   0.799   5.477   5.056  0.0856 -0.5839  0.2259
 9627TIP3    H150296   0.815   5.508   4.967 -1.6856 -2.4256 -0.7601
 9627TIP3    H250297   0.865   5.410   5.070  2.3521  1.8230  1.4738
 9628TIP3   OH250298   0.738   6.195   2.742 -0.6103 -0.0642 -0.9249
 9628TIP3    H150299   0.706   6.122   2.795  2.2018 -1.8154 -1.5248
 9628TIP3    H250300   0.821   6.220   2.784 -0.1222  0.8612 -2.4184
 9629TIP3   OH250301   0.265   3.532   2.677 -0.2539  0.0883 -0.1498
 9629TIP3    H150302   0.292   3.616   2.639 -0.7393  1.0338  1.5227
 9629TIP3    H250303   0.304   3.532   2.764  1.0523 -2.1517 -0.7186
 9630TIP3   OH250304   2.053   6.080  15.933  0.1858 -0.5729  0.9619
 9630TIP3    H150305   2.044   5.999  15.984  0.4240 -0.8283  0.5974
 9630TIP3    H250306   2.133   6.120  15.966  2.4960 -2.6262 -1.8083
 9631TIP3   OH250307   6.329   4.060  15.570 -0.2892 -0.1075 -0.6145
 9631TIP3    H150308   6.295   4.109  15.495 -4.0064  0.9340  1.6076
 9631TIP3    H250309   6.353   4.127  15.633 -0.0695 -1.0558  0.3190
 9632TIP3   OH250310   1.684   2.418   0.725  0.4693  0.3656 -0.4717
 9632TIP3    H150311   1.600   2.455   0.697  0.2818 -0.5647 -1.1554
 9632TIP3    H250312   1.672   2.400   0.818 -1.1270 -2.5076 -1.1774
 9633TIP3   OH250313   4.784   1.692   3.494 -0.3865 -0.1691  0.2553
 9633TIP3    H150314   4.858   1.647   3.453 -0.5569 -0.0567 -0.1834
 9633TIP3    H250315   4.822   1.771   3.531 -0.3444  0.0587 -0.2693
 9634TIP3   OH250316   6.759   5.753  14.165 -0.2570 -0.1861  0.4237
 9634TIP3    H150317   6.838   5.759  14.219 -0.0219 -1.4634  0.2341
 9634TIP3    H250318   6.687   5.768  14.227  0.1157  0.7176  0.6437
 9635TIP3   OH250319   1.824   4.453   4.757  0.4140 -0.1704  0.4694
 9635TIP3    H150320   1.884   4.449   4.831  0.6532 -0.6215  0.2519
 9635TIP3    H250321   1.866   4.511   4.694  0.3385 -0.0061  0.5692
 9636TIP3   OH250322   3.226   4.645  15.329 -0.1865 -0.1850  0.2115
 9636TIP3    H150323   3.294   4.711  15.324 -1.3617  1.1366  1.2198
 9636TIP3    H250324   3.208   4.622  15.237 -1.6794  2.9314 -0.3443
 9637TIP3   OH250325   3.598   0.461   3.362  0.3630 -0.1546 -0.2994
 9637TIP3    H150326   3.506   0.486   3.354  0.6559  0.7251 -0.9957
 9637TIP3    H250327   3.595   0.368   3.385 -0.7159  0.2472  1.2384
 9638TIP3   OH250328   4.289   2.595  12.043 -0.0768 -0.1223 -0.7804
 9638TIP3    H150329   4.350   2.530  12.008  0.5758  0.0174  0.0724
 9638TIP3    H250330   4.237   2.546  12.107  1.5642  0.5400  1.1327
 9639TIP3   OH250331   2.657   2.155   1.609  0.4770 -0.5789 -0.3130
 9639TIP3    H150332   2.736   2.105   1.632  1.1897  0.6437 -0.0836
 9639TIP3    H250333   2.625   2.189   1.693 -1.2828 -2.4895 -0.1738
 9640TIP3   OH250334   1.686   3.591  11.237 -0.5369  0.1555  0.1125
 9640TIP3    H150335   1.644   3.514  11.277 -0.9770  0.9064  1.0917
 9640TIP3    H250336   1.746   3.623  11.303  0.1577  0.2574 -0.5634
 9641TIP3   OH250337   3.577   2.780  15.823 -0.2217  0.1090  0.1978
 9641TIP3    H150338   3.601   2.828  15.902 -0.8273 -1.1690  1.1731
 9641TIP3    H250339   3.648   2.718  15.809  1.5114  2.4750 -2.1370
 9642TIP3   OH250340   0.982   0.313  11.539  0.2081  0.4619  0.2992
 9642TIP3    H150341   0.920   0.362  11.485  1.1365 -1.3640 -2.5541
 9642TIP3    H250342   1.051   0.376  11.561  1.1118  0.6490 -2.8435
 9643TIP3   OH250343   0.592   2.387  16.008  0.5503  0.0990 -0.0354
 9643TIP3    H150344   0.570   2.477  15.985  1.4618  0.0940 -0.9514
 9643TIP3    H250345   0.686   2.389  16.026  0.5994 -0.6953 -0.1784
 9644TIP3   OH250346   4.866   4.381   1.852  0.3270  0.4785 -0.0124
 9644TIP3    H150347   4.851   4.412   1.941 -1.7019 -0.5546  0.0454
 9644TIP3    H250348   4.948   4.332   1.857  0.5516  0.9582  1.1411
 9645TIP3   OH250349   3.325   0.954   3.482 -0.4538 -0.2162  0.1421
 9645TIP3    H150350   3.251   1.004   3.449  0.9333  1.5735 -0.3023
 9645TIP3    H250351   3.375   1.016   3.535  1.5220 -1.0079 -0.7516
 9646TIP3   OH250352   1.816   0.813  16.307 -0.1265  0.3451 -0.1565
 9646TIP3    H150353   1.764   0.850  16.235 -0.7534 -1.9711 -0.9411
 9646TIP3    H250354   1.898   0.786  16.265 -0.6753 -1.4293 -0.0968
 9647TIP3   OH250355   2.214   0.741   5.784  0.0993  0.0854 -0.3230
 9647TIP3    H150356   2.255   0.795   5.716  0.6165 -2.0018 -1.7390
 9647TIP3    H250357   2.124   0.728   5.754 -0.4590  1.3502  0.7604
 9648TIP3   OH250358   5.614   4.950   3.077 -0.1190 -0.0197 -0.0740
 9648TIP3    H150359   5.690   5.000   3.107 -1.0066  2.2481 -1.4970
 9648TIP3    H250360   5.650   4.882   3.022  0.9260  0.8187 -0.4441
 9649TIP3   OH250361   6.578   5.802  13.509 -0.5061 -0.1848 -0.7494
 9649TIP3    H150362   6.661   5.758  13.528 -0.3264  1.3229  2.2662
 9649TIP3    H250363   6.511   5.740  13.538 -0.3856 -0.3922 -0.9093
 9650TIP3   OH250364   1.999   2.955  15.168 -0.0723  0.7287 -0.4005
 9650TIP3    H150365   2.057   2.889  15.206 -1.0188  0.3147  0.3423
 9650TIP3    H250366   2.037   3.039  15.196  0.0764  0.4584  0.2311
 9651TIP3   OH250367   0.321   0.447   5.103 -0.1036 -0.0999 -0.2949
 9651TIP3    H150368   0.400   0.483   5.143 -1.0466  0.4741  1.1060
 9651TIP3    H250369   0.297   0.509   5.035 -0.6684  0.9841  0.8658
 9652TIP3   OH250370   2.047   5.584  11.044  0.0060  0.5507 -0.2629
 9652TIP3    H150371   1.951   5.588  11.044 -0.0269 -0.3053  0.4394
 9652TIP3    H250372   2.069   5.530  10.968 -0.0619  0.6322 -0.3418
 9653TIP3   OH250373   4.507   1.202   4.199  0.4448  0.2781 -0.0207
 9653TIP3    H150374   4.486   1.237   4.286  0.5269  0.2052  0.0288
 9653TIP3    H250375   4.461   1.118   4.196  0.4139  0.2962 -0.0609
 9654TIP3   OH250376   2.548   0.161   5.362 -0.8119  0.2862  0.4293
 9654TIP3    H150377   2.566   0.152   5.268 -0.9211  0.2894  0.4082
 9654TIP3    H250378   2.472   0.219   5.366 -1.3664 -0.4348  0.4789
 9655TIP3   OH250379   0.636   0.643   5.048 -0.3199  0.2790 -0.2347
 9655TIP3    H150380   0.630   0.736   5.027 -0.9849  0.4144  0.5200
 9655TIP3    H250381   0.590   0.634   5.131 -0.8014 -0.8278 -0.6094
 9656TIP3   OH250382   2.036   0.392   1.508  0.0913  0.0798  0.0980
 9656TIP3    H150383   1.967   0.458   1.505 -1.6664 -1.5777  2.4405
 9656TIP3    H250384   2.116   0.439   1.481 -1.7819  2.1878 -1.9641
 9657TIP3   OH250385   3.085   1.125   6.571 -0.6946 -0.2965  0.1606
 9657TIP3    H150386   3.024   1.051   6.563 -0.4691 -0.4672 -0.0071
 9657TIP3    H250387   3.102   1.152   6.481  1.4054 -1.8494  0.0359
 9658TIP3   OH250388   1.177   2.942   5.950  0.7770 -0.1848 -0.6924
 9658TIP3    H150389   1.147   2.882   6.019  0.5915  0.0331 -0.5835
 9658TIP3    H250390   1.205   3.020   5.998  0.2834  0.1155 -0.8986
 9659TIP3   OH250391   2.683   0.550   2.899 -0.6467 -0.4721  0.1582
 9659TIP3    H150392   2.723   0.506   2.824 -1.7025 -1.3842  0.1171
 9659TIP3    H250393   2.648   0.632   2.863 -0.6416 -0.6391 -0.2297
 9660TIP3   OH250394   4.647   1.029   1.156  0.5829  0.2580  0.0048
 9660TIP3    H150395   4.624   1.118   1.183  1.1775  0.1079  1.0120
 9660TIP3    H250396   4.582   1.007   1.090 -1.4814  0.2800  1.9721
 9661TIP3   OH250397   5.482   5.891   5.144  0.1000  0.1288 -0.0028
 9661TIP3    H150398   5.559   5.942   5.118  1.7493 -1.6829  1.1266
 9661TIP3    H250399   5.420   5.902   5.072  0.2794  3.8658  0.3016
 9662TIP3   OH250400   3.097   2.854   4.674 -0.2142 -0.0920 -0.3359
 9662TIP3    H150401   3.167   2.792   4.693 -0.6146 -0.2241  0.7693
 9662TIP3    H250402   3.031   2.836   4.741 -0.9584  0.5618 -0.8843
 9663TIP3   OH250403   4.679   1.450  13.166  0.6071  0.0936 -0.7152
 9663TIP3    H150404   4.725   1.513  13.110 -1.0980  2.0395  0.0339
 9663TIP3    H250405   4.714   1.466  13.254 -1.3372  1.4735 -0.1671
 9664TIP3   OH250406   6.038   5.520  11.925 -0.2735  0.2562 -0.2535
 9664TIP3    H150407   6.013   5.428  11.915  3.5474 -0.6991 -1.9339
 9664TIP3    H250408   6.062   5.548  11.837 -0.7038  2.6902  0.3625
 9665TIP3   OH250409   5.303   4.815   5.941 -0.3308  0.3878 -0.2153
 9665TIP3    H150410   5.371   4.793   6.005  0.7237  1.7906 -0.8096
 9665TIP3    H250411   5.293   4.736   5.888  2.1487  0.7198 -1.2532
 9666TIP3   OH250412   0.272   0.319  15.082  0.2521 -0.4519 -0.3140
 9666TIP3    H150413   0.279   0.334  15.176  2.4142 -3.0740  0.0102
 9666TIP3    H250414   0.239   0.229  15.076  1.6192 -0.8483 -2.0488
 9667TIP3   OH250415   0.415   6.778   5.625  0.0560  0.1790 -0.4068
 9667TIP3    H150416   0.483   6.712   5.617 -0.1483 -0.0660 -0.1452
 9667TIP3    H250417   0.407   6.793   5.719 -0.3681  0.0795 -0.4244
 9668TIP3   OH250418   0.888   3.128  16.768  0.1953  0.0061  0.4332
 9668TIP3    H150419   0.871   3.215  16.803  1.8357  1.0405 -1.2690
 9668TIP3    H250420   0.910   3.143  16.676 -0.2864 -2.2866 -0.0821
 9669TIP3   OH250421   4.207   1.186  15.364  0.1811  0.0301 -0.2085
 9669TIP3    H150422   4.192   1.145  15.449 -0.0819  0.7178  0.0729
 9669TIP3    H250423   4.274   1.252  15.380 -0.5467  0.8122 -0.3371
 9670TIP3   OH250424   0.891   1.026   2.465 -0.7281  0.1984 -0.1825
 9670TIP3    H150425   0.925   1.072   2.388 -1.1160 -0.3423 -0.6902
 9670TIP3    H250426   0.796   1.031   2.455 -0.8094  2.1336  1.4860
 9671TIP3   OH250427   1.839   0.056   3.883  0.2825 -0.0602 -0.1169
 9671TIP3    H150428   1.836   0.027   3.974 -1.6633 -1.0556 -0.4694
 9671TIP3    H250429   1.931   0.044   3.857  0.1993 -2.8911  0.7324
 9672TIP3   OH250430   3.335   0.529  14.772 -0.1390  0.6154 -0.2389
 9672TIP3    H150431   3.266   0.520  14.706  0.6203  2.7370 -1.3805
 9672TIP3    H250432   3.291   0.510  14.855 -1.2518 -1.4817 -1.2798
 9673TIP3   OH250433   2.346   4.054   2.286 -0.7964 -0.5018  0.1473
 9673TIP3    H150434   2.388   3.994   2.348 -0.7309  1.0272  1.6291
 9673TIP3    H250435   2.275   4.093   2.335 -1.1341  0.2906 -0.9515
 9674TIP3   OH250436   1.060   2.927  12.473 -0.4360 -0.1159  0.0507
 9674TIP3    H150437   1.147   2.887  12.467 -0.1451  0.0153  2.5373
 9674TIP3    H250438   1.075   3.010  12.518 -1.7621  0.1493  0.0188
 9675TIP3   OH250439   2.131   4.799   0.671 -0.1434  0.4557  0.6479
 9675TIP3    H150440   2.075   4.722   0.668 -0.8241  0.9497  0.6877
 9675TIP3    H250441   2.144   4.816   0.764  0.4947  0.0425  0.6414
 9676TIP3   OH250442   1.214   4.971  11.839 -0.6559 -0.1229  0.0045
 9676TIP3    H150443   1.264   4.975  11.758  1.2923  0.9406  1.2136
 9676TIP3    H250444   1.226   4.882  11.870  1.3705  0.3985  0.7935
 9677TIP3   OH250445   2.118   6.251  14.024 -0.0401  0.5956 -0.1208
 9677TIP3    H150446   2.038   6.228  14.070  0.1815 -0.9793 -0.4949
 9677TIP3    H250447   2.102   6.227  13.933  1.1834 -0.6521 -0.0343
 9678TIP3   OH250448   1.262   4.345   5.187 -0.0767 -0.2809 -0.0109
 9678TIP3    H150449   1.184   4.393   5.217  0.2017  0.1951 -0.0378
 9678TIP3    H250450   1.253   4.340   5.092  1.8311  3.2449 -0.4880
 9679TIP3   OH250451   0.692   5.681   0.129 -0.0721 -0.1060  0.3001
 9679TIP3    H150452   0.639   5.640   0.198  0.1059 -0.4844  0.2110
 9679TIP3    H250453   0.693   5.774   0.152 -0.3353 -0.1748  0.5962
 9680TIP3   OH250454   2.024   0.503   5.623 -0.1605  0.2583  0.2708
 9680TIP3    H150455   2.089   0.493   5.692  0.8057  2.0053 -0.3664
 9680TIP3    H250456   1.964   0.569   5.657 -0.8728 -0.3910  0.2950
 9681TIP3   OH250457   0.026   0.271   5.756  0.9055  0.2072  0.1445
 9681TIP3    H150458  -0.049   0.225   5.793  0.6072 -0.5990 -1.4029
 9681TIP3    H250459  -0.003   0.361   5.747  0.2079 -0.0464 -0.1721
 9682TIP3   OH250460   2.837   2.935  14.437  0.3275 -0.3586 -0.3416
 9682TIP3    H150461   2.920   2.973  14.465 -0.4379 -0.2621  1.9782
 9682TIP3    H250462   2.787   2.926  14.518 -1.3815 -1.7464 -1.5111
 9683TIP3   OH250463   5.229   6.222  12.954 -0.4793 -0.0588 -0.1411
 9683TIP3    H150464   5.214   6.310  12.986 -0.9632 -0.0786 -0.3030
 9683TIP3    H250465   5.275   6.234  12.871 -0.4158  0.0365 -0.0921
 9684TIP3   OH250466   6.482   0.882  14.693 -0.0869  0.0936 -0.6255
 9684TIP3    H150467   6.558   0.913  14.644 -0.2945  0.9561 -0.4101
 9684TIP3    H250468   6.477   0.940  14.769 -1.5022  0.6215 -1.1093
 9685TIP3   OH250469   1.368   5.768  12.963  0.3135 -0.4546  0.0096
 9685TIP3    H150470   1.284   5.789  13.003 -0.4810  1.0329 -2.3482
 9685TIP3    H250471   1.359   5.677  12.936 -0.3870 -0.4188  0.1101
 9686TIP3   OH250472   0.050   3.332   2.914 -0.3452  0.1902 -0.0816
 9686TIP3    H150473   0.062   3.321   2.819 -1.8743  0.6922 -0.3473
 9686TIP3    H250474   0.092   3.415   2.934 -0.3743  0.2807 -0.3904
 9687TIP3   OH250475   4.704   1.178   2.108  0.4979 -0.2858 -0.6323
 9687TIP3    H150476   4.648   1.137   2.175 -1.7056  0.1125 -2.1579
 9687TIP3    H250477   4.777   1.117   2.097 -0.2832 -1.4568  0.5273
 9688TIP3   OH250478   2.210   4.233  16.252  0.1504 -0.2378  0.6597
 9688TIP3    H150479   2.184   4.324  16.268 -0.0254  0.3360 -2.4859
 9688TIP3    H250480   2.264   4.209  16.327 -0.7517  2.0784  2.0885
 9689TIP3   OH250481   5.351   5.890  13.044  0.5891 -0.6009 -0.5248
 9689TIP3    H150482   5.306   5.959  13.092 -0.6152 -1.6889 -0.0631
 9689TIP3    H250483   5.444   5.911  13.053  0.2866  0.2741  0.6431
 9690TIP3   OH250484   2.882   3.093   5.153  0.1289  0.1031 -0.6021
 9690TIP3    H150485   2.826   3.031   5.200  0.4255 -0.3351 -0.8248
 9690TIP3    H250486   2.832   3.175   5.153  0.6546  0.4775  1.6100
 9691TIP3   OH250487   5.592   4.532   2.626  0.4657 -0.5056  0.4248
 9691TIP3    H150488   5.652   4.517   2.699  0.4839 -0.5971  0.3905
 9691TIP3    H250489   5.604   4.625   2.604 -0.3524 -0.2004  1.2502
 9692TIP3   OH250490   4.899   6.291   1.384 -0.3710  0.5367 -0.7105
 9692TIP3    H150491   4.916   6.245   1.302 -0.5118 -0.6663 -0.0722
 9692TIP3    H250492   4.903   6.384   1.361  1.8597  0.2453 -1.6181
 9693TIP3   OH250493   5.600   2.369   0.411  0.2550 -0.2281 -0.3191
 9693TIP3    H150494   5.597   2.399   0.320 -1.0759 -1.3306 -0.6533
 9693TIP3    H250495   5.510   2.378   0.443  0.2718 -1.7595  0.2364
 9694TIP3   OH250496   0.711   4.816  13.558 -0.3599 -0.2376 -0.0377
 9694TIP3    H150497   0.662   4.895  13.535 -1.1160 -0.1938  1.6379
 9694TIP3    H250498   0.653   4.769  13.618  1.6213 -0.1991  1.9619
 9695TIP3   OH250499   0.549   1.154   4.010 -0.2667  0.0803 -0.3696
 9695TIP3    H150500   0.470   1.206   3.997  0.3732  0.7998 -1.4109
 9695TIP3    H250501   0.621   1.217   4.011  0.4153 -0.6718 -0.6127
 9696TIP3   OH250502   3.925   0.901   2.307 -0.2425 -0.0610 -0.0294
 9696TIP3    H150503   3.900   0.953   2.384  0.0019 -1.0471  0.7314
 9696TIP3    H250504   3.886   0.815   2.323  2.0099 -1.0598  0.2513
 9697TIP3   OH250505   4.735   3.067  12.784  0.1051  0.1803  0.8316
 9697TIP3    H150506   4.665   3.004  12.771  0.1321  0.1904  0.6233
 9697TIP3    H250507   4.731   3.123  12.706  2.2576 -1.6660 -0.6742
 9698TIP3   OH250508   1.237   2.956  15.820  0.2748 -0.1614 -0.7215
 9698TIP3    H150509   1.204   3.045  15.834 -0.4439 -0.7858  1.9866
 9698TIP3    H250510   1.297   2.941  15.893  2.8077 -0.8410 -2.8484
 9699TIP3   OH250511   6.589   6.422  16.506  0.4567 -0.6301  0.1697
 9699TIP3    H150512   6.511   6.392  16.552  0.9567 -0.8852  0.8658
 9699TIP3    H250513   6.644   6.460  16.574  0.4940  0.4936 -0.4741
 9700TIP3   OH250514   6.212   5.474  15.600  0.1479  0.6639 -0.5120
 9700TIP3    H150515   6.153   5.416  15.552  0.7881 -0.8752  0.5255
 9700TIP3    H250516   6.293   5.472  15.550  0.5961 -0.4066  0.2300
 9701TIP3   OH250517   2.728   0.317   4.889 -0.0103  0.0684 -0.3763
 9701TIP3    H150518   2.704   0.408   4.908  0.6562  0.1069  0.2906
 9701TIP3    H250519   2.823   0.315   4.897 -0.0751 -0.8392  0.2854
 9702TIP3   OH250520   2.509   2.463   5.145 -0.1261 -0.0621 -0.0683
 9702TIP3    H150521   2.446   2.501   5.084  0.1712  0.1573 -0.2366
 9702TIP3    H250522   2.589   2.514   5.133 -0.5321  1.0552  1.6559
 9703TIP3   OH250523   5.820   5.963   5.327  0.7875 -0.0503  0.1463
 9703TIP3    H150524   5.765   6.041   5.332 -0.9263 -1.2259  0.2166
 9703TIP3    H250525   5.804   5.928   5.239  2.7257  0.5026 -0.4514
 9704TIP3   OH250526   0.877   4.790  14.222 -0.2675  0.0302  0.1566
 9704TIP3    H150527   0.933   4.718  14.193  0.4321  0.0192  1.5100
 9704TIP3    H250528   0.801   4.748  14.261 -0.6307  0.0468 -0.5115
 9705TIP3   OH250529   3.279   3.988   3.965 -0.2236  0.7442  0.5070
 9705TIP3    H150530   3.265   4.056   4.031 -1.3200  1.1702 -0.1655
 9705TIP3    H250531   3.351   4.021   3.912  0.9345  0.2246  1.7056
 9706TIP3   OH250532   2.475   3.858  12.726 -0.1776 -0.0510 -0.4401
 9706TIP3    H150533   2.533   3.885  12.654 -0.5972 -0.3487 -0.8952
 9706TIP3    H250534   2.443   3.772  12.699  0.9314 -0.8918  0.8645
 9707TIP3   OH250535   1.067   3.967  13.630  0.3653 -0.1416  0.1487
 9707TIP3    H150536   1.006   4.018  13.683  0.2137 -0.2466  0.0736
 9707TIP3    H250537   1.020   3.950  13.548  0.4781 -0.2582  0.1062
 9708TIP3   OH250538   6.450   1.025  14.034 -0.3502 -0.1024 -0.1569
 9708TIP3    H150539   6.407   1.048  14.116  0.6924  1.5105 -0.0506
 9708TIP3    H250540   6.412   0.940  14.011  0.1700 -1.1529  2.5736
 9709TIP3   OH250541   1.090   1.948   0.269  0.1807 -0.2879 -0.1022
 9709TIP3    H150542   1.122   1.942   0.179 -0.2773  2.0526 -0.4442
 9709TIP3    H250543   1.029   1.875   0.278 -0.3202 -0.1106 -1.9286
 9710TIP3   OH250544   1.956   4.948  15.427 -0.2837 -0.3253 -0.4076
 9710TIP3    H150545   1.871   4.911  15.454  0.0853  1.1488  3.0601
 9710TIP3    H250546   1.935   5.035  15.394 -0.2016 -0.2276 -0.2031
 9711TIP3   OH250547   3.911   4.262  15.656  1.2449  0.0753 -0.4814
 9711TIP3    H150548   3.875   4.280  15.569  0.9281 -0.6278 -0.5006
 9711TIP3    H250549   3.859   4.317  15.715 -0.8640 -1.9869 -0.3303
 9712TIP3   OH250550   2.441   2.487   2.163  0.1281 -0.3773 -0.7378
 9712TIP3    H150551   2.367   2.429   2.146 -0.4659  0.4929 -1.1770
 9712TIP3    H250552   2.506   2.432   2.205 -0.5540 -1.2847 -0.8675
 9713TIP3   OH250553   3.124   6.120   2.435  0.7673  0.0896  0.3315
 9713TIP3    H150554   3.134   6.082   2.347  1.4763  1.0889 -0.0198
 9713TIP3    H250555   3.212   6.118   2.472  0.7600  1.1690  0.4030
 9714TIP3   OH250556   0.680   1.292   1.795  0.0168  0.1920 -0.5647
 9714TIP3    H150557   0.763   1.269   1.752  0.6959  3.2293 -0.9739
 9714TIP3    H250558   0.697   1.275   1.888  0.7457 -0.1435 -0.7477
 9715TIP3   OH250559   2.649   1.870  12.336  0.2518 -0.6339  0.6104
 9715TIP3    H150560   2.666   1.847  12.245 -0.4911  0.7656  0.1067
 9715TIP3    H250561   2.699   1.951  12.351 -0.7204 -0.1038  1.0319
 9716TIP3   OH250562   4.976   5.884  16.647  0.2490 -0.0976  1.6312
 9716TIP3    H150563   4.950   5.937  16.722 -3.0432  0.0423  0.4870
 9716TIP3    H250564   4.912   5.812  16.646  0.1666 -0.0225 -1.0692
 9717TIP3   OH250565   4.869   0.114   3.575  0.9081 -0.1723  0.0529
 9717TIP3    H150566   4.809   0.189   3.580  1.5474  0.2564  1.2332
 9717TIP3    H250567   4.865   0.074   3.662 -0.6489 -2.4788 -1.0122
 9718TIP3   OH250568   3.960   1.370   0.520 -0.1333  0.2475 -0.7260
 9718TIP3    H150569   4.052   1.349   0.530 -0.4359 -1.1020 -0.7287
 9718TIP3    H250570   3.913   1.291   0.548 -1.3340  1.4938  0.8758
 9719TIP3   OH250571   3.480   1.162   3.146  0.4715 -0.0335 -0.3829
 9719TIP3    H150572   3.458   1.156   3.239 -0.8777  0.0534 -0.6863
 9719TIP3    H250573   3.534   1.085   3.129  2.9600  1.3370  1.0521
 9720TIP3   OH250574   4.440   4.022   1.701 -0.3264  0.5802  0.5481
 9720TIP3    H150575   4.407   4.110   1.719 -0.3969  0.8573 -0.9329
 9720TIP3    H250576   4.511   4.034   1.639  0.7177 -0.2772  1.5371
 9721TIP3   OH250577   4.725   3.780   0.692 -1.0364  0.2019 -0.0578
 9721TIP3    H150578   4.789   3.832   0.644 -1.4201 -0.1554 -0.9588
 9721TIP3    H250579   4.746   3.795   0.784  0.2887  0.1486 -0.3488
 9722TIP3   OH250580   1.863   5.943  15.747 -0.2248  0.1502  0.6818
 9722TIP3    H150581   1.820   6.007  15.692 -0.2987 -0.8733 -0.4709
 9722TIP3    H250582   1.912   5.995  15.811  0.0736  1.3579 -0.5008
 9723TIP3   OH250583   5.927   1.269   6.444  0.1586  0.3857  0.4826
 9723TIP3    H150584   5.943   1.351   6.398 -1.2911  0.6730  0.4710
 9723TIP3    H250585   5.979   1.276   6.524 -0.1007  1.3925  0.5687
 9724TIP3   OH250586   6.526   1.719  15.235  0.8158  0.1168  0.1020
 9724TIP3    H150587   6.454   1.690  15.179 -0.2278 -0.6357  1.8166
 9724TIP3    H250588   6.574   1.638  15.255  1.0237  0.3497  0.5344
 9725TIP3   OH250589   3.209   6.634  14.753 -0.4891 -0.6381 -0.2564
 9725TIP3    H150590   3.192   6.585  14.672 -1.2434  0.3802 -0.7305
 9725TIP3    H250591   3.125   6.636  14.798  0.2945 -2.6074  1.3753
 9726TIP3   OH250592   6.430   1.359  13.726 -0.7168 -0.0926 -0.3843
 9726TIP3    H150593   6.404   1.267  13.720 -0.4038 -0.2437  0.4652
 9726TIP3    H250594   6.358   1.407  13.685 -0.3792 -0.7827 -1.8331
 9727TIP3   OH250595   3.270   1.043  12.599 -0.1370 -0.2444  0.0699
 9727TIP3    H150596   3.302   1.125  12.638 -0.3363  0.9595 -2.1778
 9727TIP3    H250597   3.194   1.019  12.651 -0.8727  1.7524 -0.0493
 9728TIP3   OH250598   5.222   2.258   6.583 -0.0441  0.0268 -0.2681
 9728TIP3    H150599   5.185   2.189   6.639  0.2400  0.2465  0.1949
 9728TIP3    H250600   5.226   2.219   6.496 -0.0497 -0.4802 -0.0427
 9729TIP3   OH250601   2.065   4.603  13.656 -0.4314 -0.0116  0.3165
 9729TIP3    H150602   2.140   4.556  13.692 -0.3934  0.1003  0.3820
 9729TIP3    H250603   2.028   4.650  13.730  0.2114  0.9731  0.0133
 9730TIP3   OH250604   0.480   1.756   5.232  0.8946  0.2687 -0.4414
 9730TIP3    H150605   0.542   1.781   5.301  1.2904  0.1263 -0.7443
 9730TIP3    H250606   0.469   1.662   5.242 -1.0733  0.6089  1.0922
 9731TIP3   OH250607   2.827   6.301   2.344 -0.6037 -0.1939  0.4229
 9731TIP3    H150608   2.879   6.330   2.418 -1.3133 -2.3165  1.8007
 9731TIP3    H250609   2.736   6.311   2.372 -0.8830 -0.8964 -0.1832
 9732TIP3   OH250610   1.326   3.174  17.058  0.1562 -0.8282  0.0474
 9732TIP3    H150611   1.317   3.135  16.971 -0.4678  0.4867 -0.4862
 9732TIP3    H250612   1.403   3.231  17.050  0.5536 -1.2844  0.5858
 9733TIP3   OH250613   1.991   4.120   0.528 -0.1586  0.1934  0.3335
 9733TIP3    H150614   1.975   4.212   0.546 -0.5283  0.4328 -1.1010
 9733TIP3    H250615   2.022   4.084   0.611  1.1860  1.8729  0.6047
 9734TIP3   OH250616   0.167   6.227  16.235 -0.0472 -0.0948  0.1548
 9734TIP3    H150617   0.081   6.185  16.248 -0.7598  1.5567  0.8028
 9734TIP3    H250618   0.175   6.289  16.306  1.5143  0.0863 -0.1673
 9735TIP3   OH250619   2.170   3.482  17.027  0.0484  0.1671  0.3540
 9735TIP3    H150620   2.182   3.559  16.971  1.5202  0.8492  1.5904
 9735TIP3    H250621   2.076   3.464  17.023 -0.2966  1.9836 -0.0040
 9736TIP3   OH250622   0.336   3.418   0.619  0.2910  0.1566  0.1865
 9736TIP3    H150623   0.407   3.354   0.614  0.2950  0.2325 -0.8250
 9736TIP3    H250624   0.368   3.485   0.680  1.8405  1.1105 -1.6220
 9737TIP3   OH250625   5.506   5.420   5.320  0.4057 -0.0318  0.0767
 9737TIP3    H150626   5.481   5.475   5.393 -1.0896  0.0771 -0.5037
 9737TIP3    H250627   5.500   5.477   5.243  1.2182 -0.3468 -0.2280
 9738TIP3   OH250628   2.489   0.790   1.875 -0.0031 -0.0996 -0.5626
 9738TIP3    H150629   2.478   0.856   1.807 -0.2082  0.9635  0.4854
 9738TIP3    H250630   2.584   0.784   1.887  0.0226 -0.1138 -0.7741
 9739TIP3   OH250631   6.607   0.546   3.143 -0.8141  0.5341  0.0925
 9739TIP3    H150632   6.668   0.583   3.208  0.9674 -1.8063 -0.1824
 9739TIP3    H250633   6.650   0.560   3.059 -1.7937  0.9952 -0.3380
 9740TIP3   OH250634   4.206   2.928  13.723  0.0436  0.0579 -0.1035
 9740TIP3    H150635   4.190   2.900  13.813  0.6782 -3.9760 -1.1574
 9740TIP3    H250636   4.132   2.894  13.673  0.5401  0.7985 -1.3823
 9741TIP3   OH250637   2.711   4.094   4.370 -0.0267 -0.4306 -0.8363
 9741TIP3    H150638   2.714   4.133   4.283  0.7255  0.3622 -0.4591
 9741TIP3    H250639   2.803   4.082   4.394 -0.1960  0.7170  0.4490
 9742TIP3   OH250640   0.400   2.097   1.309 -0.3244 -0.5139  0.1690
 9742TIP3    H150641   0.381   2.026   1.370  0.0453 -0.2419  0.6093
 9742TIP3    H250642   0.356   2.173   1.346 -1.6538 -0.7589 -0.8977
 9743TIP3   OH250643   1.908   2.845  11.685 -0.0929  0.4861  0.3076
 9743TIP3    H150644   1.954   2.888  11.757 -0.9806  1.0273  0.5598
 9743TIP3    H250645   1.816   2.854  11.706 -0.3382 -0.0560 -0.4997
 9744TIP3   OH250646   2.415   3.203   1.355  0.3804  0.5636 -0.3629
 9744TIP3    H150647   2.329   3.215   1.394 -0.4378 -1.5613 -1.4891
 9744TIP3    H250648   2.429   3.109   1.353  1.6891  0.7586 -2.4538
 9745TIP3   OH250649   6.452   1.729   1.845  0.1478 -0.0115 -0.3503
 9745TIP3    H150650   6.499   1.671   1.905 -0.9696 -0.0348  0.5106
 9745TIP3    H250651   6.521   1.776   1.798  1.0636 -2.0395 -1.0567
 9746TIP3   OH250652   3.077   6.257  15.278 -0.2687  0.2810 -0.1025
 9746TIP3    H150653   3.144   6.238  15.213 -0.7734 -0.5092 -0.3917
 9746TIP3    H250654   3.019   6.181  15.276 -0.7793  0.6471  0.6437
 9747TIP3   OH250655   3.408   0.245  14.901  0.7964  0.2416 -0.1517
 9747TIP3    H150656   3.452   0.164  14.925 -0.4584  0.2579  2.4507
 9747TIP3    H250657   3.440   0.309  14.965 -1.0805  0.8404  0.2140
 9748TIP3   OH250658   4.453   4.098  13.971 -0.2945 -0.1822  0.3748
 9748TIP3    H150659   4.392   4.136  14.035  0.1359 -0.7719  1.1378
 9748TIP3    H250660   4.398   4.042  13.917 -0.8986  1.3181 -0.6025
 9749TIP3   OH250661   5.551   4.666  13.901 -0.4641  0.3473 -0.0828
 9749TIP3    H150662   5.502   4.648  13.982 -2.0519 -3.6336 -1.7760
 9749TIP3    H250663   5.484   4.694  13.839  0.1804 -0.0737 -0.9766
 9750TIP3   OH250664   1.265   3.184   6.090  0.6093  1.1216  0.4536
 9750TIP3    H150665   1.184   3.236   6.088  0.5658  1.0125 -1.5803
 9750TIP3    H250666   1.335   3.249   6.095  0.4777  1.3259 -0.2351
 9751TIP3   OH250667   1.955   4.732   3.788 -0.3668  0.8291 -0.1101
 9751TIP3    H150668   1.913   4.719   3.703  0.1121 -1.1115 -0.0863
 9751TIP3    H250669   1.919   4.662   3.843  2.4929 -0.5926  0.0326
 9752TIP3   OH250670   1.424   1.683   3.829  0.6371  0.0260  0.0376
 9752TIP3    H150671   1.417   1.776   3.851  0.3814  0.0167 -0.0058
 9752TIP3    H250672   1.497   1.652   3.881  2.5677  0.8893 -2.0365
 9753TIP3   OH250673   1.245   3.092  16.421 -0.2927  0.0288  0.6984
 9753TIP3    H150674   1.281   3.133  16.500 -0.3870  0.4465  0.5254
 9753TIP3    H250675   1.306   3.115  16.351 -2.1533  2.8429 -0.0888
 9754TIP3   OH250676   1.231   3.492   6.355 -0.1492  0.6775 -0.2532
 9754TIP3    H150677   1.324   3.490   6.377 -0.1535 -0.5791 -0.3058
 9754TIP3    H250678   1.226   3.548   6.277  0.7031 -0.0616 -0.8594
 9755TIP3   OH250679   4.648   1.436   4.353  0.7593  0.6455  0.6113
 9755TIP3    H150680   4.666   1.515   4.302 -1.5441  0.3063 -0.7752
 9755TIP3    H250681   4.568   1.457   4.401  0.3660 -0.7189  0.5504
 9756TIP3   OH250682   6.645   2.390  12.630 -0.8308 -0.3713  0.4908
 9756TIP3    H150683   6.578   2.432  12.576 -0.6124 -0.0687  0.4529
 9756TIP3    H250684   6.728   2.413  12.589 -0.7529 -1.6396 -0.0732
 9757TIP3   OH250685   2.966   1.352   0.252 -0.2506  0.2443 -0.2821
 9757TIP3    H150686   2.956   1.257   0.242  2.1698 -0.0096 -0.5826
 9757TIP3    H250687   2.958   1.387   0.163  0.1364  0.1839 -0.3416
 9758TIP3   OH250688   0.737   6.453   2.932  0.0048  0.6252  0.0387
 9758TIP3    H150689   0.742   6.471   2.838  0.2785 -2.8105 -0.6652
 9758TIP3    H250690   0.828   6.439   2.958 -0.0215  2.0219  0.9534
 9759TIP3   OH250691   2.895   4.294  12.843 -0.3294  0.0359 -0.3823
 9759TIP3    H150692   2.821   4.237  12.825 -0.2709 -0.6418  1.4027
 9759TIP3    H250693   2.950   4.287  12.765 -1.5833 -0.3359 -1.2449
 9760TIP3   OH250694   5.478   6.749   3.711  0.1367 -0.0124 -0.4047
 9760TIP3    H150695   5.427   6.742   3.630 -1.5064  1.6117  0.4597
 9760TIP3    H250696   5.492   6.843   3.723  0.8969 -0.2781  0.8906
 9761TIP3   OH250697   1.368   1.543  15.423 -0.2370 -0.6966  0.0202
 9761TIP3    H150698   1.326   1.579  15.345  1.3116 -0.4858 -0.7273
 9761TIP3    H250699   1.428   1.612  15.452 -0.6453 -0.8619  1.2643
 9762TIP3   OH250700   2.921   6.280   4.265  0.6609 -0.0883 -0.2489
 9762TIP3    H150701   2.878   6.292   4.350 -1.6544  0.5571 -1.4815
 9762TIP3    H250702   2.928   6.185   4.255  0.9101 -0.1678  0.6362
 9763TIP3   OH250703   0.906   2.542  11.076  0.2498  0.4329 -0.6495
 9763TIP3    H150704   0.924   2.545  11.170 -0.2941  0.0716 -0.5274
 9763TIP3    H250705   0.987   2.572  11.034  1.2799 -1.6147 -0.1445
 9764TIP3   OH250706   2.632   3.275   0.236 -0.8693  0.1753 -0.1727
 9764TIP3    H150707   2.640   3.211   0.306 -2.6779 -1.7402 -1.6448
 9764TIP3    H250708   2.546   3.315   0.249 -0.7270  0.6490 -0.6304
 9765TIP3   OH250709   0.490   1.306   3.660  0.0968 -0.2854 -0.3850
 9765TIP3    H150710   0.543   1.366   3.714  0.5340  1.9327 -3.1057
 9765TIP3    H250711   0.401   1.340   3.667 -0.2429 -1.4099  0.7818
 9766TIP3   OH250712   1.040   0.408   6.149 -0.0521 -0.3741 -0.0481
 9766TIP3    H150713   1.055   0.491   6.195  1.4492 -1.3666  1.2766
 9766TIP3    H250714   1.053   0.430   6.056  0.7727  0.7770  0.3229
 9767TIP3   OH250715   3.582   0.890   6.039  0.1386 -0.0978  0.2313
 9767TIP3    H150716   3.604   0.947   6.113  0.0166  1.9308 -1.2478
 9767TIP3    H250717   3.486   0.888   6.038  0.1372 -1.5199  1.1310
 9768TIP3   OH250718   1.463   4.382  14.658  0.2412 -0.1165  0.2333
 9768TIP3    H150719   1.426   4.427  14.582 -1.0791 -1.7603 -0.1266
 9768TIP3    H250720   1.513   4.310  14.622 -1.5259 -1.7355  0.9356
 9769TIP3   OH250721   1.163   5.929  15.231  0.1839  0.2634 -0.5817
 9769TIP3    H150722   1.084   5.875  15.240 -1.1427  2.0920 -0.9872
 9769TIP3    H250723   1.169   5.947  15.138  1.0737  0.1759 -0.5420
 9770TIP3   OH250724   1.537   3.532   0.808 -0.7518  0.3266  0.4450
 9770TIP3    H150725   1.547   3.453   0.862  0.9918  0.0256 -0.2665
 9770TIP3    H250726   1.501   3.500   0.725 -0.2127  0.3051  0.2194
 9771TIP3   OH250727   4.356   5.844  13.483  0.6205  0.4030 -0.2786
 9771TIP3    H150728   4.414   5.900  13.430 -1.1107  0.1617 -2.5245
 9771TIP3    H250729   4.379   5.755  13.456  0.4100  0.2366  0.1014
 9772TIP3   OH250730   4.455   1.906  13.176 -0.0235 -0.4469 -0.0323
 9772TIP3    H150731   4.498   1.965  13.114 -0.1075 -0.3704 -0.0182
 9772TIP3    H250732   4.430   1.830  13.124 -0.4613 -0.2056 -0.1792
 9773TIP3   OH250733   6.757   2.395  16.999  0.1358  0.5202 -0.1564
 9773TIP3    H150734   6.691   2.411  17.066  0.4466  3.0298 -0.3904
 9773TIP3    H250735   6.827   2.349  17.045 -1.8241 -2.4210  0.0276
 9774TIP3   OH250736   0.576   4.617  12.534  0.2936 -0.1831  0.2024
 9774TIP3    H150737   0.638   4.547  12.515  1.4729  0.9598 -0.2956
 9774TIP3    H250738   0.522   4.584  12.606  1.0177 -1.4709  0.1621
 9775TIP3   OH250739   0.861   0.507   1.841  0.0732  0.3886  0.2538
 9775TIP3    H150740   0.902   0.422   1.822 -1.4867 -0.4347  0.4632
 9775TIP3    H250741   0.820   0.533   1.759  1.9794  1.7820 -0.2846
 9776TIP3   OH250742   4.843   1.077   2.631  0.1598  0.1556  0.1628
 9776TIP3    H150743   4.917   1.136   2.643  0.8753 -1.1597  2.5592
 9776TIP3    H250744   4.766   1.133   2.643  0.7296  1.4508 -1.9776
 9777TIP3   OH250745   0.141   3.752  12.547  0.1508  0.3581  0.6562
 9777TIP3    H150746   0.131   3.657  12.543 -1.1431  0.4785  0.9795
 9777TIP3    H250747   0.134   3.773  12.640 -2.7355  1.0927  0.3217
 9778TIP3   OH250748   5.933   2.347  15.730  0.5718 -0.2052  0.4334
 9778TIP3    H150749   6.028   2.348  15.716  0.3842 -2.7422 -1.3888
 9778TIP3    H250750   5.903   2.268  15.684 -2.2538 -0.1732  2.1323
 9779TIP3   OH250751   4.514   3.403   1.125 -0.2427  0.6709  0.2178
 9779TIP3    H150752   4.591   3.350   1.103 -1.0569 -0.5189  0.1486
 9779TIP3    H250753   4.545   3.493   1.125  1.2921  0.1553  0.7978
 9780TIP3   OH250754   5.128   3.006  16.136 -0.1784  0.5158  0.1766
 9780TIP3    H150755   5.146   2.927  16.085 -0.6496 -0.7097  1.8494
 9780TIP3    H250756   5.035   3.023  16.123 -0.0035  1.0168 -0.4612
 9781TIP3   OH250757   5.314   3.254   2.640  0.4809 -0.4494  0.1510
 9781TIP3    H150758   5.262   3.198   2.583  0.3812 -0.4922  0.2831
 9781TIP3    H250759   5.394   3.272   2.590  0.2739 -0.2605 -0.1139
 9782TIP3   OH250760   4.187   4.305   0.115  0.2162 -0.1139 -0.9173
 9782TIP3    H150761   4.180   4.316   0.209  0.5788 -1.0080 -0.7771
 9782TIP3    H250762   4.236   4.381   0.085  0.0897  0.1753 -0.3862
 9783TIP3   OH250763   3.889   1.615  16.668  0.3873  0.2108  0.4225
 9783TIP3    H150764   3.858   1.678  16.733 -0.6335 -0.1869  0.3250
 9783TIP3    H250765   3.901   1.666  16.588 -3.8074 -0.3117 -0.6514
 9784TIP3   OH250766   2.081   1.521  12.947 -0.1630  0.3077  0.0122
 9784TIP3    H150767   2.081   1.453  13.014  1.3869  1.5562  1.3221
 9784TIP3    H250768   2.023   1.589  12.982  1.0964  1.2114  0.3826
 9785TIP3   OH250769   2.045   2.862  13.643  0.6703 -0.1691 -0.6474
 9785TIP3    H150770   2.105   2.923  13.684  1.6358 -1.2756 -0.3859
 9785TIP3    H250771   1.989   2.832  13.715  0.5651 -0.0274 -0.6697
 9786TIP3   OH250772   3.124   0.583  11.923 -0.0588 -0.2217  0.8021
 9786TIP3    H150773   3.121   0.514  11.857 -0.1480 -1.1546  1.7825
 9786TIP3    H250774   3.146   0.662  11.873  2.3280 -1.3438  0.0023
 9787TIP3   OH250775   2.610   4.651  12.423 -0.0780 -0.4611 -0.3648
 9787TIP3    H150776   2.569   4.703  12.492 -0.2710  0.0045 -0.8298
 9787TIP3    H250777   2.655   4.715  12.368  0.2878 -0.8560 -0.5302
 9788TIP3   OH250778   3.315   6.588  15.416  0.8117  0.0473 -0.3073
 9788TIP3    H150779   3.357   6.525  15.358  1.0482  0.9660 -1.1324
 9788TIP3    H250780   3.261   6.534  15.474  0.7381 -0.8922 -1.2357
 9789TIP3   OH250781   4.294   4.568  10.680  0.5938 -0.0681 -0.0692
 9789TIP3    H150782   4.365   4.629  10.659 -0.2015  0.3418 -1.6921
 9789TIP3    H250783   4.282   4.576  10.774  1.0271  1.7314 -0.1493
 9790TIP3   OH250784   6.692   6.671  12.290 -0.4362  0.2332 -1.0093
 9790TIP3    H150785   6.608   6.641  12.256 -0.1038 -0.9173 -0.8266
 9790TIP3    H250786   6.696   6.635  12.379  0.3542  0.1076 -1.0969
 9791TIP3   OH250787   3.172   0.683  13.067 -0.4122  0.0513  0.2900
 9791TIP3    H150788   3.207   0.772  13.076  2.2346 -1.0834  2.0786
 9791TIP3    H250789   3.113   0.687  12.992 -0.0502  3.2246  0.1160
 9792TIP3   OH250790   4.262   0.706  13.486 -0.3560 -0.1778 -0.3191
 9792TIP3    H150791   4.337   0.738  13.434  0.2113 -0.8347  0.0826
 9792TIP3    H250792   4.214   0.649  13.426 -0.0104 -0.4987 -0.2920
 9793TIP3   OH250793   2.607   4.281  14.494  0.4279 -0.1256 -0.1660
 9793TIP3    H150794   2.622   4.312  14.404 -0.6999  0.5389 -0.1322
 9793TIP3    H250795   2.611   4.360  14.547 -1.9737 -0.0777 -0.0178
 9794TIP3   OH250796   4.772   2.621  10.834 -0.5087 -0.1649  0.4221
 9794TIP3    H150797   4.704   2.569  10.791 -1.8424  0.2581  1.9770
 9794TIP3    H250798   4.787   2.695  10.776 -4.4380  2.0168  1.9715
 9795TIP3   OH250799   4.383   1.112   2.742  0.6570  0.0340 -0.1354
 9795TIP3    H150800   4.349   1.134   2.829 -0.3156 -0.0276 -0.4867
 9795TIP3    H250801   4.438   1.186   2.717 -0.3426  0.7840 -0.1347
 9796TIP3   OH250802   0.955   1.888  13.137  0.0342 -0.2501  0.1405
 9796TIP3    H150803   1.029   1.857  13.188 -1.6535  0.0203  2.8405
 9796TIP3    H250804   0.988   1.966  13.092  1.1164  0.4807  2.1350
 9797TIP3   OH250805   3.567   4.328   4.708 -0.3609 -0.2358 -0.2293
 9797TIP3    H150806   3.580   4.418   4.739 -0.2999 -0.8333  1.5423
 9797TIP3    H250807   3.516   4.286   4.778  2.3510 -2.4850  0.4614
 9798TIP3   OH250808   4.530   2.051   1.370 -0.1262  0.0283  0.0095
 9798TIP3    H150809   4.446   2.045   1.415  0.7992 -0.2629  1.7488
 9798TIP3    H250810   4.576   1.971   1.395  2.0438  1.8310  1.9835
 9799TIP3   OH250811   3.749   4.206   6.028 -0.1109 -0.2741 -0.4201
 9799TIP3    H150812   3.834   4.246   6.006 -0.4656 -0.2149 -1.6741
 9799TIP3    H250813   3.701   4.277   6.071 -0.3611  0.3717 -1.7384
 9800TIP3   OH250814   2.127   2.978   2.722  0.6265  0.2469 -0.3684
 9800TIP3    H150815   2.203   3.027   2.753  1.0515 -0.3761 -0.4197
 9800TIP3    H250816   2.161   2.892   2.699 -0.5819 -1.0037  2.3507
 9801TIP3   OH250817   1.223   3.886  12.863 -0.6039  0.5260  0.4037
 9801TIP3    H150818   1.257   3.973  12.840 -0.9886  0.2365 -1.3138
 9801TIP3    H250819   1.300   3.829  12.859 -0.6785  0.4698 -0.1751
 9802TIP3   OH250820   6.382   1.888   3.493 -0.2752  0.4111  0.2650
 9802TIP3    H150821   6.431   1.918   3.569 -1.0000  0.2660  0.7967
 9802TIP3    H250822   6.292   1.917   3.509 -0.8820 -1.5522  0.5341
 9803TIP3   OH250823   5.911   1.755   5.452 -0.2122 -0.5174 -0.2132
 9803TIP3    H150824   5.903   1.820   5.522 -0.1466 -0.2739 -0.4293
 9803TIP3    H250825   5.879   1.674   5.491 -0.2261 -0.3719  0.0825
 9804TIP3   OH250826   1.053   5.892   5.787 -0.2462 -0.0966  0.3386
 9804TIP3    H150827   1.075   5.968   5.840 -1.2244 -0.8189  1.8007
 9804TIP3    H250828   0.967   5.911   5.751  0.3085  0.2838 -0.8117
 9805TIP3   OH250829   1.425   0.964  12.832 -0.0263  0.1016  0.4200
 9805TIP3    H150830   1.483   1.020  12.781 -2.5849  1.3624 -1.1988
 9805TIP3    H250831   1.431   0.879  12.788 -2.1600  1.1565 -2.0291
 9806TIP3   OH250832   3.506   0.401   3.944 -0.2660 -0.0465 -0.6309
 9806TIP3    H150833   3.467   0.449   4.017  1.8612  0.5394  0.1562
 9806TIP3    H250834   3.505   0.462   3.871 -0.0815  0.2503 -0.3872
 9807TIP3   OH250835   6.107   4.362   4.232  0.5588 -0.0993 -0.2701
 9807TIP3    H150836   6.027   4.414   4.245  0.9182  0.5103 -0.4435
 9807TIP3    H250837   6.150   4.363   4.317  1.0848  0.7886 -0.5289
 9808TIP3   OH250838   2.650   1.022  15.308  0.1201 -0.1692  0.0967
 9808TIP3    H150839   2.658   0.986  15.396  0.5318 -0.6152 -0.1208
 9808TIP3    H250840   2.559   1.007  15.283  0.4188 -1.5576 -0.2043
 9809TIP3   OH250841   5.311   1.306  12.957 -0.2525 -0.4530 -0.1019
 9809TIP3    H150842   5.238   1.367  12.945 -0.8727 -1.2683 -0.5053
 9809TIP3    H250843   5.273   1.233  13.007  1.0443  0.5517  2.4417
 9810TIP3   OH250844   6.196   2.023   5.858  0.1253 -0.1321  0.0378
 9810TIP3    H150845   6.264   2.057   5.799  0.9137  0.9808  1.5415
 9810TIP3    H250846   6.176   2.097   5.916 -0.3816 -1.3018  1.3816
 9811TIP3   OH250847   5.328   6.290   4.171 -0.4462 -0.1961  0.7571
 9811TIP3    H150848   5.357   6.199   4.175  1.9099  0.4276 -0.7553
 9811TIP3    H250849   5.240   6.289   4.209 -1.1482 -3.3785 -0.7253
 9812TIP3   OH250850   6.079   1.305  11.716 -0.5072  0.1803 -0.2416
 9812TIP3    H150851   6.111   1.347  11.796 -1.4852 -2.0351  1.3443
 9812TIP3    H250852   5.989   1.335  11.707  0.2288  2.1074 -1.7376
 9813TIP3   OH250853   1.647   2.047  12.728 -0.2003  0.3076 -0.3920
 9813TIP3    H150854   1.575   1.984  12.728 -1.0132  1.1063  3.1473
 9813TIP3    H250855   1.705   2.017  12.798  0.9283  1.8088 -0.6563
 9814TIP3   OH250856   2.786   0.577   0.154 -0.7386 -0.2043  0.2374
 9814TIP3    H150857   2.813   0.644   0.217  1.5655 -1.0630  0.1969
 9814TIP3    H250858   2.690   0.585   0.151 -0.5972  2.3948  0.9831
 9815TIP3   OH250859   0.234   3.865  15.101  0.0093 -0.4475 -0.4613
 9815TIP3    H150860   0.233   3.929  15.172  0.3815 -0.1728 -0.6996
 9815TIP3    H250861   0.150   3.820  15.108  0.2259 -0.7341  0.4401
 9816TIP3   OH250862   5.810   1.786  12.270 -0.0543 -0.0352  0.5034
 9816TIP3    H150863   5.738   1.817  12.215  1.2308 -1.1599 -1.8806
 9816TIP3    H250864   5.787   1.695  12.292  0.7557 -0.5059 -0.5347
 9817TIP3   OH250865   4.410   3.365  11.389 -0.3932  0.3716  0.2822
 9817TIP3    H150866   4.366   3.435  11.341  0.0585  0.5289  0.0933
 9817TIP3    H250867   4.462   3.410  11.456 -0.1960  0.2095  0.2401
 9818TIP3   OH250868   5.195   0.584  13.777  0.2539 -0.1282  0.4165
 9818TIP3    H150869   5.159   0.497  13.792 -1.5653  0.8377  1.8832
 9818TIP3    H250870   5.124   0.644  13.801  2.5245  1.8224  2.5852
 9819TIP3   OH250871   4.428   2.716  16.872  0.1490 -0.5305 -0.2467
 9819TIP3    H150872   4.470   2.651  16.816  0.6371 -1.3195  1.0119
 9819TIP3    H250873   4.465   2.700  16.959 -0.6367  0.6359  0.3168
 9820TIP3   OH250874   5.314   6.065  16.868  0.1156 -0.3207  0.0462
 9820TIP3    H150875   5.383   6.079  16.803  0.1520  0.8204  0.3286
 9820TIP3    H250876   5.331   6.130  16.935 -3.0113  2.0145 -1.3422
 9821TIP3   OH250877   0.281   5.426   4.916  0.0478  0.1901  0.1604
 9821TIP3    H150878   0.228   5.398   4.991  0.9500  2.0298  1.5364
 9821TIP3    H250879   0.364   5.453   4.954  0.6257  0.9083 -1.5507
 9822TIP3   OH250880   1.490   6.059   1.606 -0.0593 -0.4111  0.6913
 9822TIP3    H150881   1.459   6.051   1.515  1.5687 -1.5446  0.2126
 9822TIP3    H250882   1.521   6.149   1.613 -0.8183 -0.1153  0.3358
 9823TIP3   OH250883   4.053   0.937   3.648  0.5876 -0.0748  0.3367
 9823TIP3    H150884   4.066   1.012   3.706  0.2992  0.9950 -0.9377
 9823TIP3    H250885   4.140   0.902   3.634  0.5878 -0.7839  1.9537
 9824TIP3   OH250886   5.584   1.096   0.225 -0.6253 -0.0776  0.3660
 9824TIP3    H150887   5.615   1.045   0.300 -0.8754  0.5998  0.9482
 9824TIP3    H250888   5.508   1.048   0.192  0.7923 -1.5260 -0.8124
 9825TIP3   OH250889   5.061   6.350  11.516 -0.1832 -0.1471 -0.1911
 9825TIP3    H150890   5.090   6.408  11.587  0.3748  0.8226 -1.2093
 9825TIP3    H250891   5.048   6.266  11.559  3.7256 -0.5500  0.4433
 9826TIP3   OH250892   6.270   4.864  10.954  0.4507  0.1457  0.0888
 9826TIP3    H150893   6.324   4.791  10.924 -1.8045 -1.9826  1.0208
 9826TIP3    H250894   6.241   4.907  10.874 -1.2819 -2.3349 -0.6867
 9827TIP3   OH250895   1.749   3.790   4.600  0.7497 -0.0837 -0.0047
 9827TIP3    H150896   1.769   3.700   4.573  0.1434 -0.3037  0.2731
 9827TIP3    H250897   1.824   3.841   4.571  1.8201 -0.9392  1.2288
 9828TIP3   OH250898   3.676   6.172   2.985  0.2090  0.0477 -0.2109
 9828TIP3    H150899   3.609   6.197   3.048  1.9101  0.3273  1.5106
 9828TIP3    H250900   3.737   6.246   2.985  2.0373 -1.4332  0.3725
 9829TIP3   OH250901   2.268   6.343  12.294  0.6190 -0.0929 -0.1549
 9829TIP3    H150902   2.230   6.324  12.208 -0.9788 -3.2257  1.1661
 9829TIP3    H250903   2.204   6.310  12.356  1.8700  1.9231  2.2879
 9830TIP3   OH250904   5.261   6.382   0.751 -0.2661 -0.1753 -0.6602
 9830TIP3    H150905   5.307   6.314   0.801 -0.1259 -0.4405 -1.1424
 9830TIP3    H250906   5.239   6.340   0.668 -2.1788 -0.3332 -0.1072
 9831TIP3   OH250907   1.470   5.893  11.112  0.4604 -0.3499 -0.0513
 9831TIP3    H150908   1.489   5.800  11.118 -1.2315 -0.7563 -0.7579
 9831TIP3    H250909   1.524   5.933  11.181  1.1890 -1.8332  0.2596
 9832TIP3   OH250910   6.626   3.243   4.033 -0.3813  0.1385  0.0796
 9832TIP3    H150911   6.535   3.257   4.005 -0.5420  0.4805  0.7666
 9832TIP3    H250912   6.621   3.238   4.128  0.2603 -0.3246  0.0903
 9833TIP3   OH250913   4.870   4.730   1.555  0.1532 -0.1474  0.6367
 9833TIP3    H150914   4.857   4.722   1.649 -0.7312  0.2943  0.5634
 9833TIP3    H250915   4.965   4.734   1.543  0.2598 -0.0585  1.5197
 9834TIP3   OH250916   5.101   3.452  12.434 -0.7577  0.2347  0.2238
 9834TIP3    H150917   5.179   3.396  12.431 -1.4170 -0.8574  2.3300
 9834TIP3    H250918   5.083   3.473  12.343  0.7646 -1.2351 -0.4472
 9835TIP3   OH250919   2.164   2.656   1.044 -0.0675 -0.1554  0.7499
 9835TIP3    H150920   2.116   2.727   1.086 -0.7191 -1.2936  1.9985
 9835TIP3    H250921   2.248   2.653   1.090 -0.5583 -1.0293  1.6270
 9836TIP3   OH250922   6.574   4.346  14.874 -0.3663 -0.0534  0.4318
 9836TIP3    H150923   6.501   4.303  14.919  2.4020 -0.6964  4.6336
 9836TIP3    H250924   6.631   4.275  14.846  0.2303  0.5496  0.0908
 9837TIP3   OH250925   0.174   1.074  14.176  0.0344 -0.0271  0.0702
 9837TIP3    H150926   0.177   1.170  14.169 -0.2174 -0.2560 -3.8577
 9837TIP3    H250927   0.265   1.047  14.166  0.0644 -0.2470  0.8806
 9838TIP3   OH250928   5.601   5.474   4.666 -0.1255  0.2986  0.1051
 9838TIP3    H150929   5.601   5.519   4.750 -1.9662  0.8679 -0.1730
 9838TIP3    H250930   5.646   5.533   4.606 -0.1047  0.5456  0.3680
 9839TIP3   OH250931   6.574   2.780  12.226 -1.0067 -0.4373 -0.4308
 9839TIP3    H150932   6.559   2.686  12.227 -3.6464 -0.0348  1.4236
 9839TIP3    H250933   6.622   2.798  12.307 -2.3268  0.0936  0.2338
 9840TIP3   OH250934   5.754   2.782   6.148 -0.2039  0.4234 -0.2594
 9840TIP3    H150935   5.672   2.758   6.103 -2.2698  2.4064  2.3111
 9840TIP3    H250936   5.790   2.852   6.095 -0.8098  0.3879 -0.7304
 9841TIP3   OH250937   1.574   4.412   0.899 -0.3974 -0.7998  0.2992
 9841TIP3    H150938   1.485   4.392   0.928 -0.8193 -1.7795 -1.5843
 9841TIP3    H250939   1.629   4.346   0.942 -0.8611 -1.4937 -0.1621
 9842TIP3   OH250940   3.655   1.370   2.935 -0.2335 -0.0021 -0.1597
 9842TIP3    H150941   3.627   1.293   2.885 -0.2278 -0.2517  0.2250
 9842TIP3    H250942   3.573   1.406   2.970 -0.2367  0.1700 -0.3430
 9843TIP3   OH250943   0.748   2.357   4.842 -0.2060 -0.8268 -0.2045
 9843TIP3    H150944   0.765   2.363   4.936 -0.8583 -1.0528 -0.0692
 9843TIP3    H250945   0.710   2.442   4.819 -0.2501 -0.8504 -0.2196
 9844TIP3   OH250946   2.651   6.711   5.428 -0.1122 -0.3169  0.3461
 9844TIP3    H150947   2.626   6.802   5.411  1.9682  0.6891  2.5449
 9844TIP3    H250948   2.616   6.692   5.515  0.3798 -1.2862  0.3361
 9845TIP3   OH250949   2.886   3.909  17.006  0.0413  0.5571 -0.4154
 9845TIP3    H150950   2.880   3.814  17.016 -0.9072  0.6334 -0.2465
 9845TIP3    H250951   2.897   3.942  17.095 -0.7153  0.6874 -0.3759
 9846TIP3   OH250952   1.876   1.676  13.869 -0.5009  0.5444 -0.1828
 9846TIP3    H150953   1.956   1.634  13.902 -0.0861  2.4071  1.2615
 9846TIP3    H250954   1.906   1.760  13.833 -1.4355  0.0438 -2.2240
 9847TIP3   OH250955   0.798   1.116  12.065 -0.4566  0.0132 -0.1096
 9847TIP3    H150956   0.715   1.115  12.113  0.4123  2.1753  1.5340
 9847TIP3    H250957   0.843   1.036  12.094 -1.8314 -1.0588 -0.8414
 9848TIP3   OH250958   2.060   0.330   4.336  0.3585  0.4142 -0.1648
 9848TIP3    H150959   2.051   0.293   4.248  0.8426  1.3241 -0.5954
 9848TIP3    H250960   2.007   0.272   4.392  2.3197 -1.8591 -0.5682
 9849TIP3   OH250961   0.791   0.381  13.062 -0.5311 -0.3000  0.0506
 9849TIP3    H150962   0.720   0.446  13.058 -0.0497  0.3383  1.3872
 9849TIP3    H250963   0.864   0.423  13.017 -1.0135 -0.9996 -1.4190
 9850TIP3   OH250964   5.285   6.241  14.295 -0.2288 -0.0543  0.3157
 9850TIP3    H150965   5.307   6.329  14.326  0.7950 -0.8796  2.0156
 9850TIP3    H250966   5.226   6.206  14.362  0.3758 -1.1052  0.3156
 9851TIP3   OH250967   6.735   5.220  10.887  0.5515  1.1033  0.5872
 9851TIP3    H150968   6.742   5.301  10.938 -0.1710  2.5123 -1.4609
 9851TIP3    H250969   6.688   5.246  10.807 -0.3413 -1.5007  0.2064
 9852TIP3   OH250970   6.335   0.433   1.213 -0.2730  0.3803 -0.3953
 9852TIP3    H150971   6.262   0.384   1.252 -0.8929  0.6954 -1.1508
 9852TIP3    H250972   6.310   0.525   1.222  0.0641  0.4927 -0.5961
 9853TIP3   OH250973   3.455   2.879  15.530  1.1846 -0.3318 -0.0369
 9853TIP3    H150974   3.465   2.960  15.480  1.5616 -0.0512  0.4829
 9853TIP3    H250975   3.540   2.865  15.572  0.6740 -0.1672  1.0867
 9854TIP3   OH250976   2.835   0.987  13.542 -0.2278  0.5326  0.2460
 9854TIP3    H150977   2.804   1.071  13.576  0.1738  0.0324  1.8742
 9854TIP3    H250978   2.929   0.987  13.561 -0.2626 -0.3676  0.4372
 9855TIP3   OH250979   1.064   6.636   2.730 -0.3967 -0.2061 -0.3053
 9855TIP3    H150980   1.089   6.547   2.706  0.0158  0.0837 -0.9798
 9855TIP3    H250981   1.100   6.690   2.660 -0.4471  0.5154  0.2214
 9856TIP3   OH250982   4.779   5.467   5.963  0.2221 -0.2984 -0.0243
 9856TIP3    H150983   4.749   5.517   5.887 -1.1842  1.6609  1.7462
 9856TIP3    H250984   4.872   5.490   5.971  0.2324 -0.0535 -0.8029
 9857TIP3   OH250985   2.074   6.373   3.659  0.2498 -0.7800  0.3518
 9857TIP3    H150986   2.138   6.444   3.668 -0.1597 -0.3773  0.1383
 9857TIP3    H250987   2.069   6.356   3.565  0.5438 -1.2736  0.4283
 9858TIP3   OH250988   0.117   5.459  16.207 -0.2590 -0.1250 -0.5256
 9858TIP3    H150989   0.102   5.492  16.295  0.7569 -2.4753  0.5578
 9858TIP3    H250990   0.166   5.529  16.163 -1.1546  1.2365  0.6101
 9859TIP3   OH250991   0.941   2.966  16.433  0.5709  0.1303  0.5820
 9859TIP3    H150992   0.880   2.951  16.361 -0.3684  2.5443  0.8536
 9859TIP3    H250993   1.026   2.940  16.397  0.2344  1.9022 -1.6572
 9860TIP3   OH250994   3.978   3.176   4.511 -0.1864  0.2965  0.1723
 9860TIP3    H150995   4.006   3.267   4.518  0.0623  0.3020 -0.9323
 9860TIP3    H250996   4.058   3.125   4.521 -0.3975  0.1660  1.3426
 9861TIP3   OH250997   1.081   3.611  13.436 -0.6798  0.1848  0.0091
 9861TIP3    H150998   1.112   3.529  13.396 -0.4328  0.5149 -0.4873
 9861TIP3    H250999   1.104   3.602  13.528 -1.9145 -0.9034  0.2311
 9862TIP3   OH251000   2.285   3.382  15.069 -0.1124 -0.4965 -0.0732
 9862TIP3    H151001   2.239   3.390  14.986 -3.2895 -1.9624  1.4856
 9862TIP3    H251002   2.331   3.465  15.080 -2.2853  0.9410 -1.7300
 9863TIP3   OH251003   6.322   0.243   3.653  0.6493  0.6425 -0.0296
 9863TIP3    H151004   6.300   0.209   3.739  1.9728 -0.5426 -0.1461
 9863TIP3    H251005   6.362   0.169   3.607 -0.5522  1.0878 -1.8605
 9864TIP3   OH251006   4.435   2.431  16.239  0.8335  0.2305 -0.2978
 9864TIP3    H151007   4.432   2.499  16.171  0.4566  0.4808 -0.0397
 9864TIP3    H251008   4.456   2.480  16.319 -2.7381  0.5471  0.5095
 9865TIP3   OH251009   0.401   2.727  10.747 -0.7224  0.5125  0.1730
 9865TIP3    H151010   0.388   2.816  10.712  1.3399  1.1373  0.9368
 9865TIP3    H251011   0.333   2.718  10.814 -1.1628  1.3864 -0.1417
 9866TIP3   OH251012   0.685   0.281  17.027  0.8711  0.4163  0.0329
 9866TIP3    H151013   0.747   0.335  17.075  0.3428  2.0847 -1.1224
 9866TIP3    H251014   0.602   0.329  17.032 -0.0339 -1.1508  0.4598
 9867TIP3   OH251015   0.071   1.943   0.750  0.0597 -0.0582  0.0020
 9867TIP3    H151016   0.078   1.867   0.693 -0.6550 -0.1581  0.0377
 9867TIP3    H251017   0.161   1.971   0.765  0.2221  0.2725 -1.5733
 9868TIP3   OH251018   5.624   5.248  15.798 -0.0484 -0.3296 -0.2817
 9868TIP3    H151019   5.562   5.320  15.784  0.9459  0.3486 -1.2680
 9868TIP3    H251020   5.707   5.291  15.815  0.1593 -1.2409  1.1355
 9869TIP3   OH251021   2.506   2.453  14.016  0.0828 -0.4248  0.0190
 9869TIP3    H151022   2.438   2.508  13.976  0.3981  0.8362  1.1728
 9869TIP3    H251023   2.588   2.501  14.000  0.6099 -1.5288 -0.6431
 9870TIP3   OH251024   3.360   0.089  11.299  0.0561 -0.2791  0.5201
 9870TIP3    H151025   3.311   0.130  11.228 -0.3330 -0.1383  0.8683
 9870TIP3    H251026   3.294   0.042  11.350  0.3551 -0.5139  0.6983
 9871TIP3   OH251027   2.420   4.807   2.057  0.4809 -0.4325  0.0515
 9871TIP3    H151028   2.413   4.901   2.078  1.2097 -0.4447  0.3813
 9871TIP3    H251029   2.514   4.792   2.052  0.3740 -1.3055  0.6912
 9872TIP3   OH251030   3.130   1.848  16.070  0.4225 -0.0706  0.5186
 9872TIP3    H151031   3.063   1.858  16.002 -0.2354  0.5919  1.2475
 9872TIP3    H251032   3.085   1.874  16.150  0.8982 -1.8417  1.3615
 9873TIP3   OH251033   4.091   6.291  14.660 -0.4072  0.4027 -0.1702
 9873TIP3    H151034   4.016   6.305  14.602 -1.6135 -2.2739  0.6911
 9873TIP3    H251035   4.153   6.242  14.606 -1.9200 -2.9357  0.9707
 9874TIP3   OH251036   5.247   3.600   5.542  0.5772 -0.5247  0.3233
 9874TIP3    H151037   5.162   3.611   5.500  1.2555  0.1011 -0.9005
 9874TIP3    H251038   5.227   3.553   5.623 -1.3136  2.1885  1.5000
 9875TIP3   OH251039   3.516   2.781  11.351 -0.2500  0.6283 -0.2292
 9875TIP3    H151040   3.552   2.865  11.323  0.2803  0.7786  0.8891
 9875TIP3    H251041   3.579   2.748  11.415  0.1375 -1.1616 -1.5051
 9876TIP3   OH251042   2.474   3.766  14.823  0.4851 -0.3184  0.6574
 9876TIP3    H151043   2.390   3.796  14.857  0.9803  1.1396  0.6346
 9876TIP3    H251044   2.533   3.770  14.899  1.5504  2.7807 -0.2915
 9877TIP3   OH251045   2.487   1.132   3.450  0.5928  0.0845  0.4237
 9877TIP3    H151046   2.406   1.176   3.474  0.9522  0.9310  0.1090
 9877TIP3    H251047   2.490   1.055   3.506 -0.1433  0.3529  0.8386
 9878TIP3   OH251048   0.243   1.388   1.608 -0.3029  0.0600 -0.7231
 9878TIP3    H151049   0.332   1.411   1.582  0.7605 -2.3847  0.5060
 9878TIP3    H251050   0.223   1.309   1.559 -1.9629  0.7974 -1.2681
 9879TIP3   OH251051   4.704   0.790  17.182  0.2396 -0.1000  0.0915
 9879TIP3    H151052   4.677   0.722  17.120 -2.7055 -0.2892  1.4925
 9879TIP3    H251053   4.767   0.747  17.239 -0.1172 -1.0854 -0.2461
 9880TIP3   OH251054   0.943   6.683   1.499  0.1255  0.2825 -0.3459
 9880TIP3    H151055   0.900   6.598   1.505  0.0157  0.3374 -0.3513
 9880TIP3    H251056   0.872   6.744   1.479  0.2536  0.3273 -0.6527
 9881TIP3   OH251057   4.525   6.466  13.762  0.0915  0.2529  0.0942
 9881TIP3    H151058   4.517   6.559  13.781 -0.3787  0.0033  1.1546
 9881TIP3    H251059   4.581   6.432  13.831  1.5311  0.0213 -1.1631
 9882TIP3   OH251060   2.444   1.110   1.022  0.3346 -0.2337 -0.1846
 9882TIP3    H151061   2.447   1.205   1.017  1.1536 -0.3230 -1.7431
 9882TIP3    H251062   2.503   1.088   1.094  0.0738  0.4316  0.2368
 9883TIP3   OH251063   4.116   2.437  14.843  0.2524 -1.0576 -0.2825
 9883TIP3    H151064   4.157   2.503  14.899  0.6292 -3.0697  1.8904
 9883TIP3    H251065   4.032   2.419  14.884  0.4022 -2.3406 -0.5181
 9884TIP3   OH251066   3.039   4.695   5.787 -0.0524  0.3217  0.1918
 9884TIP3    H151067   3.119   4.740   5.812  0.1302  0.7596 -1.1171
 9884TIP3    H251068   2.983   4.699   5.865  1.4605 -0.6366  1.3558
 9885TIP3   OH251069   6.489   5.421  15.514 -0.7719  0.7475 -0.2693
 9885TIP3    H151070   6.487   5.419  15.609 -3.2432 -0.7543 -0.2916
 9885TIP3    H251071   6.516   5.332  15.489  0.0794  1.1944 -0.9742
 9886TIP3   OH251072   4.738   1.578   3.777  0.4102  0.3511  0.3637
 9886TIP3    H151073   4.702   1.582   3.688 -0.6778 -0.7544  0.7357
 9886TIP3    H251074   4.813   1.637   3.775  0.2766  0.4955 -1.2344
 9887TIP3   OH251075   6.163   6.506  11.377  0.5871 -0.0352 -0.0945
 9887TIP3    H151076   6.139   6.426  11.330 -0.5567  1.1563 -1.5789
 9887TIP3    H251077   6.257   6.497  11.393  0.7498 -1.0239 -1.5208
 9888TIP3   OH251078   4.975   6.733   5.614  0.2438  0.3014  0.2828
 9888TIP3    H151079   4.982   6.671   5.541  0.3265  1.0150 -0.3231
 9888TIP3    H251080   4.893   6.709   5.657  0.0219  0.0903 -0.2497
 9889TIP3   OH251081   3.453   6.358  14.822  0.2430 -0.2660 -0.4750
 9889TIP3    H151082   3.540   6.391  14.801 -0.0390  1.0103  0.2795
 9889TIP3    H251083   3.394   6.409  14.767 -0.1253 -0.1640  0.0070
 9890TIP3   OH251084   5.980   2.152   5.224 -0.3417  0.0798 -0.2292
 9890TIP3    H151085   6.033   2.084   5.182 -0.1834  0.0405  0.0357
 9890TIP3    H251086   5.894   2.112   5.235 -0.4452  0.1650 -0.7197
 9891TIP3   OH251087   0.285   6.123  16.031 -0.5050  0.1766 -0.0257
 9891TIP3    H151088   0.225   6.178  16.082 -1.1581  0.8789 -1.5082
 9891TIP3    H251089   0.229   6.054  15.995  0.6607 -2.8328  3.5964
 9892TIP3   OH251090   5.596   1.643  17.042 -0.1594 -0.4243 -0.7236
 9892TIP3    H151091   5.602   1.552  17.072 -3.2221 -0.2051  0.6449
 9892TIP3    H251092   5.587   1.695  17.122 -0.8899  0.8609 -1.6230
 9893TIP3   OH251093   3.654   1.276   0.952  0.1049 -0.6586 -0.1860
 9893TIP3    H151094   3.743   1.248   0.936  0.2041  0.5707 -1.9879
 9893TIP3    H251095   3.609   1.198   0.985  1.1312 -2.0363 -1.9884
 9894TIP3   OH251096   2.948   6.520  13.591 -0.3344 -0.1647 -0.0507
 9894TIP3    H151097   2.998   6.602  13.591  0.2821 -0.4941  2.2151
 9894TIP3    H251098   2.887   6.529  13.664 -1.2133 -1.1829 -0.6444
 9895TIP3   OH251099   0.384   3.239   5.713  0.0905  0.5632  0.5360
 9895TIP3    H151100   0.306   3.257   5.765 -0.9752 -0.1007 -0.8012
 9895TIP3    H251101   0.381   3.304   5.642  1.0049  0.8279  0.7290
 9896TIP3   OH251102   0.407   4.367  16.263 -1.0448 -0.3678  0.2315
 9896TIP3    H151103   0.460   4.401  16.191  0.1742 -1.0039  0.8160
 9896TIP3    H251104   0.324   4.416  16.258 -0.0144  1.3811 -0.0553
 9897TIP3   OH251105   5.154   2.108   3.051 -0.0921  0.0572 -0.1973
 9897TIP3    H151106   5.210   2.035   3.027  0.1121 -0.2118  1.0446
 9897TIP3    H251107   5.111   2.134   2.969 -0.2175 -1.4876 -0.6330
 9898TIP3   OH251108   4.182   4.930  15.208 -0.2963 -0.0699  0.7400
 9898TIP3    H151109   4.255   4.985  15.234  0.2001 -0.1606 -0.4250
 9898TIP3    H251110   4.222   4.847  15.183 -0.5182  0.6447 -2.1611
 9899TIP3   OH251111   2.171   2.723  17.227  0.4413  0.4079  0.6657
 9899TIP3    H151112   2.187   2.815  17.210 -0.6241 -0.1734 -4.2964
 9899TIP3    H251113   2.258   2.684  17.235  0.9337  1.5798  0.9968
 9900TIP3   OH251114   1.362   4.780   5.520  0.0066 -0.2431 -0.4726
 9900TIP3    H151115   1.295   4.832   5.474 -1.9528 -1.0714  1.3859
 9900TIP3    H251116   1.369   4.699   5.469 -0.4559 -0.1820 -0.6339
 9901TIP3   OH251117   6.279   2.350  13.790 -0.3649  0.0514 -0.0445
 9901TIP3    H151118   6.292   2.257  13.774  0.2886  0.0301  0.5917
 9901TIP3    H251119   6.346   2.373  13.854  0.4800  1.2856 -1.3244
 9902TIP3   OH251120   3.163   2.894   6.329  0.6126  0.1083 -1.0492
 9902TIP3    H151121   3.118   2.834   6.388  1.4700 -1.6440 -2.1472
 9902TIP3    H251122   3.185   2.969   6.384 -3.0055  0.7288 -0.3224
 9903TIP3   OH251123   6.211   2.717   2.242 -0.3081 -0.2209 -0.2980
 9903TIP3    H151124   6.232   2.653   2.174 -0.1409 -1.2118  0.6674
 9903TIP3    H251125   6.156   2.782   2.198  0.8598 -0.1623 -1.6800
 9904TIP3   OH251126   1.566   2.535  15.804 -0.1224 -0.6460 -0.1162
 9904TIP3    H151127   1.596   2.554  15.893 -0.6339  0.0502 -0.0938
 9904TIP3    H251128   1.625   2.585  15.748  1.2497 -2.3837 -0.2482
 9905TIP3   OH251129   5.651   1.373   1.155  0.0446 -0.3547  0.2775
 9905TIP3    H151130   5.589   1.311   1.191  0.8324 -1.3799 -0.1092
 9905TIP3    H251131   5.736   1.346   1.189  0.5385 -0.1439 -0.7385
 9906TIP3   OH251132   5.740   0.786  12.891  0.2818 -0.6603 -0.2550
 9906TIP3    H151133   5.739   0.873  12.853  2.1181 -0.3878  0.2602
 9906TIP3    H251134   5.811   0.741  12.846  0.2763 -1.4248  0.4762
 9907TIP3   OH251135   1.876   4.273  11.515  0.1593 -0.3759  1.0892
 9907TIP3    H151136   1.812   4.224  11.567 -0.4006  1.2864  1.9781
 9907TIP3    H251137   1.825   4.343  11.474  0.7704 -1.1093 -0.9703
 9908TIP3   OH251138   1.040   3.553   5.536 -0.4370 -0.2755  0.4221
 9908TIP3    H151139   0.956   3.538   5.579 -1.6553  0.0559 -1.7613
 9908TIP3    H251140   1.085   3.469   5.540 -0.9646 -0.5199  1.3856
 9909TIP3   OH251141   2.887   5.676  16.417  0.2537 -0.1925 -0.1842
 9909TIP3    H151142   2.929   5.596  16.387 -1.6023 -1.1898 -0.1326
 9909TIP3    H251143   2.912   5.682  16.510  1.2913 -0.1003 -0.4524
 9910TIP3   OH251144   0.007   0.021  14.568 -0.1137  0.2891  0.0115
 9910TIP3    H151145  -0.075   0.058  14.537  0.2019 -0.3072 -1.5901
 9910TIP3    H251146  -0.004   0.012  14.662 -1.5077  1.1445 -0.0699
 9911TIP3   OH251147   5.864   6.686  14.957 -0.3691 -0.3505 -0.1270
 9911TIP3    H151148   5.886   6.593  14.963 -0.1520 -0.2354  1.0406
 9911TIP3    H251149   5.896   6.723  15.040  0.8264  1.0218 -1.1811
 9912TIP3   OH251150   1.319   4.732   0.639 -0.0473 -0.2762  0.6784
 9912TIP3    H151151   1.392   4.779   0.679 -3.0227  3.6739  1.7323
 9912TIP3    H251152   1.325   4.753   0.546  0.3536 -0.2904  0.7002
 9913TIP3   OH251153   1.120   6.053   2.079 -0.2955 -0.0200  0.2028
 9913TIP3    H151154   1.164   6.136   2.097 -0.1615 -0.0672  0.0933
 9913TIP3    H251155   1.074   6.032   2.161 -1.8517  1.0793 -0.3769
 9914TIP3   OH251156   0.599   2.609   4.879 -0.1652  0.1779 -0.4725
 9914TIP3    H151157   0.529   2.603   4.813 -0.1228  0.6446 -0.5631
 9914TIP3    H251158   0.555   2.645   4.957 -0.2908 -0.7130 -0.1337
 9915TIP3   OH251159   4.473   3.976   6.011  0.4318 -0.1350 -0.2993
 9915TIP3    H151160   4.414   3.997   6.083  0.6093 -1.2572  0.1673
 9915TIP3    H251161   4.414   3.952   5.939  0.2673  0.6391 -0.4329
 9916TIP3   OH251162   3.134   4.654  15.617  0.4371 -0.4721 -0.3845
 9916TIP3    H151163   3.204   4.718  15.607  0.5922 -0.9485 -2.4639
 9916TIP3    H251164   3.082   4.661  15.537 -0.3791 -1.9300 -0.0121
 9917TIP3   OH251165   0.884   6.155  16.239  0.6527 -0.0415 -0.7736
 9917TIP3    H151166   0.846   6.240  16.217 -0.9960 -0.0853  1.6586
 9917TIP3    H251167   0.969   6.175  16.277 -0.0620  0.5993  0.5086
 9918TIP3   OH251168   1.098   6.063   0.644  0.2271 -0.7244  0.5560
 9918TIP3    H151169   1.082   6.013   0.563 -1.0171  0.0773  0.2829
 9918TIP3    H251170   1.016   6.053   0.694 -0.3056  1.5821  0.1900
 9919TIP3   OH251171   0.339   4.619   4.197  0.2603  0.2436  0.4091
 9919TIP3    H151172   0.320   4.616   4.104  1.0891  0.3800  0.2293
 9919TIP3    H251173   0.387   4.538   4.214  3.0121  1.7455  0.0475
 9920TIP3   OH251174   1.098   1.402  11.419 -0.0927  0.4560  0.2003
 9920TIP3    H151175   1.175   1.397  11.476 -0.3709  1.0104  0.6331
 9920TIP3    H251176   1.135   1.410  11.331  0.3352 -0.6743  0.2682
 9921TIP3   OH251177   3.181   1.717   2.619 -0.0372  0.2918 -0.0897
 9921TIP3    H151178   3.199   1.769   2.541 -0.4117  2.0984  1.0147
 9921TIP3    H251179   3.097   1.750   2.651 -0.5674 -1.3837  0.3147
 9922TIP3   OH251180   4.409   3.742   4.793  0.2782  0.6407  0.2651
 9922TIP3    H151181   4.413   3.647   4.807  0.5486  0.7500  0.9400
 9922TIP3    H251182   4.497   3.765   4.762  0.3468  0.7390  0.5331
 9923TIP3   OH251183   1.990   3.396   4.035  0.1282 -0.1659 -0.0258
 9923TIP3    H151184   1.948   3.310   4.028 -2.2017  0.8382  0.9890
 9923TIP3    H251185   2.036   3.394   4.118  0.5878 -0.6432 -0.2910
 9924TIP3   OH251186   6.487   1.947  13.377 -0.0202  0.3902 -0.6673
 9924TIP3    H151187   6.493   1.853  13.359  1.3449 -0.1372  2.3636
 9924TIP3    H251188   6.396   1.960  13.404  0.3623 -0.4860  1.0975
 9925TIP3   OH251189   4.004   2.802  17.190 -0.6606 -0.3755  0.1087
 9925TIP3    H151190   4.021   2.881  17.241  0.1819 -0.6507  0.2652
 9925TIP3    H251191   3.911   2.808  17.167 -0.7004  0.4584  0.4564
 9926TIP3   OH251192   5.000   5.834  12.624 -0.2957 -0.1246 -0.0262
 9926TIP3    H151193   5.070   5.835  12.688  0.3472  0.3435 -0.7338
 9926TIP3    H251194   4.986   5.925  12.601 -0.8373 -0.2513 -0.2163
 9927TIP3   OH251195   1.254   3.082  11.825  0.1209  0.7265 -0.1822
 9927TIP3    H151196   1.180   3.038  11.782 -0.3857  1.2145  0.1900
 9927TIP3    H251197   1.323   3.082  11.759 -0.6768  1.5207 -1.0260
 9928TIP3   OH251198   5.044   3.703   5.937 -0.2523  0.3391  0.2682
 9928TIP3    H151199   5.131   3.731   5.963 -0.0641  0.6321 -0.6354
 9928TIP3    H251200   5.025   3.755   5.859 -0.1510 -1.5636 -1.0706
 9929TIP3   OH251201   0.462   1.716   2.563  0.0167  0.1432 -0.1819
 9929TIP3    H151202   0.515   1.751   2.492 -0.0262  0.6849  0.0494
 9929TIP3    H251203   0.450   1.624   2.541  1.6739 -0.1650  0.1545
 9930TIP3   OH251204   5.353   6.705   5.836  0.4014  0.3199 -0.3088
 9930TIP3    H151205   5.282   6.770   5.838 -0.1611 -0.3240  1.1508
 9930TIP3    H251206   5.366   6.687   5.742 -2.7155 -0.9863 -0.5607
 9931TIP3   OH251207   5.992   6.118  16.313  0.0117  0.1862  0.4770
 9931TIP3    H151208   6.036   6.183  16.258  1.5801 -2.0239 -0.9773
 9931TIP3    H251209   5.899   6.132  16.298  0.2423  3.0145  1.3117
 9932TIP3   OH251210   2.654   4.510  16.367 -0.2530 -0.0615 -0.3678
 9932TIP3    H151211   2.680   4.589  16.415 -0.0584 -0.7393  0.6550
 9932TIP3    H251212   2.563   4.495  16.392 -0.0384 -0.6278  0.0762
 9933TIP3   OH251213   3.611   3.139  15.166 -0.1457  0.2696  0.0237
 9933TIP3    H151214   3.611   3.061  15.109  0.9940 -0.4080  0.9479
 9933TIP3    H251215   3.615   3.213  15.105  0.4757 -0.4388 -0.8080
 9934TIP3   OH251216   6.618   2.476  13.131 -0.5089  0.2584  0.1736
 9934TIP3    H151217   6.705   2.471  13.172  0.7994 -2.6783 -2.8341
 9934TIP3    H251218   6.568   2.406  13.173 -1.4946  1.9285  1.8811
 9935TIP3   OH251219   5.104   0.787  15.264 -0.0991  1.2210 -0.5963
 9935TIP3    H151220   5.139   0.861  15.313  1.1338 -0.0536  0.5248
 9935TIP3    H251221   5.161   0.780  15.187  1.4580 -0.1329  0.6331
 9936TIP3   OH251222   6.102   6.330   6.103  0.3469 -0.1833  0.0981
 9936TIP3    H151223   6.006   6.326   6.110  0.4419  0.2165  1.7444
 9936TIP3    H251224   6.118   6.392   6.032 -0.6084  1.0395  0.9283
 9937TIP3   OH251225   5.811   1.185   4.051 -0.0978  0.3211 -0.2910
 9937TIP3    H151226   5.856   1.245   3.991 -1.6019  1.2165 -0.5341
 9937TIP3    H251227   5.768   1.243   4.114 -0.3630 -0.5555  0.3292
 9938TIP3   OH251228   3.107   4.956  15.108 -0.3543 -0.0361  0.1109
 9938TIP3    H151229   3.028   4.908  15.132 -0.7387 -0.4072 -1.7940
 9938TIP3    H251230   3.156   4.896  15.052  1.6068 -0.0324  1.7577
 9939TIP3   OH251231   3.884   5.277   5.960 -0.2234 -0.5146  0.2310
 9939TIP3    H151232   3.800   5.307   5.996 -0.2215 -0.8739  0.5448
 9939TIP3    H251233   3.940   5.265   6.037 -0.0280 -0.7121  0.0601
 9940TIP3   OH251234   5.784   1.468  16.835  0.0200 -0.1813 -0.8311
 9940TIP3    H151235   5.765   1.556  16.802  2.0406  0.6316  0.1034
 9940TIP3    H251236   5.698   1.430  16.855 -1.0018  0.7409 -3.3162
 9941TIP3   OH251237   6.624   3.410   3.305 -0.0379  0.2724 -0.2108
 9941TIP3    H151238   6.640   3.491   3.258 -0.4786  0.4782 -0.0114
 9941TIP3    H251239   6.649   3.429   3.395  1.1983 -0.2491 -0.4442
 9942TIP3   OH251240   5.105   5.819   5.238  0.4628  0.4072  0.3354
 9942TIP3    H151241   5.178   5.870   5.204  0.3591 -1.3533 -2.7031
 9942TIP3    H251242   5.036   5.829   5.173 -0.7413 -0.8895  1.3726
 9943TIP3   OH251243   0.557   1.168   3.037  0.3211 -0.1743  0.1887
 9943TIP3    H151244   0.466   1.150   3.061  0.8049 -2.6194  0.3331
 9943TIP3    H251245   0.565   1.133   2.948  0.6149  1.8107 -0.5772
 9944TIP3   OH251246   0.525   1.639  14.550  0.0785  0.2718 -0.1423
 9944TIP3    H151247   0.609   1.666  14.514  0.6084 -1.3067 -0.1031
 9944TIP3    H251248   0.528   1.666  14.642  0.8076 -0.3719  0.0238
 9945TIP3   OH251249   1.579   4.958  14.062 -0.3818 -0.4157 -0.6237
 9945TIP3    H151250   1.498   5.007  14.048 -0.6291 -0.8296 -0.6559
 9945TIP3    H251251   1.555   4.888  14.123  0.3558  0.5116  0.7600
 9946TIP3   OH251252   3.575   6.620   0.466  0.4137 -0.0424 -0.0454
 9946TIP3    H151253   3.501   6.665   0.426  1.0142  0.1648 -0.9484
 9946TIP3    H251254   3.651   6.673   0.442  0.8321 -0.0940  1.1111
 9947TIP3   OH251255   2.315   3.781   0.535  0.4445 -0.2556 -0.6278
 9947TIP3    H151256   2.403   3.761   0.567 -0.1855 -0.5671  0.9944
 9947TIP3    H251257   2.257   3.725   0.588 -0.9105  1.7953  0.1395
 9948TIP3   OH251258   1.063   1.473   3.152 -0.1386  0.0507 -0.4892
 9948TIP3    H151259   1.048   1.566   3.131 -0.0342  0.0972 -0.3580
 9948TIP3    H251260   1.044   1.427   3.070  1.1497  0.3222 -0.9494
 9949TIP3   OH251261   1.326   4.286   3.558 -0.1303 -0.2338 -0.0029
 9949TIP3    H151262   1.249   4.230   3.559  1.1318 -2.0421  3.9756
 9949TIP3    H251263   1.394   4.233   3.517 -0.8716  1.3628 -3.5151
 9950TIP3   OH251264   0.129   2.634   2.083  0.2652 -0.5538 -0.1403
 9950TIP3    H151265   0.154   2.624   2.175  1.5539 -1.7020 -0.6147
 9950TIP3    H251266   0.073   2.712   2.082  2.4557  1.0744  1.1926
 9951TIP3   OH251267   3.931   1.785   4.168 -0.5815 -0.0052  0.2978
 9951TIP3    H151268   3.911   1.692   4.155 -1.5547  0.1318  0.7995
 9951TIP3    H251269   3.864   1.816   4.229 -1.1204  1.3506 -0.9506
 9952TIP3   OH251270   0.803   2.898  15.889  0.4357 -0.1524  0.1372
 9952TIP3    H151271   0.875   2.836  15.871  0.0822  0.3138 -3.2814
 9952TIP3    H251272   0.724   2.850  15.865  0.0255  1.0277 -0.9143
 9953TIP3   OH251273   2.758   3.708  16.310 -0.0488 -0.0303 -0.4622
 9953TIP3    H151274   2.756   3.632  16.368  2.1265 -0.5446 -1.0031
 9953TIP3    H251275   2.683   3.761  16.338 -1.1709 -1.9962  0.3999
 9954TIP3   OH251276   0.749   1.803  10.849 -0.5292  0.6931 -0.1230
 9954TIP3    H151277   0.671   1.765  10.890 -0.8654  0.0847 -1.3335
 9954TIP3    H251278   0.822   1.771  10.902 -1.0091  0.3354  0.3261
 9955TIP3   OH251279   4.613   4.891  12.372  0.6579 -0.0246 -0.4451
 9955TIP3    H151280   4.530   4.876  12.418  1.5737  0.8410  1.5622
 9955TIP3    H251281   4.679   4.885  12.441  2.2037 -0.0166 -1.9095
 9956TIP3   OH251282   3.510   1.576  11.912  0.2542 -0.0307  0.3335
 9956TIP3    H151283   3.468   1.581  11.998  2.1435  2.2662  1.1889
 9956TIP3    H251284   3.598   1.543  11.930  0.5463  0.1308 -0.7481
 9957TIP3   OH251285   4.957   3.464   5.993 -0.0566 -0.2038 -0.7676
 9957TIP3    H151286   4.998   3.549   5.978  2.3558 -0.9688  1.1586
 9957TIP3    H251287   4.881   3.483   6.047  1.9345  0.5411  1.8936
 9958TIP3   OH251288   2.640   4.987  17.139 -0.3074  0.0672  0.2144
 9958TIP3    H151289   2.674   4.920  17.198 -2.4030 -0.0852  1.2980
 9958TIP3    H251290   2.716   5.040  17.115  1.2502 -2.1925 -0.0198
 9959TIP3   OH251291   0.758   5.525   1.939  0.0609 -0.8488  0.1706
 9959TIP3    H151292   0.790   5.614   1.929  1.5407 -1.3426  0.4412
 9959TIP3    H251293   0.697   5.529   2.013  0.4251 -0.1434  0.4329
 9960TIP3   OH251294   2.147   1.438  12.495  0.0805  0.1106  0.5501
 9960TIP3    H151295   2.172   1.471  12.582 -3.5823 -0.2006  1.8204
 9960TIP3    H251296   2.157   1.344  12.501 -2.2765 -0.1345  1.4725
 9961TIP3   OH251297   2.157   1.232   5.350  0.1063 -0.2491 -0.2422
 9961TIP3    H151298   2.082   1.173   5.347 -0.7244  0.8246 -0.9445
 9961TIP3    H251299   2.134   1.297   5.416  1.5364 -1.3724  1.4137
 9962TIP3   OH251300   6.661   6.192   4.175  0.4060 -0.2452 -0.3210
 9962TIP3    H151301   6.711   6.111   4.187  3.8990  1.9153  0.5647
 9962TIP3    H251302   6.674   6.215   4.083  0.3843 -0.1184 -0.2924
 9963TIP3   OH251303   4.888   5.443   4.012 -0.4660  0.0327  0.0706
 9963TIP3    H151304   4.978   5.474   4.017 -0.2660 -0.5917  0.4830
 9963TIP3    H251305   4.859   5.466   3.924 -0.2478  1.1586  0.2879
 9964TIP3   OH251306   3.818   2.783  14.202  0.2117  0.4429 -0.7362
 9964TIP3    H151307   3.871   2.824  14.134  0.2615  1.1579 -0.2672
 9964TIP3    H251308   3.781   2.856  14.252  0.0183 -0.0711 -0.1174
 9965TIP3   OH251309   1.325   0.584   3.288 -0.4239 -0.6124  0.2549
 9965TIP3    H151310   1.332   0.504   3.340 -1.9734 -1.1871 -0.3795
 9965TIP3    H251311   1.397   0.578   3.225 -1.0073 -1.9098 -0.3101
 9966TIP3   OH251312   6.778   3.825   5.061 -0.1895 -0.3037  0.3733
 9966TIP3    H151313   6.741   3.788   4.981 -0.4495  0.6022  0.0651
 9966TIP3    H251314   6.861   3.780   5.072 -0.3736 -0.7814 -0.1420
 9967TIP3   OH251315   0.457   0.624  15.707 -0.1685 -0.4716 -0.0034
 9967TIP3    H151316   0.436   0.665  15.790  0.9486 -0.9352  0.5250
 9967TIP3    H251317   0.420   0.536  15.714 -0.3979 -0.3875 -0.1492
 9968TIP3   OH251318   3.891   6.495   4.355 -0.0560 -0.3337  0.1087
 9968TIP3    H151319   3.969   6.495   4.299 -0.5269 -0.7919 -0.5552
 9968TIP3    H251320   3.889   6.407   4.393 -1.2599 -0.9263 -1.3033
 9969TIP3   OH251321   0.061   2.561  16.088 -0.8504 -0.1109 -0.1787
 9969TIP3    H151322   0.102   2.476  16.102 -1.0510 -0.0945  0.5693
 9969TIP3    H251323   0.005   2.549  16.011 -1.9007 -1.0387  0.7064
 9970TIP3   OH251324   1.778   2.423  15.423 -0.3249  0.4045  0.3970
 9970TIP3    H151325   1.822   2.506  15.440 -0.2136  0.0627  1.8276
 9970TIP3    H251326   1.735   2.400  15.506 -0.4143 -0.9287  0.0026
 9971TIP3   OH251327   0.473   2.841   1.160  0.8008  0.5889  0.3616
 9971TIP3    H151328   0.390   2.807   1.125  0.8132 -0.0077  0.9020
 9971TIP3    H251329   0.483   2.926   1.118  0.7125 -0.0246 -0.9198
 9972TIP3   OH251330   5.163   5.755   1.035 -0.1719  0.0365  0.4986
 9972TIP3    H151331   5.079   5.794   1.012  0.7613  1.8241  0.0284
 9972TIP3    H251332   5.153   5.662   1.013 -1.0155  0.7589 -2.4578
 9973TIP3   OH251333   0.344   3.849   4.568 -0.6085 -0.1288  0.3550
 9973TIP3    H151334   0.331   3.896   4.650 -0.7089 -0.0160  0.2759
 9973TIP3    H251335   0.256   3.818   4.545 -0.1322 -2.7941  1.8648
 9974TIP3   OH251336   6.427   3.429  16.305  0.2018  0.1949  0.4893
 9974TIP3    H151337   6.459   3.401  16.391  0.6220 -0.1318  0.2307
 9974TIP3    H251338   6.332   3.436  16.316  0.4948  2.6251  1.6739
 9975TIP3   OH251339   4.121   1.439   6.071 -0.6218 -0.1123  0.2618
 9975TIP3    H151340   4.136   1.436   5.976  1.9930  0.8323  0.6130
 9975TIP3    H251341   4.075   1.357   6.090 -0.8091 -0.5096 -1.7548
 9976TIP3   OH251342   4.030   3.825   1.338  0.3991  0.0439 -0.1394
 9976TIP3    H151343   3.953   3.852   1.388  1.1850  0.5724  0.8032
 9976TIP3    H251344   4.105   3.859   1.388  1.2398 -0.2790 -1.1484
 9977TIP3   OH251345   0.499   1.704   1.866 -0.2783 -0.3612 -0.1959
 9977TIP3    H151346   0.529   1.662   1.786  0.7781 -0.6003  0.3148
 9977TIP3    H251347   0.442   1.775   1.837  1.0401  0.3030 -1.1962
 9978TIP3   OH251348   5.804   5.316  11.353  0.3510 -0.4936 -0.3267
 9978TIP3    H151349   5.893   5.282  11.364  0.0860 -1.5464 -1.4264
 9978TIP3    H251350   5.761   5.296  11.436  0.9974 -0.3897  0.0417
 9979TIP3   OH251351   0.817   5.204   2.091 -0.5052 -0.1023  0.3751
 9979TIP3    H151352   0.883   5.262   2.128 -1.5561  0.9292  0.6590
 9979TIP3    H251353   0.803   5.138   2.160 -0.1579 -0.0250  0.5239
 9980TIP3   OH251354   2.078   3.058   1.769  0.1751 -0.5352  0.5814
 9980TIP3    H151355   2.017   3.131   1.771  0.0236 -0.6126 -0.7473
 9980TIP3    H251356   2.024   2.981   1.788 -0.2493 -0.6608 -1.0428
 9981TIP3   OH251357   6.291   2.458  12.120 -0.1509  0.1910  0.3294
 9981TIP3    H151358   6.273   2.390  12.056  0.0536 -0.2662  0.7475
 9981TIP3    H251359   6.369   2.503  12.087  0.6316 -0.7861  0.8414
 9982TIP3   OH251360   1.027   1.581  15.778  0.0421  0.2512  0.0786
 9982TIP3    H151361   1.079   1.659  15.757  0.5276  0.0334  0.4517
 9982TIP3    H251362   1.041   1.568  15.872  0.1844 -0.4482 -0.0424
 9983TIP3   OH251363   2.673   5.388  12.280  0.2779 -0.1087 -0.2603
 9983TIP3    H151364   2.680   5.388  12.376  0.0681 -2.1476 -0.2113
 9983TIP3    H251365   2.579   5.381  12.263  0.2205  1.4116 -0.6466
 9984TIP3   OH251366   2.921   1.315  14.722  0.5257  0.0506  0.0679
 9984TIP3    H151367   2.856   1.357  14.666  0.3191  0.6762  0.7577
 9984TIP3    H251368   3.005   1.352  14.694  0.8496 -2.3050 -2.2320
 9985TIP3   OH251369   3.529   4.830  14.353 -0.1240 -0.0966 -0.5699
 9985TIP3    H151370   3.565   4.745  14.377  1.2499  0.4849 -0.5393
 9985TIP3    H251371   3.462   4.810  14.288 -0.5322 -1.2833  0.1838
 9986TIP3   OH251372   0.264   6.756  11.529 -0.3275  0.2835  0.0622
 9986TIP3    H151373   0.173   6.728  11.514  0.2369 -0.2236 -2.6927
 9986TIP3    H251374   0.315   6.676  11.524  0.5763  0.9298 -1.2412
 9987TIP3   OH251375   3.655   6.517  15.370 -0.1672 -0.0455  0.6373
 9987TIP3    H151376   3.735   6.491  15.326 -1.5323 -1.3376 -1.1354
 9987TIP3    H251377   3.675   6.603  15.407  1.6212  0.1878 -0.8180
 9988TIP3   OH251378   3.808   0.990   4.240  0.1359  0.4037 -0.3857
 9988TIP3    H151379   3.864   0.934   4.187 -0.2944 -0.6040  0.1964
 9988TIP3    H251380   3.730   0.937   4.256 -0.7619  1.5994 -0.7611
 9989TIP3   OH251381   6.585   5.387  13.925 -0.5164 -0.1793 -0.5668
 9989TIP3    H151382   6.602   5.311  13.981  1.3818  1.8251  1.6716
 9989TIP3    H251383   6.635   5.370  13.845  2.2770 -0.0085  1.0796
 9990TIP3   OH251384   0.851   5.795   2.984 -0.5585  0.2795  0.5268
 9990TIP3    H151385   0.897   5.777   3.067 -0.4286 -2.3529 -0.0814
 9990TIP3    H251386   0.880   5.725   2.925 -1.9755  1.1422 -1.2194
 9991TIP3   OH251387   2.700   4.547   4.363  0.3163  0.1822 -0.3228
 9991TIP3    H151388   2.642   4.528   4.290 -0.9472  1.6442  0.2792
 9991TIP3    H251389   2.747   4.627   4.337 -1.6318  1.9180  1.2623
 9992TIP3   OH251390   4.436   5.246  16.470  0.7542  0.1290 -0.3469
 9992TIP3    H151391   4.451   5.340  16.459  0.8185  0.3301  1.2278
 9992TIP3    H251392   4.484   5.224  16.550  1.2231 -1.3724 -1.0274
 9993TIP3   OH251393   1.043   2.350   4.528 -0.0788 -0.1786 -0.3105
 9993TIP3    H151394   0.959   2.305   4.517 -0.5284  0.4804  0.3631
 9993TIP3    H251395   1.019   2.443   4.538  0.4343 -0.4412  4.0319
 9994TIP3   OH251396   4.999   2.874  16.630  0.5225 -0.2299  0.2541
 9994TIP3    H151397   5.055   2.885  16.553 -0.2238  0.9064 -0.1370
 9994TIP3    H251398   4.993   2.779  16.642 -0.1596 -0.4527 -1.6922
 9995TIP3   OH251399   5.563   2.789  11.479  0.3560  0.2241 -0.2438
 9995TIP3    H151400   5.468   2.796  11.468  0.4139  1.3296 -0.0607
 9995TIP3    H251401   5.593   2.879  11.487  1.4261 -0.1235 -0.2924
 9996TIP3   OH251402   1.865   4.436   1.219 -0.1910  0.4239 -0.3663
 9996TIP3    H151403   1.912   4.441   1.136  1.4942  1.3076  0.6103
 9996TIP3    H251404   1.789   4.380   1.201  1.3393 -1.1976 -1.9339
 9997TIP3   OH251405   1.098   4.734  11.695  0.5459 -0.1782  0.2638
 9997TIP3    H151406   1.079   4.776  11.779  0.8753  0.0733  0.2121
 9997TIP3    H251407   1.123   4.806  11.637 -1.2473 -0.1523 -0.5098
 9998TIP3   OH251408   4.527   3.195  16.658 -0.4832  0.6106 -0.3539
 9998TIP3    H151409   4.533   3.138  16.735  0.1408  0.5439 -0.4532
 9998TIP3    H251410   4.469   3.148  16.598  1.1702 -0.6033 -1.0271
 9999TIP3   OH251411   4.661   3.997   3.190  0.3509 -0.3492  0.2018
 9999TIP3    H151412   4.664   3.996   3.094 -0.5686 -1.1925  0.1684
 9999TIP3    H251413   4.568   3.985   3.210  0.2839  1.6107  1.1857
10000TIP3   OH251414   5.589   2.232  15.556 -1.0791  0.3249 -0.1964
10000TIP3    H151415   5.536   2.299  15.515 -0.9862  1.3534  1.3282
10000TIP3    H251416   5.680   2.259  15.540 -1.0355  0.0884 -0.3529
10001TIP3   OH251417   3.760   1.377  11.603  0.0908  0.6213 -0.1484
10001TIP3    H151418   3.791   1.461  11.570  0.7772  0.6138  0.4780
10001TIP3    H251419   3.836   1.338  11.646  0.0116 -0.7074 -1.1733
10002TIP3   OH251420   3.645   3.256   5.013  0.0565 -0.3307 -0.1694
10002TIP3    H151421   3.620   3.210   5.093  0.6695 -2.0841 -0.9583
10002TIP3    H251422   3.741   3.263   5.018 -0.0912  1.6067  0.3218
10003TIP3   OH251423   0.121   0.314   5.338  0.2917  0.2535  0.2147
10003TIP3    H151424   0.178   0.318   5.262 -0.3331  0.0691 -0.2676
10003TIP3    H251425   0.067   0.236   5.324 -0.1385  0.4749  0.6260
10004TIP3   OH251426   0.243   0.460   4.070 -0.5773 -0.7428 -0.1646
10004TIP3    H151427   0.156   0.462   4.109 -1.1889 -0.7837 -1.5087
10004TIP3    H251428   0.276   0.549   4.079 -1.4396 -0.3163 -1.1643
10005TIP3   OH251429   3.851   4.584  12.619 -0.2392 -0.0861  0.2157
10005TIP3    H151430   3.791   4.514  12.644 -0.3648 -0.8287 -2.1159
10005TIP3    H251431   3.796   4.663  12.615 -0.4362 -0.1693  1.0778
10006TIP3   OH251432   5.341   2.122  12.397 -0.6628  0.4443 -0.1209
10006TIP3    H151433   5.254   2.151  12.370 -1.7264  0.0133  2.6481
10006TIP3    H251434   5.400   2.193  12.369 -2.2902  2.0587  0.4406
10007TIP3   OH251435   1.259   3.268   3.706 -0.0884  0.4715  0.2529
10007TIP3    H151436   1.184   3.217   3.677 -0.0276  0.6142 -0.1539
10007TIP3    H251437   1.335   3.224   3.669 -0.0190  0.7212  0.0958
10008TIP3   OH251438   0.713   6.496   0.614  0.3631  0.0932 -0.6877
10008TIP3    H151439   0.781   6.563   0.609  1.2109 -0.8459 -2.1682
10008TIP3    H251440   0.761   6.413   0.617 -0.7083 -0.5555 -1.1745
10009TIP3   OH251441   0.001   4.775   2.620 -0.1227 -0.0479 -0.5460
10009TIP3    H151442  -0.070   4.776   2.555 -0.1258  1.4821 -0.5462
10009TIP3    H251443  -0.043   4.783   2.704 -0.0734 -1.3093 -0.3929
10010TIP3   OH251444   5.469   5.435  13.403  0.0212 -0.3854  0.4066
10010TIP3    H151445   5.436   5.357  13.358  0.1510 -1.0807  1.4903
10010TIP3    H251446   5.454   5.507  13.341  1.0251 -1.4487 -1.0953
10011TIP3   OH251447   5.301   1.218  13.989 -0.9254  0.3918  0.5538
10011TIP3    H151448   5.351   1.224  13.907  0.0882  0.8689  1.1991
10011TIP3    H251449   5.265   1.129  13.989  0.5947 -0.2322  0.4725
10012TIP3   OH251450   3.912   6.093   5.984 -0.4034 -0.5992 -0.0845
10012TIP3    H151451   3.854   6.106   6.059  1.0684  0.4029  0.8997
10012TIP3    H251452   3.997   6.071   6.023  0.5842  0.7594 -1.4396
10013TIP3   OH251453   5.845   3.382  15.854  0.0269  0.3750  0.0001
10013TIP3    H151454   5.770   3.442  15.857 -1.2080 -1.1295 -0.5591
10013TIP3    H251455   5.897   3.405  15.932 -2.0472  0.0832  1.4974
10014TIP3   OH251456   1.160   5.867  12.414  0.0002  0.0419  0.2726
10014TIP3    H151457   1.134   5.786  12.369  0.3174  0.4843 -0.7326
10014TIP3    H251458   1.230   5.903  12.359  1.3710 -0.1146  1.8851
10015TIP3   OH251459   5.225   4.868  15.622 -0.0968  0.2493  0.0854
10015TIP3    H151460   5.132   4.847  15.627 -0.2041  0.3566 -1.3864
10015TIP3    H251461   5.265   4.816  15.692 -0.9847 -1.3269 -0.5553
10016TIP3   OH251462   6.474   5.682   1.653  0.1424 -0.3907 -0.2592
10016TIP3    H151463   6.409   5.619   1.683 -0.3467  0.7588  1.1440
10016TIP3    H251464   6.463   5.685   1.558 -2.7693  0.7681  0.0771
10017TIP3   OH251465   1.202   4.375  14.749  0.0625  0.3964  0.9779
10017TIP3    H151466   1.166   4.410  14.668 -0.3509  1.3550  1.5648
10017TIP3    H251467   1.295   4.400  14.747  0.1381  0.0892  0.6249
10018TIP3   OH251468   3.626   4.861   3.897  0.0457  0.1308  0.1941
10018TIP3    H151469   3.678   4.934   3.931 -0.5450  0.9668 -0.6690
10018TIP3    H251470   3.609   4.806   3.973  1.3464  0.3642  0.6723
10019TIP3   OH251471   3.508   2.207  13.690 -0.1053 -0.5071 -0.4163
10019TIP3    H151472   3.468   2.230  13.607 -1.2799 -0.3663  0.1779
10019TIP3    H251473   3.573   2.140  13.668 -2.0335 -2.1823 -1.1416
10020TIP3   OH251474   2.824   5.128  14.382 -0.0446 -0.1417 -0.5314
10020TIP3    H151475   2.778   5.212  14.388  2.1425  1.0278  0.6965
10020TIP3    H251476   2.905   5.149  14.335  1.1687 -1.2599  1.0300
10021TIP3   OH251477   3.391   6.466  12.897 -0.0231 -0.3071  0.0385
10021TIP3    H151478   3.333   6.390  12.888 -0.1527 -0.5657  2.5457
10021TIP3    H251479   3.456   6.439  12.962  0.9439  1.1283 -0.3041
10022TIP3   OH251480   6.478   6.581   2.170  0.2360 -0.2320 -0.2283
10022TIP3    H151481   6.399   6.555   2.218  0.4724 -1.5346 -0.5001
10022TIP3    H251482   6.479   6.676   2.174 -0.3000 -0.2897  1.4475
10023TIP3   OH251483   1.211   5.125   2.646 -0.0395  0.4272  0.2903
10023TIP3    H151484   1.235   5.149   2.557 -1.4354 -0.1780 -0.2623
10023TIP3    H251485   1.286   5.074   2.678  1.0711  1.8367 -0.0274
10024TIP3   OH251486   2.878   2.915  12.493  0.1443  0.0806  0.1377
10024TIP3    H151487   2.852   2.894  12.403 -2.0879  0.6989  0.6003
10024TIP3    H251488   2.947   2.852  12.513 -0.0468 -0.7426 -1.6600
10025TIP3   OH251489   5.911   2.343   6.125 -0.1581 -0.0415  0.3952
10025TIP3    H151490   5.942   2.343   6.215  0.8496  0.0448  0.0602
10025TIP3    H251491   5.985   2.307   6.075 -1.3114 -1.6770 -0.1923
10026TIP3   OH251492   0.462   6.322  13.128 -0.5214 -0.5399  0.9189
10026TIP3    H151493   0.495   6.247  13.079  1.3966  0.7745  0.1066
10026TIP3    H251494   0.402   6.285  13.191  0.8281 -2.8306  0.9245
10027TIP3   OH251495   3.657   6.156  16.041  0.0496  0.0744 -0.3186
10027TIP3    H151496   3.603   6.231  16.067  2.2194  2.0955 -1.5299
10027TIP3    H251497   3.605   6.111  15.975 -1.0589  0.7603  0.0647
10028TIP3   OH251498   0.605   0.289   2.472 -0.0504 -0.2127 -0.4396
10028TIP3    H151499   0.516   0.275   2.505  0.1609 -0.6971 -0.0702
10028TIP3    H251500   0.614   0.385   2.467 -0.2666 -0.1441  0.4108
10029TIP3   OH251501   0.433   1.798  15.212 -0.0654  0.3516  0.6152
10029TIP3    H151502   0.355   1.823  15.164  0.6585  2.5460  0.5250
10029TIP3    H251503   0.402   1.777  15.300 -1.1186 -1.6877 -0.2091
10030TIP3   OH251504   6.462   1.655   4.585  0.0196  0.0615 -0.2155
10030TIP3    H151505   6.493   1.605   4.661 -2.5372 -4.1256 -1.7471
10030TIP3    H251506   6.527   1.638   4.517 -0.6692 -0.8899 -0.6362
10031TIP3   OH251507   4.649   6.222   4.527 -0.1177 -0.0144 -0.4314
10031TIP3    H151508   4.669   6.187   4.440  0.4119  0.3196 -0.4467
10031TIP3    H251509   4.606   6.149   4.573  1.1812 -0.7625 -0.3831
10032TIP3   OH251510   0.735   6.589   3.425  0.0795  0.1205 -0.7163
10032TIP3    H151511   0.674   6.609   3.355  0.2680  0.5396 -0.7608
10032TIP3    H251512   0.679   6.568   3.500 -0.1162  0.7462 -0.6867
10033TIP3   OH251513   3.851   5.488  11.970 -0.2201 -0.2325 -0.0652
10033TIP3    H151514   3.783   5.491  11.903 -0.8770  0.1787  0.6226
10033TIP3    H251515   3.811   5.526  12.048  0.7822 -0.0067  0.3533
10034TIP3   OH251516   0.521   4.114   0.823 -0.3608 -0.2781 -0.1847
10034TIP3    H151517   0.497   4.026   0.853 -2.8652  0.2226 -0.6226
10034TIP3    H251518   0.454   4.171   0.859 -1.0573  0.9182 -3.1986
10035TIP3   OH251519   3.455   1.038  11.671 -0.4009 -0.3430 -0.4698
10035TIP3    H151520   3.473   0.982  11.747  0.7434  0.7333  0.0762
10035TIP3    H251521   3.362   1.059  11.678 -0.0056  0.8908  1.4375
10036TIP3   OH251522   5.568   0.787  14.413  1.0666 -0.1117 -0.2836
10036TIP3    H151523   5.499   0.826  14.359  0.0740 -0.7265  0.5369
10036TIP3    H251524   5.628   0.748  14.350  1.0896  1.1148 -1.0395
10037TIP3   OH251525   4.113   4.870   4.706 -0.2596 -0.3618  0.2167
10037TIP3    H151526   4.140   4.805   4.770  0.6334 -0.4390 -0.2330
10037TIP3    H251527   4.194   4.917   4.684 -0.7993  0.5348  0.1328
10038TIP3   OH251528   5.607   4.664  13.577  0.0822  0.1382  0.1466
10038TIP3    H151529   5.618   4.638  13.669  0.2677 -0.2632  0.0114
10038TIP3    H251530   5.556   4.592  13.538  1.4486 -0.5123 -0.4695
10039TIP3   OH251531   3.219   3.015   5.655  0.1918  0.3433 -0.0212
10039TIP3    H151532   3.263   3.101   5.656 -1.4191  1.1788  0.3267
10039TIP3    H251533   3.133   3.033   5.618 -0.0842 -1.1793 -0.1158
10040TIP3   OH251534   5.634   5.541  11.657  0.4481  0.1645 -0.0244
10040TIP3    H151535   5.587   5.459  11.645 -0.7067  0.7670  0.2642
10040TIP3    H251536   5.614   5.592  11.578  0.2283  0.6027  0.3077
10041TIP3   OH251537   2.551   2.623  13.260  0.5654 -0.0420 -0.0377
10041TIP3    H151538   2.554   2.529  13.279 -0.7012 -0.6067 -2.4192
10041TIP3    H251539   2.641   2.646  13.238  1.5541  0.0742  3.7348
10042TIP3   OH251540   3.578   3.285   2.521 -0.6898  0.4605  0.4837
10042TIP3    H151541   3.573   3.341   2.443  0.1558 -0.1824 -0.0391
10042TIP3    H251542   3.668   3.254   2.522 -1.6005 -2.3457 -0.2516
10043TIP3   OH251543   5.938   0.769  10.992  0.4389 -0.3800 -0.1359
10043TIP3    H151544   5.856   0.790  11.037  0.7459 -0.8945  0.6673
10043TIP3    H251545   5.954   0.845  10.935 -1.2882 -0.8619 -1.3114
10044TIP3   OH251546   0.554   0.153  14.290  0.5304  0.7556  0.1480
10044TIP3    H151547   0.569   0.140  14.384  2.0378 -0.0107 -0.1757
10044TIP3    H251548   0.481   0.095  14.269  2.5168 -1.8469  0.1577
10045TIP3   OH251549   0.426   3.575  16.931 -0.6488  0.3662  0.2567
10045TIP3    H151550   0.505   3.627  16.919  0.4903 -0.9512  1.7892
10045TIP3    H251551   0.454   3.500  16.983 -2.5644 -1.0160 -0.6363
10046TIP3   OH251552   4.407   6.275  12.398 -1.0239 -0.7883 -0.0385
10046TIP3    H151553   4.389   6.354  12.348  1.2525 -0.5748 -0.5921
10046TIP3    H251554   4.351   6.281  12.475  0.6125  2.4023  0.9955
10047TIP3   OH251555   2.090   2.457   4.446  0.1691 -0.0728 -0.0344
10047TIP3    H151556   2.105   2.367   4.473 -1.1683 -0.5005 -0.6642
10047TIP3    H251557   2.127   2.462   4.358  0.3936  0.0382  0.0664
10048TIP3   OH251558   0.646   4.787  14.003 -0.6816  0.2131  0.1081
10048TIP3    H151559   0.634   4.851  14.072 -0.5181 -0.3011  0.6227
10048TIP3    H251560   0.633   4.702  14.046 -1.5875 -0.0807 -0.7021
10049TIP3   OH251561   2.725   2.301  14.668 -0.7072 -0.0485 -0.5665
10049TIP3    H151562   2.807   2.328  14.626 -0.9147 -0.6139 -1.3629
10049TIP3    H251563   2.751   2.231  14.728 -0.5158  0.2169 -0.3393
10050TIP3   OH251564   6.140   4.099   0.555 -0.3043 -0.1636 -0.1088
10050TIP3    H151565   6.165   4.190   0.538 -0.9497  0.2697  1.2557
10050TIP3    H251566   6.163   4.083   0.646  0.2397 -1.5207 -0.4705
10051TIP3   OH251567   4.408   6.733   0.205 -0.1468 -0.0190  0.0628
10051TIP3    H151568   4.493   6.715   0.245 -0.2341 -0.8495 -0.1151
10051TIP3    H251569   4.345   6.689   0.262 -0.4120  0.1681 -0.0846
10052TIP3   OH251570   5.023   2.394  13.289 -0.5868  0.6188 -0.8939
10052TIP3    H151571   5.065   2.373  13.206 -0.7896 -1.3757 -0.5058
10052TIP3    H251572   5.082   2.358  13.356 -1.0649  1.0837 -0.2146
10053TIP3   OH251573   3.345   6.607  12.093 -0.2765 -0.0129 -0.3989
10053TIP3    H151574   3.289   6.580  12.021 -1.0145  0.3722  0.0218
10053TIP3    H251575   3.394   6.528  12.117  0.7456  0.1047 -1.9904
10054TIP3   OH251576   1.977   5.184   3.108  0.0320  0.8442 -0.5963
10054TIP3    H151577   1.956   5.092   3.094 -0.6089  0.9050 -0.0334
10054TIP3    H251578   1.892   5.228   3.113  0.3249  1.6971 -2.3560
10055TIP3   OH251579   3.845   0.158  12.790 -0.2655 -0.3875 -0.1873
10055TIP3    H151580   3.889   0.237  12.760 -1.6050  0.8736  1.0594
10055TIP3    H251581   3.759   0.189  12.821 -0.3406 -2.1405  1.4383
10056TIP3   OH251582   0.337   1.091   2.131  0.1612 -0.1578  0.1670
10056TIP3    H151583   0.356   1.068   2.040 -3.4124 -2.0835 -0.1735
10056TIP3    H251584   0.269   1.158   2.125  2.4430  2.4221  1.4446
10057TIP3   OH251585   1.568   6.444  12.165  0.3723  0.1923  0.3448
10057TIP3    H151586   1.652   6.467  12.127 -0.2195  0.4960 -0.7858
10057TIP3    H251587   1.542   6.522  12.215 -0.3220  0.9624 -1.2019
10058TIP3   OH251588   4.274   0.206   1.940 -0.2305  0.4599 -0.1941
10058TIP3    H151589   4.252   0.171   1.853 -3.7634  2.8003 -0.3898
10058TIP3    H251590   4.241   0.141   2.001 -0.5834  0.2322 -0.6180
10059TIP3   OH251591   4.584   3.017  16.849  0.2867 -0.4461 -0.0608
10059TIP3    H151592   4.642   2.975  16.913 -0.6102  0.8532  1.6562
10059TIP3    H251593   4.519   2.951  16.828  0.1169 -0.6287  1.0068
10060TIP3   OH251594   3.271   4.897   1.429 -0.4089  0.2562 -0.4595
10060TIP3    H151595   3.197   4.921   1.484 -0.4103  1.4251 -0.9362
10060TIP3    H251596   3.320   4.832   1.479 -2.0041 -0.8751 -0.3363
10061TIP3   OH251597   0.840   1.668   3.668 -0.1150 -0.5396  0.4364
10061TIP3    H151598   0.808   1.634   3.584 -0.2116 -1.3630  0.8010
10061TIP3    H251599   0.761   1.692   3.716 -0.0792 -0.4771  0.4640
10062TIP3   OH251600   2.680   5.076  13.525 -0.0977 -0.5920 -0.2976
10062TIP3    H151601   2.665   5.132  13.602  1.0076 -2.1246  1.0465
10062TIP3    H251602   2.595   5.072  13.482 -0.4784  1.1574  0.2361
10063TIP3   OH251603   5.167   2.825  16.423  0.3552  0.3594 -0.2022
10063TIP3    H151604   5.235   2.773  16.465 -0.8310  0.2195  1.6051
10063TIP3    H251605   5.158   2.787  16.336  2.9353  0.7266 -0.6662
10064TIP3   OH251606   4.085   5.038  16.790  0.7804 -0.0265 -0.1876
10064TIP3    H151607   4.036   5.088  16.855  2.5246  1.2390  0.1759
10064TIP3    H251608   4.021   5.022  16.720  0.1096  2.5281 -0.2088
10065TIP3   OH251609   5.111   0.051   4.484  0.8682 -0.1879 -0.7516
10065TIP3    H151610   5.148  -0.036   4.498  1.4648  0.0721 -0.6483
10065TIP3    H251611   5.158   0.106   4.547  2.4039  0.7036 -2.6081
10066TIP3   OH251612   6.587   3.637   1.643 -0.5240 -0.0053 -0.7590
10066TIP3    H151613   6.533   3.559   1.628 -1.1153  0.5709 -1.6400
10066TIP3    H251614   6.527   3.701   1.682  0.4471 -0.6870  1.9628
10067TIP3   OH251615   6.389   4.098   3.100  0.1320  0.4067  0.1862
10067TIP3    H151616   6.378   4.102   3.005 -3.3457 -0.0256  0.5178
10067TIP3    H251617   6.404   4.189   3.126  0.7376  0.5748 -0.7099
10068TIP3   OH251618   4.369   1.152  11.030 -0.4758  0.2046  0.1028
10068TIP3    H151619   4.283   1.184  11.057 -1.0451 -1.2157 -0.0201
10068TIP3    H251620   4.353   1.065  10.994  1.1767 -0.5490  1.1084
10069TIP3   OH251621   4.116   6.657  12.729  0.0232 -0.0543  0.3460
10069TIP3    H151622   4.092   6.660  12.636  0.7347 -1.2101  0.1074
10069TIP3    H251623   4.038   6.621  12.772 -0.7631  1.6292  0.3872
10070TIP3   OH251624   3.524   3.220   2.122  0.3818 -0.1208 -0.0044
10070TIP3    H151625   3.511   3.125   2.125 -0.0136 -0.0341  1.6640
10070TIP3    H251626   3.568   3.236   2.039 -3.0899 -1.3164 -2.1751
10071TIP3   OH251627   3.047   3.264   1.416 -0.7120 -0.3855  0.0257
10071TIP3    H151628   3.123   3.214   1.384  0.1113 -0.2335  1.6992
10071TIP3    H251629   3.005   3.206   1.480 -1.0377  0.1881  0.3334
10072TIP3   OH251630   5.596   0.487  11.574  0.0771 -0.0118 -0.1671
10072TIP3    H151631   5.595   0.495  11.479 -0.7200  2.0816 -0.0101
10072TIP3    H251632   5.688   0.473  11.597  0.6221  1.9690 -1.0688
10073TIP3   OH251633   4.080   5.336  11.806  0.0735  0.1821 -0.0765
10073TIP3    H151634   4.071   5.333  11.901 -0.5716 -2.1189 -0.1912
10073TIP3    H251635   4.099   5.428  11.786  1.8724  0.3970  2.4184
10074TIP3   OH251636   3.229   2.583   1.428 -0.0594  0.1694 -0.2093
10074TIP3    H151637   3.133   2.584   1.438 -0.0472  2.4390 -0.1387
10074TIP3    H251638   3.243   2.612   1.338  0.5843 -0.2045 -0.2331
10075TIP3   OH251639   4.577   3.474  11.868 -0.2964 -0.1876 -0.0741
10075TIP3    H151640   4.569   3.568  11.881 -1.7407 -0.2282 -0.5171
10075TIP3    H251641   4.671   3.456  11.875 -0.1927  0.9898  1.9414
10076TIP3   OH251642   4.648   5.374  16.165 -0.1744 -0.1774 -0.5066
10076TIP3    H151643   4.556   5.345  16.169 -0.6040  1.0218 -1.5477
10076TIP3    H251644   4.651   5.448  16.225  0.3482 -0.7830  0.2314
10077TIP3   OH251645   1.657   4.254  14.515 -0.0792  0.1193  0.0440
10077TIP3    H151646   1.733   4.310  14.533  1.1442 -1.7857  0.9048
10077TIP3    H251647   1.669   4.226  14.424  0.9996 -1.2729  0.5961
10078TIP3   OH251648   2.531   4.860   5.466 -0.2817 -0.3856 -1.1297
10078TIP3    H151649   2.473   4.924   5.507  0.7617  1.2031 -2.1267
10078TIP3    H251650   2.613   4.868   5.514 -0.3027 -1.3714 -0.9077
10079TIP3   OH251651   3.985   5.014  14.746  0.2764  0.3761 -0.1095
10079TIP3    H151652   3.896   5.013  14.781 -0.5354  2.9424 -1.9942
10079TIP3    H251653   4.039   5.045  14.819 -0.6790  0.9800  0.3499
10080TIP3   OH251654   1.043   3.790  13.839 -0.5441 -0.2405  0.8027
10080TIP3    H151655   1.054   3.848  13.764 -2.5923 -1.4584 -0.4973
10080TIP3    H251656   1.094   3.712  13.817  0.2910  0.1130  1.4789
10081TIP3   OH251657   5.706   3.974   3.154  0.4493  0.4352 -0.0817
10081TIP3    H151658   5.682   3.882   3.166  0.6910  0.6373  2.1067
10081TIP3    H251659   5.633   4.023   3.192  0.1038  1.1790 -1.6508
10082TIP3   OH251660   0.967   2.669   2.175 -0.5618 -0.2292  0.1090
10082TIP3    H151661   0.994   2.660   2.266  0.7332  0.2028 -0.2259
10082TIP3    H251662   0.878   2.705   2.180 -0.3381  0.1831  1.1857
10083TIP3   OH251663   1.145   6.621   1.324 -0.5443  0.4535  0.5206
10083TIP3    H151664   1.076   6.588   1.381  0.3947  0.2110  1.5273
10083TIP3    H251665   1.153   6.555   1.255  0.4577 -0.8263  1.8364
10084TIP3   OH251666   6.174   4.426   3.233  0.0225  0.6487 -0.1751
10084TIP3    H151667   6.131   4.359   3.179 -1.7160  0.6684  1.1313
10084TIP3    H251668   6.214   4.485   3.170 -0.6083 -0.2060 -1.4140
10085TIP3   OH251669   6.277   5.448  11.499  0.3944  0.6629  0.5044
10085TIP3    H151670   6.250   5.441  11.408 -1.4185  1.0935  0.9716
10085TIP3    H251671   6.287   5.358  11.529 -1.0096  0.4619  0.4181
10086TIP3   OH251672   6.659   0.302  16.557  0.0006 -0.1450 -0.5963
10086TIP3    H151673   6.669   0.229  16.495  0.5541  0.3697 -1.1183
10086TIP3    H251674   6.745   0.346  16.556  0.0981 -0.2970  0.7447
10087TIP3   OH251675   4.762   5.184  12.500 -0.2216  0.0774 -0.5851
10087TIP3    H151676   4.787   5.109  12.446  0.3892 -0.0716 -0.0937
10087TIP3    H251677   4.693   5.227  12.450 -1.5236 -1.5625 -0.2566
10088TIP3   OH251678   3.879   2.075   0.671  0.8440  0.1614 -0.3891
10088TIP3    H151679   3.887   2.006   0.737 -3.2507 -0.2274 -0.1866
10088TIP3    H251680   3.884   2.156   0.721 -2.4766 -0.1331  0.5249
10089TIP3   OH251681   3.507   1.411   1.760 -0.0715 -0.0515 -0.3261
10089TIP3    H151682   3.601   1.428   1.762  0.1597 -1.3461  0.8401
10089TIP3    H251683   3.467   1.495   1.738  1.4132  0.2235 -2.0717
10090TIP3   OH251684   4.989   4.366  12.098  0.2826  0.3588  0.5617
10090TIP3    H151685   5.051   4.342  12.030 -0.5018  1.7697 -0.6960
10090TIP3    H251686   5.030   4.338  12.180  2.1464  0.4441 -0.3249
10091TIP3   OH251687   6.227   2.312  17.121 -0.2091 -0.2255 -0.2523
10091TIP3    H151688   6.176   2.237  17.091 -1.7411  0.4848  0.5300
10091TIP3    H251689   6.162   2.379  17.143  1.1859  2.0607 -2.7509
10092TIP3   OH251690   2.168   5.666   5.550  0.1935  0.1845  0.1847
10092TIP3    H151691   2.205   5.755   5.550 -0.4156  0.4451 -1.0851
10092TIP3    H251692   2.168   5.640   5.458  0.9770 -1.3967  0.6222
10093TIP3   OH251693   1.790   6.708  11.185  0.0320  0.2138 -0.2368
10093TIP3    H151694   1.734   6.634  11.207 -0.0262  0.4532  0.4316
10093TIP3    H251695   1.804   6.701  11.091  0.5966 -1.0509 -0.0612
10094TIP3   OH251696   6.329   1.970   2.790 -0.8276  0.3656  0.3519
10094TIP3    H151697   6.407   1.942   2.837 -2.4987  0.1861  3.1166
10094TIP3    H251698   6.314   2.060   2.820 -1.5611  0.4824 -0.3362
10095TIP3   OH251699   5.761   4.828  14.834 -0.0527  0.1016 -0.0985
10095TIP3    H151700   5.738   4.751  14.886 -1.2989  0.4268 -0.1250
10095TIP3    H251701   5.696   4.829  14.763  0.2870  0.8603 -0.4035
10096TIP3   OH251702   0.616   1.401   6.143  0.2984  0.0048 -0.0097
10096TIP3    H151703   0.540   1.452   6.114  1.4233  1.4087 -0.5543
10096TIP3    H251704   0.664   1.382   6.062  0.9074 -0.2502  0.4060
10097TIP3   OH251705   4.938   5.174  13.436 -0.5535  0.2384 -0.5419
10097TIP3    H151706   4.940   5.110  13.507  0.8394  0.8005 -0.0374
10097TIP3    H251707   4.919   5.123  13.358  2.3321 -1.1278 -0.4390
10098TIP3   OH251708   6.352   5.316   2.195 -0.4557  0.2154 -0.5640
10098TIP3    H151709   6.428   5.335   2.249  0.3323  0.1856 -1.6495
10098TIP3    H251710   6.366   5.226   2.165 -1.0432  0.1198 -0.5565
10099TIP3   OH251711   2.203   6.160  10.828  0.6246  0.2407  0.3160
10099TIP3    H151712   2.283   6.171  10.775  0.5247 -0.7934 -0.0507
10099TIP3    H251713   2.223   6.087  10.886 -0.6163 -1.0544 -0.8463
10100TIP3   OH251714   5.994   1.398  16.962 -0.3365 -0.6031 -0.0555
10100TIP3    H151715   5.942   1.425  16.887 -0.7216 -0.1691  0.3673
10100TIP3    H251716   5.939   1.416  17.038  0.5056  0.0798  0.4078
10101TIP3   OH251717   1.499   0.509   3.087  0.8319  0.0787  0.1092
10101TIP3    H151718   1.565   0.560   3.040  1.4524 -1.3776 -0.6362
10101TIP3    H251719   1.524   0.418   3.071  0.0259 -0.4523  1.8223
10102TIP3   OH251720   3.758   5.340   2.522  0.0616  0.2601 -0.0946
10102TIP3    H151721   3.825   5.408   2.521  0.8464 -0.4895  0.5177
10102TIP3    H251722   3.783   5.283   2.595 -0.3577 -0.9245 -0.8685
10103TIP3   OH251723   4.346   0.812   1.945  0.5487  0.2984 -0.1048
10103TIP3    H151724   4.378   0.888   1.895 -0.0061  0.5152 -0.1314
10103TIP3    H251725   4.384   0.824   2.032 -2.1023  2.3261  0.8259
10104TIP3   OH251726   0.405   1.355  10.707  0.4252 -0.9958 -0.2104
10104TIP3    H151727   0.345   1.429  10.701  1.8709  0.1057 -1.4901
10104TIP3    H251728   0.487   1.393  10.739  1.6826 -1.6985 -2.4638
10105TIP3   OH251729   3.724   6.434   3.599  0.3426  0.9429 -0.2634
10105TIP3    H151730   3.674   6.366   3.644  1.2532  0.6833  0.3725
10105TIP3    H251731   3.693   6.431   3.509 -1.6348  1.5855  0.3702
10106TIP3   OH251732   0.275   4.629   3.075 -0.1432  0.1564  0.1473
10106TIP3    H151733   0.350   4.639   3.133  0.2761 -0.4878 -0.2720
10106TIP3    H251734   0.200   4.623   3.134  0.2842 -0.5258  0.6374
10107TIP3   OH251735   0.171   0.274   2.015  0.5938  0.5992  0.6140
10107TIP3    H151736   0.111   0.205   2.042  1.4186  0.0703  1.1177
10107TIP3    H251737   0.245   0.266   2.075  1.2735  1.0935 -0.1512
10108TIP3   OH251738   2.107   2.450  15.630 -0.0608 -0.2571 -0.1081
10108TIP3    H151739   2.062   2.376  15.670 -0.1819  0.3853  0.9503
10108TIP3    H251740   2.166   2.410  15.565  0.1615 -1.3075  0.7313
10109TIP3   OH251741   5.745   4.504  12.124 -0.3424  0.5203 -0.6175
10109TIP3    H151742   5.709   4.554  12.197 -0.2448  0.4231 -0.5034
10109TIP3    H251743   5.728   4.559  12.047  0.6775  1.2097 -0.3664
10110TIP3   OH251744   2.018   3.218  13.033 -0.2239  0.0825  0.0280
10110TIP3    H151745   1.929   3.211  13.067 -0.6120 -0.3838 -1.0661
10110TIP3    H251746   2.073   3.217  13.111 -1.0744 -1.4176  0.6298
10111TIP3   OH251747   1.702   0.940   0.835  0.1666 -0.2440  0.2812
10111TIP3    H151748   1.685   0.881   0.762 -1.0957  0.1131  0.2735
10111TIP3    H251749   1.631   0.923   0.897 -0.7994  1.9531 -0.1751
10112TIP3   OH251750   6.513   3.967  15.358 -0.4753 -0.2938 -0.0693
10112TIP3    H151751   6.460   3.972  15.438  1.3789  1.9343  1.0890
10112TIP3    H251752   6.552   3.880  15.360 -1.2089 -0.6033  0.9658
10113TIP3   OH251753   2.344   0.984  12.258 -0.1612  0.0388 -0.1734
10113TIP3    H151754   2.273   1.005  12.197  0.6224 -1.6510 -1.7199
10113TIP3    H251755   2.423   1.015  12.214  0.2763  0.1048  0.6502
10114TIP3   OH251756   1.699   6.083  15.954 -0.1747 -0.2692  0.9366
10114TIP3    H151757   1.705   5.988  15.967  2.8374 -0.0059  1.9205
10114TIP3    H251758   1.760   6.120  16.018  0.3707  2.2089 -0.9314
10115TIP3   OH251759   3.843   1.439  13.629 -0.1466 -0.3642 -0.0722
10115TIP3    H151760   3.845   1.460  13.536 -0.0293 -1.3255 -0.2880
10115TIP3    H251761   3.931   1.456  13.660 -0.3359  0.5161 -0.0132
10116TIP3   OH251762   6.132   2.308  16.161 -0.3586  0.0083  0.0930
10116TIP3    H151763   6.077   2.384  16.143 -1.1049 -0.7900 -0.9890
10116TIP3    H251764   6.222   2.342  16.153 -0.6436  1.4212  2.3408
10117TIP3   OH251765   4.184   6.518  15.431  0.1153 -0.2924  0.5913
10117TIP3    H151766   4.091   6.513  15.410  0.3951 -0.4397 -0.6360
10117TIP3    H251767   4.192   6.594  15.490 -0.9850 -1.1720  1.8910
10118TIP3   OH251768   0.006   5.713  11.496  0.5068  0.6791  0.0256
10118TIP3    H151769  -0.053   5.643  11.524 -0.1487  0.9655 -0.6121
10118TIP3    H251770  -0.026   5.791  11.541  1.1372  0.5999  0.6107
10119TIP3   OH251771   2.073   0.921  10.696 -0.1436 -0.1424  1.4384
10119TIP3    H151772   2.164   0.901  10.677 -0.7343 -0.9582 -0.7877
10119TIP3    H251773   2.029   0.835  10.698 -1.5605  0.4070 -1.7823
10120TIP3   OH251774   2.561   0.240   5.104 -0.2812 -0.1355  0.0014
10120TIP3    H151775   2.513   0.321   5.121  1.0578  0.2831  2.0716
10120TIP3    H251776   2.625   0.264   5.037  0.3928  0.6416  0.9134
10121TIP3   OH251777   5.341   5.244   5.568  0.0652  0.1954  0.1210
10121TIP3    H151778   5.342   5.179   5.638  1.8510  0.4578  0.3643
10121TIP3    H251779   5.366   5.326   5.611 -0.9873  0.8065 -0.4134
10122TIP3   OH251780   1.996   2.053  14.358 -0.4665 -0.3708 -0.4769
10122TIP3    H151781   2.016   2.141  14.324  0.5920 -0.0794  0.8260
10122TIP3    H251782   1.911   2.063  14.401  1.0539  0.8657  2.4408
10123TIP3   OH251783   1.109   3.096   1.110  0.4272  0.0903  0.0098
10123TIP3    H151784   1.116   3.105   1.205 -0.5101  0.3807  0.0573
10123TIP3    H251785   1.081   3.005   1.097 -0.6443  0.4006  0.0820
10124TIP3   OH251786   1.583   1.292  16.798 -0.3446  0.1898 -0.4447
10124TIP3    H151787   1.587   1.260  16.708 -1.0127 -2.4436  0.4302
10124TIP3    H251788   1.495   1.269  16.828 -0.3795  1.6791  0.6692
10125TIP3   OH251789   0.162   4.783  16.496  0.8383  0.1944 -0.0092
10125TIP3    H151790   0.190   4.831  16.418  1.1868 -0.0175 -0.0127
10125TIP3    H251791   0.066   4.780  16.488  0.9069 -0.3707 -0.7550
10126TIP3   OH251792   1.800   1.235   1.669  0.5963  0.9529 -0.1285
10126TIP3    H151793   1.828   1.307   1.613  0.3522  1.6582  0.6378
10126TIP3    H251794   1.793   1.160   1.610  0.2345  1.7028 -1.0504
10127TIP3   OH251795   1.268   6.605   3.983  0.1423 -0.0039 -0.2027
10127TIP3    H151796   1.277   6.654   3.901  2.4741 -1.1432 -0.6772
10127TIP3    H251797   1.175   6.610   4.004  0.1698  3.9363 -0.6582
10128TIP3   OH251798   2.182   0.227  15.462 -0.1061 -0.4318  0.0600
10128TIP3    H151799   2.139   0.311  15.479  1.7684  0.5749 -0.0614
10128TIP3    H251800   2.110   0.163  15.463 -1.5559  1.1516  0.1714
10129TIP3   OH251801   0.822   4.053  13.764  0.3641  0.1283 -0.3936
10129TIP3    H151802   0.748   4.105  13.732 -0.5730  0.9799  2.9600
10129TIP3    H251803   0.791   4.013  13.844  3.5235  0.4934  1.0929
10130TIP3   OH251804   3.074   2.219   0.071  0.1268  0.4254 -0.0348
10130TIP3    H151805   2.980   2.222   0.090 -0.2775  0.6889 -2.0151
10130TIP3    H251806   3.085   2.278  -0.003  1.9773  0.8971  0.5943
10131TIP3   OH251807   0.353   4.798   4.615  0.7382  0.2160 -0.6362
10131TIP3    H151808   0.421   4.740   4.582  0.7609  0.6711 -1.3872
10131TIP3    H251809   0.294   4.810   4.541  0.2819  0.4811 -0.2291
10132TIP3   OH251810   3.682   0.776  16.273 -0.3201  0.1418  0.2369
10132TIP3    H151811   3.754   0.714  16.267 -0.5846  0.0384 -2.6408
10132TIP3    H251812   3.611   0.736  16.224 -1.7772  1.0229  1.5713
10133TIP3   OH251813   5.280   4.835  14.310  0.5633 -0.0143  0.4097
10133TIP3    H151814   5.338   4.907  14.335 -0.4492  1.6427 -1.7978
10133TIP3    H251815   5.330   4.786  14.245 -0.4408  1.4707 -1.5667
10134TIP3   OH251816   2.058   4.990   2.393 -0.2682  0.2227 -0.1259
10134TIP3    H151817   1.984   4.978   2.452 -0.3851  2.0517  0.1501
10134TIP3    H251818   2.038   4.935   2.317 -2.6788  1.8313 -0.7116
10135TIP3   OH251819   3.869   5.234   4.297  0.8306 -0.3508 -0.1404
10135TIP3    H151820   3.930   5.281   4.354  0.7520  0.5526 -0.7884
10135TIP3    H251821   3.864   5.289   4.218 -1.5185  0.0532  0.2686
10136TIP3   OH251822   4.119   2.654  12.267  0.4318 -0.0339 -0.7069
10136TIP3    H151823   4.079   2.633  12.351  1.3862 -1.3769 -0.5607
10136TIP3    H251824   4.050   2.639  12.202  0.1954 -0.6647 -0.3131
10137TIP3   OH251825   0.081   0.176  15.680 -0.3918 -0.3981  0.2086
10137TIP3    H151826   0.012   0.207  15.622  1.0250  2.3787 -0.0717
10137TIP3    H251827   0.121   0.102  15.634  1.6145  2.5896 -3.0664
10138TIP3   OH251828   2.752   2.030   2.685 -0.4411  0.2433 -0.1174
10138TIP3    H151829   2.770   2.062   2.774 -0.1859 -0.3758  0.0572
10138TIP3    H251830   2.689   1.959   2.698  2.0778 -2.0580 -0.1244
10139TIP3   OH251831   2.706   4.451  13.421  0.0134 -1.1287  0.3574
10139TIP3    H151832   2.617   4.453  13.386  0.3630 -0.8657 -0.5210
10139TIP3    H251833   2.725   4.357  13.432  0.0602 -1.2233 -0.5560
10140TIP3   OH251834   4.978   6.433   0.654 -0.5582 -0.3088  0.1786
10140TIP3    H151835   5.068   6.443   0.685 -0.3814 -1.4277  0.0508
10140TIP3    H251836   4.943   6.361   0.706 -0.9446 -0.7647 -0.7002
10141TIP3   OH251837   0.545   3.622  15.268 -0.6579  0.1143  0.0048
10141TIP3    H151838   0.511   3.536  15.243 -0.0074 -0.1999  0.2019
10141TIP3    H251839   0.603   3.605  15.342 -0.9324  0.7880  0.3819
10142TIP3   OH251840   2.476   0.739  15.007 -0.1151  0.2341 -0.2146
10142TIP3    H151841   2.383   0.716  15.003  0.0302 -0.4918  0.4358
10142TIP3    H251842   2.521   0.656  14.996  0.4756  0.6888 -1.2867
10143TIP3   OH251843   1.922   5.184   2.803 -0.0274  0.1039  0.2311
10143TIP3    H151844   1.879   5.107   2.840  1.2804 -0.6001  0.3297
10143TIP3    H251845   1.900   5.183   2.710  0.4184 -0.6997  0.1293
10144TIP3   OH251846   3.009   5.651  11.756  0.0205  0.7720  0.1633
10144TIP3    H151847   2.949   5.646  11.831 -0.7904 -1.0186 -0.5753
10144TIP3    H251848   3.006   5.564  11.717  2.0587  1.0767 -0.7219
10145TIP3   OH251849   0.414   2.752   3.297 -0.0809 -0.1893 -0.3049
10145TIP3    H151850   0.328   2.792   3.310  0.5053  0.7345  0.8260
10145TIP3    H251851   0.409   2.669   3.345  0.0268  0.3772  0.6961
10146TIP3   OH251852   0.661   5.515  15.503 -0.0395  0.1504 -0.1777
10146TIP3    H151853   0.678   5.439  15.559  1.1808 -0.9208 -1.9662
10146TIP3    H251854   0.573   5.543  15.528 -0.5737 -1.9518  0.4107
10147TIP3   OH251855   2.596   4.987  16.210  0.0083 -0.0049  0.2501
10147TIP3    H151856   2.565   4.898  16.226  0.1960 -0.4752 -1.7828
10147TIP3    H251857   2.603   4.993  16.114  0.4388  2.0426  0.3791
10148TIP3   OH251858   2.859   3.120   3.787  0.0463 -0.1663  0.2207
10148TIP3    H151859   2.795   3.190   3.802  0.1601 -0.0602  0.2082
10148TIP3    H251860   2.808   3.049   3.749 -0.2340 -0.4058  1.0349
10149TIP3   OH251861   3.961   3.037  13.603 -0.4869 -0.2523 -0.3915
10149TIP3    H151862   3.985   3.129  13.614  3.1342 -1.2004  0.2652
10149TIP3    H251863   3.875   3.040  13.562 -0.0959  3.4281 -1.1419
10150TIP3   OH251864   6.262   3.595  14.810  0.4913 -0.4325 -0.5848
10150TIP3    H151865   6.235   3.666  14.869 -0.3287 -1.3587  0.1683
10150TIP3    H251866   6.346   3.624  14.775  1.3458 -0.1776  1.6094
10151TIP3   OH251867   6.312   4.702   2.614  0.4990  0.5966  0.2198
10151TIP3    H151868   6.292   4.633   2.677  2.0841 -0.1066 -0.0093
10151TIP3    H251869   6.303   4.784   2.664  1.8635  0.0393  1.4062
10152TIP3   OH251870   4.821   2.435   4.388 -0.5357  0.4223 -0.2188
10152TIP3    H151871   4.727   2.426   4.375 -0.4430 -0.1010 -0.5365
10152TIP3    H251872   4.848   2.354   4.431 -0.0850  0.1848 -0.9401
10153TIP3   OH251873   4.437   4.037   2.152 -0.3320  0.1226  0.2148
10153TIP3    H151874   4.509   4.004   2.097 -1.7193  0.8660 -2.1271
10153TIP3    H251875   4.431   4.130   2.131 -2.3548 -0.0519 -0.1106
10154TIP3   OH251876   0.173   3.142   1.428 -0.0356 -0.2766 -0.1493
10154TIP3    H151877   0.141   3.128   1.517 -0.7177 -0.2998 -0.3997
10154TIP3    H251878   0.174   3.055   1.388 -2.2791  0.0839 -1.0257
10155TIP3   OH251879   4.385   6.254   4.364 -0.1344  0.4915  0.0617
10155TIP3    H151880   4.383   6.328   4.426  1.4821 -0.4135  1.2338
10155TIP3    H251881   4.378   6.176   4.419  1.9511 -0.3561 -0.8052
10156TIP3   OH251882   1.371   5.195   4.942  0.8535  0.0470  0.3549
10156TIP3    H151883   1.319   5.137   4.887 -2.1341  2.1827  0.7605
10156TIP3    H251884   1.396   5.267   4.884  1.0348  0.3667  0.8263
10157TIP3   OH251885   2.174   0.762  14.484 -0.0808  0.4325 -0.8025
10157TIP3    H151886   2.147   0.850  14.512 -0.1424 -0.0938  0.8215
10157TIP3    H251887   2.092   0.712  14.480 -0.0050  0.3570 -1.3819
10158TIP3   OH251888   5.698   0.541   3.022 -0.1445  0.1822  0.7986
10158TIP3    H151889   5.720   0.494   3.103 -0.0178 -1.8250 -0.3793
10158TIP3    H251890   5.778   0.587   2.999  1.6184 -3.6690 -1.1385
10159TIP3   OH251891   6.724   2.132  12.659 -0.2767 -0.2839  0.8234
10159TIP3    H151892   6.784   2.123  12.733 -1.0712 -0.9291  1.4018
10159TIP3    H251893   6.701   2.224  12.658  1.9091  0.2818 -0.3521
10160TIP3   OH251894   6.423   6.408  13.476  0.0030 -0.0892 -0.5366
10160TIP3    H151895   6.434   6.317  13.506  2.1814  0.5013  0.5535
10160TIP3    H251896   6.480   6.416  13.400  1.8094  1.0526  0.9028
10161TIP3   OH251897   4.182   4.499   3.431  0.1493  0.6100  0.9285
10161TIP3    H151898   4.200   4.496   3.337 -1.4458 -0.5340  0.6393
10161TIP3    H251899   4.238   4.431   3.469  1.3492  1.5744  0.9269
10162TIP3   OH251900   1.231   1.299   3.262  0.2303 -0.3047 -0.2464
10162TIP3    H151901   1.180   1.368   3.221  2.4902  0.2509 -2.2677
10162TIP3    H251902   1.202   1.218   3.219 -0.4818 -0.2785  0.1792
10163TIP3   OH251903   1.532   3.640  11.893 -0.1509  0.4527  0.4390
10163TIP3    H151904   1.577   3.570  11.941 -0.4479  0.0025  0.0728
10163TIP3    H251905   1.595   3.712  11.891  0.8294 -0.4027 -0.6391
10164TIP3   OH251906   6.573   0.596   4.755 -0.3241  0.4567  0.0455
10164TIP3    H151907   6.599   0.506   4.733 -1.1559  0.2574 -0.1562
10164TIP3    H251908   6.495   0.611   4.702  1.0750  2.0785 -1.6015
10165TIP3   OH251909   1.787   5.587  13.932 -0.0254 -0.2317  0.2490
10165TIP3    H151910   1.761   5.665  13.982  0.8756  0.3733 -0.2054
10165TIP3    H251911   1.705   5.540  13.915 -0.5689  0.6003  0.5588
10166TIP3   OH251912   3.770   0.474  15.992  0.3272 -0.1737 -0.4005
10166TIP3    H151913   3.842   0.463  15.930  0.7113 -0.6656  0.1262
10166TIP3    H251914   3.813   0.494  16.075 -0.1782  0.3668 -0.2670
10167TIP3   OH251915   0.710   6.191  12.389 -0.0972  0.1824 -0.3541
10167TIP3    H151916   0.694   6.248  12.464 -1.8361 -0.5352 -0.1632
10167TIP3    H251917   0.789   6.141  12.413 -0.6913 -0.1045  1.0310
10168TIP3   OH251918   0.112   3.113  11.512 -0.4632 -0.2902  0.4324
10168TIP3    H151919   0.198   3.079  11.488  0.3584  1.3065  1.0598
10168TIP3    H251920   0.117   3.126  11.607 -1.2847  0.1086  0.4276
10169TIP3   OH251921   3.167   2.682  12.632  0.0138  0.2913 -0.1144
10169TIP3    H151922   3.074   2.680  12.658  0.7737  0.0702  2.8252
10169TIP3    H251923   3.195   2.591  12.637  0.9133  0.6215  1.1550
10170TIP3   OH251924   2.880   3.900  12.767  0.1682 -0.6239  0.8570
10170TIP3    H151925   2.937   3.951  12.826  1.4476 -0.1426 -0.7535
10170TIP3    H251926   2.793   3.937  12.779  1.4314  3.5791 -1.9526
10171TIP3   OH251927   5.511   6.290  12.031  0.5822 -0.4645 -0.1573
10171TIP3    H151928   5.436   6.348  12.019  1.1728  0.8819  2.3832
10171TIP3    H251929   5.472   6.207  12.060 -0.1842 -1.0979 -2.8400
10172TIP3   OH251930   3.855   4.279   5.062  0.3937 -0.0819 -0.0095
10172TIP3    H151931   3.895   4.345   5.119  0.6777 -0.4981  0.2757
10172TIP3    H251932   3.875   4.308   4.974 -0.9999  1.1616  0.0672
10173TIP3   OH251933   5.733   0.555  16.895  0.5221  0.6811  0.0485
10173TIP3    H151934   5.747   0.612  16.971  0.1264  0.4576  0.2905
10173TIP3    H251935   5.804   0.491  16.899 -0.2312 -0.1181  0.9639
10174TIP3   OH251936   5.678   1.960   3.460  0.2649  0.0012 -0.0612
10174TIP3    H151937   5.708   1.996   3.376 -0.8729  0.5408 -0.2589
10174TIP3    H251938   5.587   1.933   3.443  0.5701 -1.4507  0.5465
10175TIP3   OH251939   2.822   3.708   0.900  0.3850  0.1674 -0.4572
10175TIP3    H151940   2.829   3.763   0.978  0.7810 -0.1871 -0.2428
10175TIP3    H251941   2.732   3.675   0.902 -0.0104  1.2099 -0.8616
10176TIP3   OH251942   5.209   5.611  14.735  0.5841  0.3770 -0.2072
10176TIP3    H151943   5.132   5.629  14.681 -0.0070  2.0622  1.1443
10176TIP3    H251944   5.242   5.527  14.703 -0.9282  0.3651 -1.8086
10177TIP3   OH251945   5.771   4.553   4.877 -0.1184 -0.6917  0.4487
10177TIP3    H151946   5.857   4.554   4.920  0.4493 -0.8205 -0.6613
10177TIP3    H251947   5.791   4.555   4.784 -1.3647  0.4056  0.1968
10178TIP3   OH251948   4.235   2.029  17.091  0.0494  0.1078  0.2753
10178TIP3    H151949   4.228   1.947  17.044  0.3761  1.7902 -2.8298
10178TIP3    H251950   4.145   2.062  17.095  0.0219 -0.0245  0.8656
10179TIP3   OH251951   3.750   1.420  11.201 -0.1177 -0.0061  0.0175
10179TIP3    H151952   3.839   1.383  11.206 -0.5090 -0.7187  3.4630
10179TIP3    H251953   3.697   1.358  11.252 -1.9901  2.0195  0.5795
10180TIP3   OH251954   0.195   1.703  11.521  0.1379  0.4653 -0.2031
10180TIP3    H151955   0.121   1.709  11.581 -0.1382  0.0390 -0.4967
10180TIP3    H251956   0.270   1.684  11.577 -0.0259  0.6187  0.0663
10181TIP3   OH251957   2.762   1.446   5.165 -0.3866  0.4232 -0.5697
10181TIP3    H151958   2.697   1.377   5.179 -0.5354  0.7150  0.2132
10181TIP3    H251959   2.804   1.423   5.082 -0.1776 -0.8222 -0.1330
10182TIP3   OH251960   5.482   4.859  12.657 -0.1091  0.0992  0.2724
10182TIP3    H151961   5.562   4.831  12.611  0.0301  0.2674  0.4124
10182TIP3    H251962   5.425   4.782  12.653 -0.2879  0.2729 -0.6120
10183TIP3   OH251963   4.438   3.928   3.916 -0.1977 -0.2200  0.1363
10183TIP3    H151964   4.363   3.934   3.858 -0.6975 -0.5825  0.7389
10183TIP3    H251965   4.467   3.837   3.908  1.0308  0.2634 -1.1419
10184TIP3   OH251966   0.629   6.541  13.998  0.3933 -0.4027  0.0948
10184TIP3    H151967   0.633   6.466  13.938 -0.3991 -0.1744 -0.2432
10184TIP3    H251968   0.588   6.611  13.947 -2.3889 -0.8855  1.6008
10185TIP3   OH251969   6.534   2.410   2.152 -0.4471 -0.2697  0.7440
10185TIP3    H151970   6.525   2.348   2.224 -1.9570 -0.6824  0.2226
10185TIP3    H251971   6.445   2.441   2.135  0.2274  1.7116  0.6997
10186TIP3   OH251972   1.699   4.667   1.103  0.0757 -0.0241  0.2271
10186TIP3    H151973   1.612   4.633   1.084 -0.3470 -0.2812  2.5065
10186TIP3    H251974   1.711   4.653   1.197  2.5305  0.0997 -0.0154
10187TIP3   OH251975   5.828   4.371  17.010  0.1516 -0.6400  0.2018
10187TIP3    H151976   5.748   4.336  17.049  0.1067 -0.3665  0.3573
10187TIP3    H251977   5.882   4.396  17.085 -1.1718  2.7118  0.1010
10188TIP3   OH251978   0.743   3.501  12.403 -0.5521  0.2122 -0.0181
10188TIP3    H151979   0.696   3.584  12.417  0.7549  1.1109 -0.8721
10188TIP3    H251980   0.682   3.448  12.351 -0.8688  1.1543 -0.6244
10189TIP3   OH251981   6.288   4.604  14.137  0.1514  0.3384 -0.0513
10189TIP3    H151982   6.309   4.545  14.210  0.2016 -0.1562 -0.4645
10189TIP3    H251983   6.222   4.557  14.087 -1.3284  1.5161  0.7594
10190TIP3   OH251984   2.956   6.574  12.875  0.4017  0.4323  0.2369
10190TIP3    H151985   2.989   6.618  12.953 -0.5973 -1.0495  1.5368
10190TIP3    H251986   2.863   6.561  12.892  0.4780 -1.2736 -0.5347
10191TIP3   OH251987   4.182   1.035  14.362  0.1119 -0.5603  0.4484
10191TIP3    H151988   4.166   0.941  14.355  1.4701 -0.9583  2.3041
10191TIP3    H251989   4.268   1.048  14.322 -0.4151  0.0335 -0.5206
10192TIP3   OH251990   5.138   2.039   1.801  0.2827 -0.1779 -0.2582
10192TIP3    H151991   5.089   2.120   1.787  0.1228 -0.0320  1.0690
10192TIP3    H251992   5.134   2.025   1.896  0.7171 -1.4819 -0.4238
10193TIP3   OH251993   2.357   3.037   1.781  0.5951 -0.0606  0.1589
10193TIP3    H151994   2.262   3.037   1.782  0.5845  1.6899  1.4350
10193TIP3    H251995   2.383   2.996   1.863  0.9672 -1.2505 -0.5372
10194TIP3   OH251996   1.341   4.488  16.334 -0.0229  0.3574 -0.4105
10194TIP3    H151997   1.322   4.405  16.379 -0.6929  0.7690  0.0726
10194TIP3    H251998   1.436   4.486  16.320  0.2773  0.3931  1.4223
10195TIP3   OH251999   6.242   4.072  11.507 -0.0669 -0.2514  0.4657
10195TIP3    H152000   6.189   4.065  11.427  0.6841  0.4696 -0.0911
10195TIP3    H252001   6.240   3.984  11.544 -0.9658 -0.4334  0.0052
10196TIP3   OH252002   4.547   1.326  14.572  0.4789 -0.0718  0.3925
10196TIP3    H152003   4.587   1.368  14.648 -0.0898  0.2453  0.5165
10196TIP3    H252004   4.519   1.240  14.603  0.4478 -0.0295  0.4817
10197TIP3   OH252005   5.137   5.050  12.589 -0.0653 -0.7915 -0.3606
10197TIP3    H152006   5.164   5.130  12.545 -1.3023  0.0908  0.4508
10197TIP3    H252007   5.087   5.002  12.523 -0.8588 -0.0464 -0.3132
10198TIP3   OH252008   5.398   0.705  17.169 -0.0661 -0.2167 -0.9451
10198TIP3    H152009   5.330   0.751  17.120 -2.8215  0.7825  3.4561
10198TIP3    H252010   5.443   0.773  17.218  2.4372 -1.1860 -1.8529
10199TIP3   OH252011   1.452   2.545   4.192 -0.0026  0.1929 -0.0821
10199TIP3    H152012   1.447   2.626   4.142  1.4759 -1.1131 -2.4156
10199TIP3    H252013   1.449   2.476   4.126 -0.5744 -1.6577  1.8169
10200TIP3   OH252014   5.392   1.093  17.083  0.0373  0.1500 -0.4080
10200TIP3    H152015   5.441   1.125  17.007 -0.5904  0.5033 -0.6662
10200TIP3    H252016   5.457   1.049  17.137  1.1369  2.7602  0.4767
10201TIP3   OH252017   3.616   4.795  16.699  0.5512 -0.3750  0.1317
10201TIP3    H152018   3.640   4.764  16.787  0.7580 -1.1037 -0.1796
10201TIP3    H252019   3.531   4.755  16.682 -1.0731  2.3934  1.3335
10202TIP3   OH252020   1.585   0.565   4.977 -0.0665 -0.0791 -0.8637
10202TIP3    H152021   1.599   0.652   5.015  0.9526 -0.0654 -1.2703
10202TIP3    H252022   1.557   0.583   4.887  1.7405 -0.1927 -1.4658
10203TIP3   OH252023   2.111   0.013  14.088  0.2067  0.3979  0.8099
10203TIP3    H152024   2.156  -0.071  14.089 -1.1446 -0.3523  1.0903
10203TIP3    H252025   2.156   0.065  14.021 -0.3389 -1.3553 -0.9600
10204TIP3   OH252026   4.269   4.231   3.095  0.1278  0.4105 -0.5893
10204TIP3    H152027   4.300   4.186   3.173 -0.7081 -0.2220 -0.6117
10204TIP3    H252028   4.310   4.184   3.022  1.3967  1.3912 -0.5057
10205TIP3   OH252029   1.781   3.315  13.934  0.7696 -0.5101  0.2834
10205TIP3    H152030   1.770   3.359  14.018  1.1191 -0.3546  0.2507
10205TIP3    H252031   1.693   3.291  13.907  0.5944  0.0433  0.3663
10206TIP3   OH252032   1.990   4.017   3.299 -0.4092 -0.1409  0.0792
10206TIP3    H152033   2.084   4.035   3.297 -0.5215  0.4933  0.4227
10206TIP3    H252034   1.967   4.017   3.391 -0.6807 -0.6811  0.0151
10207TIP3   OH252035   5.798   3.260   2.367  0.2509  0.0376  0.1824
10207TIP3    H152036   5.877   3.206   2.356 -0.1526 -1.3524  3.6136
10207TIP3    H252037   5.828   3.338   2.412  0.1262  0.8675 -1.1388
10208TIP3   OH252038   1.778   3.222  14.567  0.8800 -0.1925  0.4950
10208TIP3    H152039   1.824   3.226  14.652 -0.2189  1.5772  1.0451
10208TIP3    H252040   1.712   3.155  14.579  1.2603 -0.5204  0.7767
10209TIP3   OH252041   3.965   6.067   0.815  0.2085 -0.2762  0.0250
10209TIP3    H152042   3.875   6.061   0.847  1.2341 -2.7839  2.6031
10209TIP3    H252043   3.960   6.036   0.724 -1.5525  0.0515 -0.0127
10210TIP3   OH252044   0.830   5.863   2.600  0.1572  0.1101  0.0434
10210TIP3    H152045   0.776   5.876   2.522 -0.4399 -0.2632  0.3887
10210TIP3    H252046   0.772   5.884   2.673  0.7215  0.4875  0.3871
10211TIP3   OH252047   5.286   4.258   3.435 -0.1122  0.8825  0.0380
10211TIP3    H152048   5.252   4.171   3.416 -1.7189  1.7570 -1.1651
10211TIP3    H252049   5.335   4.282   3.356  0.8328  0.8542  0.5993
10212TIP3   OH252050   0.553   5.091  13.628 -0.0499  0.4308  0.7235
10212TIP3    H152051   0.587   5.108  13.716  0.5656  0.5956  0.4632
10212TIP3    H252052   0.461   5.072  13.641  0.3509 -0.9858  1.5599
10213TIP3   OH252053   5.899   4.941  15.464 -0.1979  0.0329  0.2246
10213TIP3    H152054   5.822   4.951  15.408 -1.3667  0.3774  1.8642
10213TIP3    H252055   5.972   4.974  15.411 -0.6927 -2.9569 -2.4390
10214TIP3   OH252056   1.476   5.981  16.406 -0.5195 -0.0209  0.2475
10214TIP3    H152057   1.417   5.949  16.473 -1.2149  0.1290 -0.2820
10214TIP3    H252058   1.532   5.906  16.384 -0.9598 -0.3522  0.2689
10215TIP3   OH252059   1.091   1.808  11.947 -0.4256  0.1473  0.5053
10215TIP3    H152060   1.131   1.784  12.031  1.8498 -0.1838 -0.6405
10215TIP3    H252061   1.135   1.752  11.883 -1.3919  1.1480 -1.0540
10216TIP3   OH252062   4.387   1.549  16.337  0.3742  0.2182  0.5158
10216TIP3    H152063   4.357   1.604  16.265  0.7341 -0.5195 -0.2000
10216TIP3    H252064   4.337   1.580  16.413 -1.6946 -0.5260 -0.5023
10217TIP3   OH252065   4.682   5.359   0.265  0.5215 -0.1229  0.6048
10217TIP3    H152066   4.714   5.279   0.307 -2.2204 -0.6720  1.7456
10217TIP3    H252067   4.623   5.398   0.330 -0.5560  1.1914 -1.1316
10218TIP3   OH252068   3.666   1.934   4.606  0.6638  0.1688  0.6761
10218TIP3    H152069   3.691   1.845   4.582  1.8143  0.6051  0.1934
10218TIP3    H252070   3.686   1.940   4.700  1.7977  0.3054  0.4359
10219TIP3   OH252071   1.829   2.117  12.969 -0.1033  0.0180  0.2531
10219TIP3    H152072   1.879   2.146  13.046  0.4202 -2.2391  0.7983
10219TIP3    H252073   1.755   2.177  12.965  1.2015  1.7448  1.0190
10220TIP3   OH252074   0.978   3.582  10.245  0.6514  0.0363  0.0064
10220TIP3    H152075   0.943   3.494  10.260 -0.9015  0.5813 -0.3343
10220TIP3    H252076   0.917   3.640  10.290  2.0868  0.8902  0.8516
10221TIP3   OH252077   2.144   3.658  15.641 -0.4469  0.5736  0.4358
10221TIP3    H152078   2.079   3.697  15.582  1.7595  1.7895 -1.2973
10221TIP3    H252079   2.213   3.627  15.582  0.2176 -1.3694  2.1750
10222TIP3   OH252080   2.185   4.647  11.458  0.0472  0.6543 -0.1989
10222TIP3    H152081   2.236   4.702  11.399  0.9892  0.4213  0.3877
10222TIP3    H252082   2.244   4.630  11.532  0.0476 -1.7104 -0.6922
10223TIP3   OH252083   4.818   6.111  14.777 -0.5913  0.3769  0.5537
10223TIP3    H152084   4.908   6.143  14.786 -0.6204  0.4182  0.6864
10223TIP3    H252085   4.801   6.115  14.683 -1.1444  2.2116  0.7261
10224TIP3   OH252086   2.228   1.920   5.230 -0.0350 -0.1634 -0.1801
10224TIP3    H152087   2.285   1.857   5.274  1.8664  1.0041 -0.8750
10224TIP3    H252088   2.239   2.001   5.281 -0.2999  0.3360 -0.9180
10225TIP3   OH252089   3.740   3.798  13.027 -0.0712 -0.1488  0.0287
10225TIP3    H152090   3.721   3.847  13.107  0.1137 -0.0456  0.0106
10225TIP3    H252091   3.685   3.719  13.033 -1.2056  0.5925 -0.4712
10226TIP3   OH252092   6.007   0.205  11.119 -0.5182 -0.3838  0.2501
10226TIP3    H152093   5.950   0.129  11.134  0.5144 -1.3277 -0.5296
10226TIP3    H252094   6.002   0.221  11.025 -0.6240  0.4466  0.3940
10227TIP3   OH252095   2.635   1.283   1.837 -0.5703  0.0004  0.7643
10227TIP3    H152096   2.634   1.330   1.754  0.8584  0.1181  0.8008
10227TIP3    H252097   2.582   1.338   1.896  0.7880  1.3999  0.7073
10228TIP3   OH252098   3.741   3.795   6.585  0.6566 -0.2953 -0.2995
10228TIP3    H152099   3.667   3.847   6.617  0.2909  0.0033 -1.5943
10228TIP3    H252100   3.809   3.860   6.567  1.7288 -0.6949  2.1561
10229TIP3   OH252101   5.315   5.038   1.636 -0.3167  0.2758  0.6492
10229TIP3    H152102   5.409   5.030   1.623 -0.3207  1.1631  0.0530
10229TIP3    H252103   5.303   5.127   1.668 -0.8844 -0.0566  1.3800
10230TIP3   OH252104   6.290   4.810  11.364 -0.1380 -0.0265 -0.0139
10230TIP3    H152105   6.238   4.804  11.284 -0.3071 -0.6540  0.1398
10230TIP3    H252106   6.235   4.771  11.431 -0.5464  1.7237  0.6839
10231TIP3   OH252107   3.353   1.876  10.735  0.2130 -0.1959 -0.2156
10231TIP3    H152108   3.315   1.812  10.675  0.2167 -2.4806  2.1082
10231TIP3    H252109   3.420   1.827  10.784  1.9728  2.2217 -0.0762
10232TIP3   OH252110   5.580   6.387  16.435 -0.1559 -0.4700  0.0065
10232TIP3    H152111   5.543   6.312  16.390  0.6932 -0.2450 -1.1148
10232TIP3    H252112   5.639   6.350  16.500 -0.4965 -0.7871  0.1344
10233TIP3   OH252113   1.521   2.290  14.917 -0.1969  0.0899 -0.0447
10233TIP3    H152114   1.434   2.270  14.953  0.4164  0.2743  1.5906
10233TIP3    H252115   1.571   2.322  14.992  1.7779 -1.5830 -0.5955
10234TIP3   OH252116   1.173   3.938   3.990  0.5856 -0.4059 -0.7109
10234TIP3    H152117   1.249   3.894   3.951 -0.0108 -0.9978 -1.2121
10234TIP3    H252118   1.182   3.922   4.084  1.0815 -0.4768 -0.7655
10235TIP3   OH252119   1.002   2.934  11.929  0.1571 -0.3358 -0.1788
10235TIP3    H152120   0.907   2.946  11.925  0.4070  1.9115 -0.0293
10235TIP3    H252121   1.026   2.970  12.015  0.9575 -2.3307  0.4474
10236TIP3   OH252122   3.415   1.159   1.823 -0.3420  0.4667  0.6841
10236TIP3    H152123   3.475   1.154   1.897  0.8795  2.2534 -0.1300
10236TIP3    H252124   3.431   1.246   1.786 -1.7971  0.0672 -0.9430
10237TIP3   OH252125   5.051   0.264   1.784  0.0950  0.4894  0.4382
10237TIP3    H152126   4.965   0.227   1.764 -0.4348  0.9066  1.9109
10237TIP3    H252127   5.107   0.235   1.712 -1.0784 -0.4831 -0.0891
10238TIP3   OH252128   5.551   4.686  14.510 -0.3688  0.5185 -0.2383
10238TIP3    H152129   5.612   4.617  14.484 -0.3753  0.5513 -0.3402
10238TIP3    H252130   5.509   4.712  14.428 -1.5803 -0.5198  0.0326
10239TIP3   OH252131   0.787   1.492   2.009  0.0985  0.0817 -0.2599
10239TIP3    H152132   0.853   1.484   2.078 -0.2614  0.8804  0.1756
10239TIP3    H252133   0.812   1.571   1.961  0.1825 -0.3120 -0.8678
10240TIP3   OH252134   2.059   4.437   1.407 -0.0231  1.3700 -0.0133
10240TIP3    H152135   2.127   4.500   1.382 -0.6689  1.5664 -1.2962
10240TIP3    H252136   1.994   4.442   1.337 -0.6118  0.0594  0.4180
10241TIP3   OH252137   3.231   4.524   2.790  0.2595 -0.1111  0.6378
10241TIP3    H152138   3.165   4.589   2.767 -0.8241 -1.1328  0.8012
10241TIP3    H252139   3.271   4.499   2.707 -0.1577 -0.1133  0.4395
10242TIP3   OH252140   2.644   5.791  11.619  0.3476  0.1769 -0.3404
10242TIP3    H152141   2.595   5.714  11.649  1.7818 -0.1219  1.2750
10242TIP3    H252142   2.637   5.854  11.691  1.2564  0.6307 -0.6466
10243TIP3   OH252143   4.548   4.393   0.806 -0.1590  0.6476  0.2813
10243TIP3    H152144   4.503   4.457   0.862 -0.1530 -1.0908  2.3297
10243TIP3    H252145   4.495   4.313   0.814  1.1749 -0.3084 -0.3302
10244TIP3   OH252146   1.436   5.960  15.483  0.5698 -0.0948  0.0413
10244TIP3    H152147   1.367   5.896  15.501  1.0909 -0.6603  0.0496
10244TIP3    H252148   1.395   6.022  15.422 -0.2305  0.1000  0.7549
10245TIP3   OH252149   0.204   2.690  11.723 -0.3185 -0.2860  0.0917
10245TIP3    H152150   0.208   2.715  11.631 -2.6534  2.5643  0.6791
10245TIP3    H252151   0.114   2.661  11.736  0.3278 -1.8726  1.2304
10246TIP3   OH252152   2.939   4.727   6.042 -0.1443  0.3766  0.2031
10246TIP3    H152153   2.889   4.805   6.067 -0.8925  0.1288 -0.4918
10246TIP3    H252154   2.996   4.710   6.117 -1.9440 -0.0230  1.5236
10247TIP3   OH252155   0.320   4.428   1.713  0.3874 -0.0318  0.9265
10247TIP3    H152156   0.399   4.378   1.735  0.4622  0.4877  1.9010
10247TIP3    H252157   0.352   4.517   1.695  0.2119 -0.2274 -0.3763
10248TIP3   OH252158   6.112   4.052   1.354 -0.0036 -0.1862  0.0795
10248TIP3    H152159   6.142   4.142   1.348 -1.2592  0.2338 -0.2444
10248TIP3    H252160   6.164   4.013   1.424 -0.5110  1.2272  1.2612
10249TIP3   OH252161   4.887   6.744  14.035 -0.4178  0.2188 -0.0084
10249TIP3    H152162   4.799   6.708  14.052  0.2588 -2.2925 -1.5380
10249TIP3    H252163   4.908   6.713  13.948  2.3082  0.1921  0.6355
10250TIP3   OH252164   5.022   5.771   0.316  0.3495  0.0008 -0.0882
10250TIP3    H152165   4.984   5.705   0.374  0.4173 -0.8056 -0.9488
10250TIP3    H252166   5.039   5.724   0.235  2.2839  0.5846 -0.0485
10251TIP3   OH252167   0.498   1.195   2.511  0.0119 -0.0770  0.1415
10251TIP3    H152168   0.529   1.244   2.587  0.0954  0.4201 -0.2152
10251TIP3    H252169   0.560   1.123   2.503  2.1608  1.9198 -1.6541
10252TIP3   OH252170   2.190   4.100  15.277  0.1253  0.0969  0.3940
10252TIP3    H152171   2.123   4.067  15.336 -2.4116  2.3106 -1.1407
10252TIP3    H252172   2.206   4.190  15.306  1.3904  0.0705 -0.1688
10253TIP3   OH252173   3.083   2.447  17.174 -0.9713 -0.2950 -1.1984
10253TIP3    H152174   3.041   2.531  17.155  0.5143  1.0140  1.0485
10253TIP3    H252175   3.175   2.461  17.151 -0.2997 -0.5732  1.2362
10254TIP3   OH252176   2.578   2.106   0.421 -0.3899  0.5317 -0.0176
10254TIP3    H152177   2.571   2.012   0.434 -3.9125  1.0232  2.2589
10254TIP3    H252178   2.650   2.133   0.479  0.7389 -0.7570 -0.8049
10255TIP3   OH252179   6.781   4.160   1.048  0.1892  0.1058  0.1591
10255TIP3    H152180   6.869   4.177   1.081  0.5065  0.1572 -0.7037
10255TIP3    H252181   6.770   4.065   1.057 -0.2898  0.2999  1.7798
10256TIP3   OH252182   5.509   4.749   6.093  0.1294 -0.3339 -0.3119
10256TIP3    H152183   5.594   4.747   6.048  0.3440 -2.1616  0.1693
10256TIP3    H252184   5.526   4.713   6.180 -1.5034 -2.4571 -0.8383
10257TIP3   OH252185   2.165   1.407  17.055  0.7089  0.1218 -0.1725
10257TIP3    H152186   2.250   1.372  17.029  0.9910  1.2460 -0.7446
10257TIP3    H252187   2.163   1.394  17.150  1.6236  0.3220 -0.1181
10258TIP3   OH252188   5.691   2.228  11.571  0.2947  0.1975  0.2226
10258TIP3    H152189   5.758   2.250  11.636  1.7834  0.4940 -1.3584
10258TIP3    H252190   5.725   2.150  11.527 -1.1623 -0.5822  0.4383
10259TIP3   OH252191   0.372   0.052   5.893  0.4919  0.2861 -0.5885
10259TIP3    H152192   0.455   0.039   5.939  0.3955  3.2509  0.5138
10259TIP3    H252193   0.306   0.016   5.952  0.7252  0.6307 -0.1109
10260TIP3   OH252194   2.154   4.283   0.091  0.2659  0.0547  0.4031
10260TIP3    H152195   2.239   4.252   0.123 -0.7430 -2.1390  1.0700
10260TIP3    H252196   2.136   4.361   0.143  0.7809 -0.8477  1.9609
10261TIP3   OH252197   0.731   1.961   2.523  0.0271 -0.1025  0.2372
10261TIP3    H152198   0.814   2.008   2.513 -0.2373  0.6623  1.5006
10261TIP3    H252199   0.749   1.896   2.591 -1.0524  1.7247  2.3732
10262TIP3   OH252200   1.881   2.775   5.912 -0.6593 -0.3517  0.1544
10262TIP3    H152201   1.939   2.747   5.842 -1.8668 -0.4678 -0.8207
10262TIP3    H252202   1.936   2.776   5.990  0.7706  0.0704 -0.8442
10263TIP3   OH252203   1.091   4.840  13.321 -0.0779  0.6977 -0.0962
10263TIP3    H152204   1.095   4.895  13.243 -0.5259 -0.0853 -0.6839
10263TIP3    H252205   1.033   4.767  13.296  0.1892  0.1708  0.7912
10264TIP3   OH252206   6.307   4.809  15.298 -0.2601  0.7234 -0.3084
10264TIP3    H152207   6.336   4.810  15.207 -0.7637  1.0745 -0.4664
10264TIP3    H252208   6.386   4.829  15.349 -0.4530  2.7867 -0.7921
10265TIP3   OH252209   4.694   2.522  12.812 -0.1455 -0.3950 -0.3105
10265TIP3    H152210   4.785   2.552  12.801 -1.0768  2.6762 -0.1446
10265TIP3    H252211   4.685   2.509  12.906 -0.3081  0.8817 -0.1349
10266TIP3   OH252212   3.148   2.504   2.371  0.1845 -0.0057  0.2544
10266TIP3    H152213   3.161   2.468   2.283 -1.6721  0.8003 -0.3720
10266TIP3    H252214   3.056   2.488   2.391  0.6532 -0.4224  2.1788
10267TIP3   OH252215   2.454   5.882  12.888 -0.0792 -0.2631 -0.7195
10267TIP3    H152216   2.383   5.858  12.828  0.4733 -0.0059 -1.4988
10267TIP3    H252217   2.471   5.974  12.869 -1.3098  0.4086  1.3327
10268TIP3   OH252218   4.879   0.704  13.167 -0.1814 -0.5859  0.5850
10268TIP3    H152219   4.904   0.640  13.234  1.4445 -0.1675  0.4126
10268TIP3    H252220   4.957   0.759  13.158 -0.6307 -0.2345 -1.1757
10269TIP3   OH252221   5.530   6.148   3.542 -0.4092  0.4579 -0.3341
10269TIP3    H152222   5.562   6.125   3.629 -0.9737  0.6617 -0.0695
10269TIP3    H252223   5.437   6.123   3.543  0.2215 -2.2396 -1.8449
10270TIP3   OH252224   1.406   0.807   5.932  0.1373  0.3306 -0.3477
10270TIP3    H152225   1.365   0.725   5.959 -0.0951  0.9307  1.1576
10270TIP3    H252226   1.355   0.875   5.975  1.2259  1.2065 -0.4167
10271TIP3   OH252227   2.606   5.142   3.626  0.1282 -0.0737 -0.0030
10271TIP3    H152228   2.590   5.065   3.680 -1.3546  0.3137  0.1166
10271TIP3    H252229   2.548   5.210   3.662 -0.5495  0.3217 -1.7854
10272TIP3   OH252230   6.024   3.114   2.326 -0.3555  0.0610  0.5780
10272TIP3    H152231   6.034   3.075   2.238  1.5953 -3.9733  2.4414
10272TIP3    H252232   6.114   3.127   2.356 -1.0152  1.6860  1.9039
10273TIP3   OH252233   2.327   5.695  13.047  0.1828 -0.1253  0.0222
10273TIP3    H152234   2.364   5.773  13.006 -0.5039  0.4345  0.4611
10273TIP3    H252235   2.302   5.639  12.974 -0.8815  0.7966 -0.3315
10274TIP3   OH252236   2.201   6.371  11.763 -0.7644  0.5204  0.4623
10274TIP3    H152237   2.157   6.330  11.689 -0.0409  1.6413 -0.6169
10274TIP3    H252238   2.274   6.419  11.723 -1.3593  2.5015  1.7025
10275TIP3   OH252239   2.342   6.379  12.828 -0.2731 -0.2146  0.4537
10275TIP3    H152240   2.266   6.435  12.810 -0.8089 -1.1284 -0.1510
10275TIP3    H252241   2.414   6.419  12.778 -0.9855 -0.8571 -1.1145
10276TIP3   OH252242   0.370   4.677   2.179 -0.0255 -1.1943 -0.3376
10276TIP3    H152243   0.370   4.597   2.126  0.6349 -0.9665 -0.6721
10276TIP3    H252244   0.355   4.748   2.116  1.8023 -0.8230 -0.3732
10277TIP3   OH252245   1.141   5.956  11.632 -0.3182 -0.0349  0.7028
10277TIP3    H152246   1.165   5.886  11.572 -0.2539 -0.9553  1.7676
10277TIP3    H252247   1.104   5.911  11.708 -2.5749  1.2177  0.3766
10278TIP3   OH252248   0.672   0.573   1.194  0.2018  0.4585 -0.5301
10278TIP3    H152249   0.586   0.559   1.234  0.5831  0.7629  0.4142
10278TIP3    H252250   0.719   0.491   1.208  0.4680  0.6951  0.0032
10279TIP3   OH252251   4.504   6.064   1.228  0.4482  0.4112  0.3982
10279TIP3    H152252   4.430   6.049   1.170  0.7591  2.4290 -0.5225
10279TIP3    H252253   4.476   6.025   1.312 -0.3512 -1.6865 -0.8108
10280TIP3   OH252254   6.724   3.402   6.064 -0.2338 -0.1357  0.2696
10280TIP3    H152255   6.646   3.347   6.063 -1.1199  1.1038 -0.3076
10280TIP3    H252256   6.699   3.477   6.118  1.0678 -0.4504  1.3266
10281TIP3   OH252257   1.957   4.205  10.370 -0.2602 -0.0675  0.1393
10281TIP3    H152258   1.901   4.282  10.372 -0.4007 -0.1519 -0.4892
10281TIP3    H252259   1.907   4.137  10.416 -0.4935 -0.0285 -0.0584
10282TIP3   OH252260   5.968   2.115  16.234  0.0783 -0.1901  0.0714
10282TIP3    H152261   6.031   2.187  16.242  0.6882 -0.5741 -1.1191
10282TIP3    H252262   5.941   2.117  16.142  1.2286 -2.4208 -0.3354
10283TIP3   OH252263   2.497   3.325  13.185 -0.8827  0.3043 -0.2195
10283TIP3    H152264   2.478   3.392  13.250 -1.6460  0.5298 -0.6690
10283TIP3    H252265   2.502   3.373  13.102 -3.5970 -0.4732 -0.8627
10284TIP3   OH252266   2.785   3.774   1.867  0.2351 -0.3984 -0.7193
10284TIP3    H152267   2.759   3.790   1.777 -0.6459  1.1097 -0.2218
10284TIP3    H252268   2.718   3.819   1.919  0.1654 -2.0838  0.7033
10285TIP3   OH252269   5.347   0.596   5.351  0.3450  0.1269 -0.6621
10285TIP3    H152270   5.389   0.534   5.291  3.6644  0.5466  1.1132
10285TIP3    H252271   5.409   0.606   5.423 -1.9515  2.3905  1.1098
10286TIP3   OH252272   2.249   5.310   5.513 -0.3921 -0.2598  0.4289
10286TIP3    H152273   2.290   5.374   5.455 -0.2118 -0.8464 -0.0942
10286TIP3    H252274   2.191   5.362   5.570  1.8517  0.7262  1.8863
10287TIP3   OH252275   2.468   0.254  12.739 -0.1469  0.3603  0.5183
10287TIP3    H152276   2.538   0.233  12.678 -0.9007 -0.3997 -0.0961
10287TIP3    H252277   2.487   0.203  12.818 -0.1738 -0.0829  0.2377
10288TIP3   OH252278   6.523   5.878  14.295 -0.0552  0.6185  0.2362
10288TIP3    H152279   6.529   5.961  14.247 -2.8317 -0.5010 -2.1538
10288TIP3    H252280   6.432   5.852  14.288  0.6537 -2.4065  1.4255
10289TIP3   OH252281   1.386   2.502   3.052  0.1082  0.7967  0.2683
10289TIP3    H152282   1.321   2.556   3.097 -2.1951 -2.4390  0.9690
10289TIP3    H252283   1.339   2.423   3.026  2.9408 -0.1729 -2.2826
10290TIP3   OH252284   0.139   2.599   4.074 -0.5468 -0.3870  0.2800
10290TIP3    H152285   0.181   2.677   4.110 -3.4377  1.4707 -0.2177
10290TIP3    H252286   0.165   2.597   3.982  0.2925 -0.5506  0.5207
10291TIP3   OH252287   5.623   6.118   0.513  0.0253  0.1396 -0.4761
10291TIP3    H152288   5.696   6.171   0.481 -0.2671  2.0085  1.8547
10291TIP3    H252289   5.545   6.160   0.477 -0.0099 -1.3883 -2.2992
10292TIP3   OH252290   1.230   2.172  15.538 -0.2073  0.1481 -0.0120
10292TIP3    H152291   1.176   2.230  15.485  0.9931  0.0733 -1.3432
10292TIP3    H252292   1.303   2.226  15.566  0.0455 -0.2707  0.1353
10293TIP3   OH252293   1.017   5.777   0.932  0.3731 -0.0280 -0.0701
10293TIP3    H152294   0.935   5.823   0.916  0.8812  0.9186 -0.0157
10293TIP3    H252295   1.066   5.787   0.851  1.1504  0.9525  0.5062
10294TIP3   OH252296   5.215   1.360  15.773  0.0957 -0.1126 -0.2303
10294TIP3    H152297   5.293   1.407  15.804 -0.9561  0.6097  1.3940
10294TIP3    H252298   5.147   1.384  15.835 -0.8191 -2.7429 -0.1673
10295TIP3   OH252299   4.579   2.423   4.850  0.0112  0.1430 -0.1894
10295TIP3    H152300   4.550   2.484   4.782  1.0663  0.2735 -0.5296
10295TIP3    H252301   4.636   2.361   4.805 -0.3008 -0.5446  0.3365
10296TIP3   OH252302   5.846   0.891   2.687 -0.1408 -0.2843 -0.4168
10296TIP3    H152303   5.909   0.889   2.615  0.8361  0.1365  0.4084
10296TIP3    H252304   5.816   0.800   2.694  0.4068 -0.5005 -0.7914
10297TIP3   OH252305   4.706   1.259   0.855  0.0579 -0.5689 -0.4186
10297TIP3    H152306   4.652   1.337   0.843 -0.2749 -0.5638  0.9931
10297TIP3    H252307   4.651   1.199   0.905  2.2657  0.5455  3.5714
10298TIP3   OH252308   6.049   4.645  10.846 -0.2460  0.2931  0.1424
10298TIP3    H152309   6.124   4.619  10.793  0.1001 -0.6654  1.0879
10298TIP3    H252310   6.002   4.708  10.792  0.8488  0.3608 -0.7415
10299TIP3   OH252311   0.317   3.705   6.235 -0.1300  0.2863  0.0978
10299TIP3    H152312   0.332   3.674   6.325  1.4641 -1.5193 -0.7555
10299TIP3    H252313   0.251   3.645   6.200 -0.0306  0.3776 -0.2450
10300TIP3   OH252314   4.675   3.834  13.507  0.2972 -0.2489 -1.1476
10300TIP3    H152315   4.737   3.772  13.467  0.1241 -1.8152  0.9358
10300TIP3    H252316   4.592   3.786  13.510  0.2308 -0.0279  0.7544
10301TIP3   OH252317   1.584   3.861  11.186  0.5643 -0.1905  0.1835
10301TIP3    H152318   1.611   3.769  11.179 -2.1901 -1.0156 -0.5441
10301TIP3    H252319   1.651   3.910  11.139  1.7336 -1.9123  0.0326
10302TIP3   OH252320   5.166   5.033   5.442  0.3562  0.3580  0.6849
10302TIP3    H152321   5.232   4.964   5.440  2.1829  2.0809 -1.9280
10302TIP3    H252322   5.201   5.098   5.503 -0.3745 -0.0518  1.5580
10303TIP3   OH252323   0.534   4.760  14.767 -0.6769  0.3727  0.2919
10303TIP3    H152324   0.451   4.770  14.719  0.3465  1.9163 -1.2255
10303TIP3    H252325   0.568   4.675  14.739  0.1742  1.4776 -2.2568
10304TIP3   OH252326   3.792   2.555   4.647  0.0153 -0.6694  0.2754
10304TIP3    H152327   3.700   2.550   4.624 -0.0886 -0.2540  0.5830
10304TIP3    H252328   3.825   2.631   4.598  0.2212 -0.8876  0.0733
10305TIP3   OH252329   2.176   1.125  11.757 -0.1613  0.2483 -0.0117
10305TIP3    H152330   2.091   1.166  11.774  0.0945  0.4665  0.7597
10305TIP3    H252331   2.164   1.080  11.674 -0.6576  1.3167 -0.5397
10306TIP3   OH252332   5.484   6.625  11.112 -0.6105 -0.4150 -0.6519
10306TIP3    H152333   5.428   6.648  11.037  0.5393  2.5680 -0.6655
10306TIP3    H252334   5.509   6.534  11.096 -2.2476 -0.5442 -2.7094
10307TIP3   OH252335   6.075   4.994   3.083  0.5853  0.0156 -0.3090
10307TIP3    H152336   6.071   5.079   3.040 -0.1331 -0.4317 -1.1370
10307TIP3    H252337   6.131   5.008   3.160  1.5677  0.9129 -1.1798
10308TIP3   OH252338   1.580   2.318  12.708  0.6414  0.4182 -0.2241
10308TIP3    H152339   1.578   2.224  12.690  3.2055  0.6950 -2.2332
10308TIP3    H252340   1.646   2.329  12.776 -0.6009  0.6636  0.9742
10309TIP3   OH252341   4.463   4.977   4.389  0.1548 -0.2467  0.1443
10309TIP3    H152342   4.518   4.901   4.407  0.7504  0.0884 -0.2643
10309TIP3    H252343   4.406   4.949   4.317 -0.6421 -0.8020  0.9802
10310TIP3   OH252344   3.088   5.256   1.778  0.2281 -0.0636 -0.0729
10310TIP3    H152345   3.103   5.350   1.793  2.2321 -0.5724  1.3369
10310TIP3    H252346   3.106   5.215   1.862 -2.0778 -1.5872 -0.2831
10311TIP3   OH252347   5.247   3.174   6.372  0.9161 -0.2435 -0.0403
10311TIP3    H152348   5.262   3.079   6.372 -1.5462 -0.6839 -0.9687
10311TIP3    H252349   5.216   3.193   6.284  2.2563  1.6035 -0.1302
10312TIP3   OH252350   1.073   3.684  16.787  0.6107 -0.6604 -0.1539
10312TIP3    H152351   1.126   3.741  16.842 -0.4473  1.5015 -1.3027
10312TIP3    H252352   1.007   3.647  16.846  1.7420 -1.2895  0.7397
10313TIP3   OH252353   6.459   6.320   3.026  0.0231  0.0400 -0.0480
10313TIP3    H152354   6.549   6.300   3.001  0.2890  0.7449  0.3169
10313TIP3    H252355   6.454   6.298   3.119  0.5740  2.4320  0.5793
10314TIP3   OH252356   6.154   2.674  13.936 -0.1915  0.4484 -0.2636
10314TIP3    H152357   6.225   2.733  13.959  0.1266 -1.1516  3.1679
10314TIP3    H252358   6.188   2.587  13.957 -3.0626 -0.3609  1.2977
10315TIP3   OH252359   2.419   1.305  11.750  0.5731 -0.0498 -0.4840
10315TIP3    H152360   2.348   1.242  11.764  0.3601  0.7097  2.1897
10315TIP3    H252361   2.383   1.367  11.687 -0.1957 -1.1280 -1.1205
10316TIP3   OH252362   6.674   0.973  14.510 -0.5932 -0.0219  0.0869
10316TIP3    H152363   6.653   0.922  14.432  0.3682  1.2114 -1.0056
10316TIP3    H252364   6.709   1.055  14.476  1.1728 -0.0131  1.8156
10317TIP3   OH252365   1.401   2.029  15.151  0.6286 -0.4238 -0.0335
10317TIP3    H152366   1.477   1.980  15.120  0.1375 -0.3102 -1.4314
10317TIP3    H252367   1.435   2.085  15.221  2.3405  1.4098 -2.2690
10318TIP3   OH252368   4.700   0.681  12.221  0.7515  0.3331 -0.1604
10318TIP3    H152369   4.654   0.751  12.175 -0.9658  0.1487  1.2312
10318TIP3    H252370   4.685   0.699  12.314  0.0936 -2.0076  0.2241
10319TIP3   OH252371   5.058   1.764   2.800  0.0060  0.5946  0.1221
10319TIP3    H152372   5.014   1.679   2.802  0.5430  0.2265 -2.2446
10319TIP3    H252373   5.126   1.757   2.867 -0.7124 -0.3895  0.7755
10320TIP3   OH252374   6.458   3.180  13.369  0.1172  0.2736 -0.1475
10320TIP3    H152375   6.401   3.196  13.444  0.1507 -0.5164  0.0477
10320TIP3    H252376   6.406   3.125  13.311  1.1797 -1.5933  0.6538
10321TIP3   OH252377   6.052   3.880   4.379 -0.4814 -0.2778  0.9883
10321TIP3    H152378   5.982   3.825   4.414  0.0313 -1.2060  0.5820
10321TIP3    H252379   6.133   3.840   4.412  0.0440 -1.4782 -1.6325
10322TIP3   OH252380   6.181   2.681   5.607 -0.0409 -0.1680  0.1115
10322TIP3    H152381   6.106   2.671   5.548 -0.4615  1.8486  0.2851
10322TIP3    H252382   6.163   2.620   5.678 -0.4905 -1.2004 -0.8573
10323TIP3   OH252383   1.839   5.519  10.782 -0.0997  0.2582  0.5172
10323TIP3    H152384   1.756   5.565  10.794  0.2574  1.1507 -0.3141
10323TIP3    H252385   1.815   5.433  10.749 -0.6447  1.1249 -1.4549
10324TIP3   OH252386   6.626   3.316   2.496 -0.3804 -0.2194  0.2368
10324TIP3    H152387   6.637   3.221   2.489  0.0538 -0.2180  0.8461
10324TIP3    H252388   6.689   3.342   2.563 -1.6062  0.2752  1.2127
10325TIP3   OH252389   2.155   0.802   3.142 -0.0372  0.3236  0.4429
10325TIP3    H152390   2.139   0.887   3.184 -2.9996  0.4742 -0.8889
10325TIP3    H252391   2.232   0.817   3.087  0.9428  1.4680  2.0840
10326TIP3   OH252392   5.515   1.362   3.038  0.4263 -0.1055 -0.4131
10326TIP3    H152393   5.534   1.275   3.002  1.8543 -0.4093  1.0012
10326TIP3    H252394   5.460   1.345   3.114  0.0788  0.2769 -0.5805
10327TIP3   OH252395   1.644   4.723   5.194 -0.2156  0.4245  0.4449
10327TIP3    H152396   1.560   4.688   5.226 -0.5001  1.4392  0.8124
10327TIP3    H252397   1.633   4.818   5.197  0.9216  0.5579  0.4013
10328TIP3   OH252398   4.866   1.401  15.314  0.5444 -0.1966 -0.2888
10328TIP3    H152399   4.949   1.367  15.281 -0.4693 -2.4199 -0.6574
10328TIP3    H252400   4.857   1.364  15.401  0.5425  1.0992  0.2721
10329TIP3   OH252401   2.988   0.771   2.506  0.0700 -0.0843  0.0101
10329TIP3    H152402   2.905   0.737   2.475 -0.6092  1.6259 -0.1101
10329TIP3    H252403   2.965   0.849   2.557  1.3427 -1.3019  2.5838
10330TIP3   OH252404   1.978   1.101  15.435  0.5309  0.6988 -0.1900
10330TIP3    H152405   2.018   1.041  15.373  0.4968  1.4406 -0.9403
10330TIP3    H252406   2.039   1.103  15.509  0.5319 -0.2473 -0.1583
10331TIP3   OH252407   2.441   5.107  13.239 -0.1187  0.4416  0.2415
10331TIP3    H152408   2.434   5.105  13.334  2.6717  1.4815  0.4936
10331TIP3    H252409   2.487   5.026  13.217 -1.4469 -0.1822 -0.3205
10332TIP3   OH252410   5.618   5.369   3.266  0.0045  0.1006  0.0095
10332TIP3    H152411   5.526   5.349   3.283 -0.1066  1.3038  0.9209
10332TIP3    H252412   5.617   5.431   3.193  0.1278 -0.3977 -0.4146
10333TIP3   OH252413   1.307   6.447  15.516 -0.5808 -0.3378 -0.2467
10333TIP3    H152414   1.370   6.514  15.488 -2.0456  0.7194 -1.0372
10333TIP3    H252415   1.277   6.478  15.602 -1.1892 -0.0209 -0.5717
10334TIP3   OH252416   4.714   2.980   6.180  0.3868  0.4558  0.2779
10334TIP3    H152417   4.754   2.893   6.173  1.7775  1.2112 -1.7077
10334TIP3    H252418   4.778   3.032   6.229 -0.3605  0.4212  1.3019
10335TIP3   OH252419   3.500   2.279  17.073  0.5438 -0.0525  0.8955
10335TIP3    H152420   3.458   2.267  16.988  1.0703  1.3422  0.4333
10335TIP3    H252421   3.434   2.323  17.126  0.2780 -0.7679  1.1712
10336TIP3   OH252422   5.035   2.018   2.771 -0.1392 -1.1080 -0.2016
10336TIP3    H152423   5.098   2.036   2.701 -0.5211  0.4137 -0.1795
10336TIP3    H252424   5.027   1.923   2.772  0.2918 -1.1897 -1.8638
10337TIP3   OH252425   4.409   0.122  16.323  0.5993 -0.3768 -0.0738
10337TIP3    H152426   4.363   0.041  16.304  0.4278 -0.3012  0.0157
10337TIP3    H252427   4.492   0.095  16.361 -0.6014 -0.4740  2.5637
10338TIP3   OH252428   2.961   1.894   5.802 -0.2046 -0.0436  0.4393
10338TIP3    H152429   2.922   1.981   5.809 -0.2092 -0.1799  2.3234
10338TIP3    H252430   2.887   1.835   5.786 -0.1522  0.3369 -1.2760
10339TIP3   OH252431   1.391   5.256   4.651  1.2646  0.8391 -0.1720
10339TIP3    H152432   1.426   5.199   4.582  1.9235  0.2941  0.6061
10339TIP3    H252433   1.329   5.313   4.605 -1.3796 -2.1837 -0.5956
10340TIP3   OH252434   3.695   6.151   0.406 -0.3591  0.2487  0.0780
10340TIP3    H152435   3.611   6.106   0.392 -0.0220 -1.3294  2.9213
10340TIP3    H252436   3.672   6.226   0.461 -0.1216  0.7553 -0.5028
10341TIP3   OH252437   1.932   1.724   0.868 -0.7848 -0.2022 -0.2527
10341TIP3    H152438   1.870   1.654   0.846 -1.0885  0.3443 -1.1980
10341TIP3    H252439   1.963   1.754   0.783  1.0952 -0.7405  0.2341
10342TIP3   OH252440   6.432   5.239   3.977  0.3909 -0.6712 -0.6208
10342TIP3    H152441   6.419   5.166   3.916  1.0406 -0.0927 -1.4541
10342TIP3    H252442   6.345   5.277   3.988 -0.3651 -2.8179  1.4352
10343TIP3   OH252443   2.761   4.518   2.539  0.1939  0.4736 -0.2433
10343TIP3    H152444   2.768   4.499   2.446 -0.7459  0.0369 -0.2324
10343TIP3    H252445   2.743   4.433   2.579 -0.6918  0.8637  0.1931
10344TIP3   OH252446   0.119   0.632  12.972  0.2324  0.2814  0.2330
10344TIP3    H152447   0.153   0.690  12.904  1.9167 -1.9046 -0.8470
10344TIP3    H252448   0.146   0.674  13.054  1.8332  0.7758 -0.5329
10345TIP3   OH252449   2.829   1.005  12.528  0.2025  0.0307 -0.6049
10345TIP3    H152450   2.775   1.002  12.606 -0.5304 -0.7138 -1.1340
10345TIP3    H252451   2.778   1.058  12.466  0.9738  0.9873 -0.4450
10346TIP3   OH252452   3.344   4.710   4.953 -0.7969 -0.2604  0.1396
10346TIP3    H152453   3.408   4.693   4.884 -0.7506 -0.4936  0.2406
10346TIP3    H252454   3.379   4.664   5.030 -1.9920 -1.8843 -0.2569
10347TIP3   OH252455   1.792   2.608  15.149  0.1286  0.1562 -0.1025
10347TIP3    H152456   1.753   2.525  15.176 -0.4771  0.2146 -0.7782
10347TIP3    H252457   1.871   2.582  15.100 -0.0833 -0.0217 -0.3493
10348TIP3   OH252458   1.534   4.490  15.626  0.5155 -0.1953 -0.3432
10348TIP3    H152459   1.590   4.485  15.549 -0.8147 -0.2577 -1.3284
10348TIP3    H252460   1.533   4.583  15.650  0.4161 -0.0824 -0.7916
10349TIP3   OH252461   0.052   2.299   5.574 -0.1553  0.7105  0.4568
10349TIP3    H152462   0.067   2.296   5.668 -0.8263  0.2380  0.5514
10349TIP3    H252463  -0.043   2.294   5.565 -0.0450 -0.1396 -0.2765
10350TIP3   OH252464   3.652   0.516   5.063 -0.9472 -0.3021 -0.4707
10350TIP3    H152465   3.655   0.473   4.977 -0.4447  2.1523 -1.7443
10350TIP3    H252466   3.725   0.577   5.062 -1.1314 -0.0106  1.6040
10351TIP3   OH252467   1.678   0.661   2.664 -0.1419 -0.2679 -0.2011
10351TIP3    H152468   1.624   0.696   2.593 -1.0772 -2.0877 -0.4318
10351TIP3    H252469   1.768   0.672   2.634 -0.4710  0.5669 -0.9003
10352TIP3   OH252470   0.851   1.617   5.353  0.0712 -0.8121 -0.4461
10352TIP3    H152471   0.851   1.525   5.327  0.0258 -0.8959 -0.1550
10352TIP3    H252472   0.813   1.664   5.278 -2.2841 -1.3164  0.3817
10353TIP3   OH252473   2.720   3.126   1.329 -0.1676  0.3043 -0.7640
10353TIP3    H152474   2.710   3.149   1.421 -0.7415  0.7489 -0.9372
10353TIP3    H252475   2.728   3.030   1.329  3.6551  0.5388  0.0784
10354TIP3   OH252476   1.486   6.452   0.024 -0.7426 -0.1193 -0.5528
10354TIP3    H152477   1.478   6.428   0.116  3.3579  2.0323  0.4789
10354TIP3    H252478   1.423   6.523   0.012  0.3625  1.2081  1.2605
10355TIP3   OH252479   5.955   1.691  16.926  1.0307  0.5867 -0.4649
10355TIP3    H152480   6.004   1.615  16.956  0.3405  0.5870  0.6688
10355TIP3    H252481   6.016   1.738  16.869  2.3426  0.5801  0.9208
10356TIP3   OH252482   2.210   1.353   4.796  0.5847 -0.4421 -0.1462
10356TIP3    H152483   2.226   1.280   4.736 -1.7094 -1.6181  0.5881
10356TIP3    H252484   2.201   1.311   4.882 -1.3853  0.6239  0.1969
10357TIP3   OH252485   6.393   4.084   3.519  0.3680 -0.0426  0.2613
10357TIP3    H152486   6.336   4.009   3.502 -0.0754  0.0612  1.2719
10357TIP3    H252487   6.456   4.082   3.446 -0.0314 -1.0095 -0.0768
10358TIP3   OH252488   6.468   0.108  14.687 -0.0480  0.0653 -0.1171
10358TIP3    H152489   6.525   0.068  14.753 -0.4582  1.4025  1.0716
10358TIP3    H252490   6.389   0.132  14.736 -0.9742 -0.3043 -1.4158
10359TIP3   OH252491   3.946   2.259  16.543 -0.0005  0.0190 -0.1139
10359TIP3    H152492   3.931   2.203  16.467  0.4872 -0.7927  0.3829
10359TIP3    H252493   3.908   2.211  16.616  3.5894 -1.3877  0.9253
10360TIP3   OH252494   2.618   1.561  17.170 -0.1062 -0.2556  0.2751
10360TIP3    H152495   2.628   1.599  17.083  0.8778 -1.4101 -0.1240
10360TIP3    H252496   2.540   1.603  17.206 -0.6973 -0.0174 -1.2783
10361TIP3   OH252497   1.457   4.392  16.824 -0.3580 -0.0837  0.0158
10361TIP3    H152498   1.396   4.378  16.751 -0.0579  0.6553 -0.3828
10361TIP3    H252499   1.543   4.398  16.782 -0.0522 -0.7991  0.5423
10362TIP3   OH252500   1.808   2.743  16.445  0.3190 -0.3928 -0.0112
10362TIP3    H152501   1.726   2.749  16.495  0.2149 -1.3848 -0.0365
10362TIP3    H252502   1.868   2.802  16.489  0.7771 -2.5449  2.4121
10363TIP3   OH252503   0.117   4.435   0.331 -0.2093  0.4919 -0.3061
10363TIP3    H152504   0.194   4.418   0.277  0.6978  0.8182  0.8462
10363TIP3    H252505   0.152   4.478   0.409 -1.6557  1.2938 -0.0883
10364TIP3   OH252506   6.749   1.022  16.770 -0.2792 -0.2260  0.3180
10364TIP3    H152507   6.788   1.094  16.720  0.6120 -0.1051  1.1643
10364TIP3    H252508   6.713   0.963  16.704 -0.7543  0.8487 -0.3885
10365TIP3   OH252509   0.586   1.934  12.042 -0.1462  0.3418  0.1542
10365TIP3    H152510   0.681   1.931  12.049 -0.2825 -2.5580  1.3954
10365TIP3    H252511   0.560   2.004  12.102  0.9610 -1.9256  3.4140
10366TIP3   OH252512   1.057   0.731   5.088  0.0970 -0.0607 -0.2215
10366TIP3    H152513   1.103   0.747   5.171  0.1178  0.2034 -0.2843
10366TIP3    H252514   1.102   0.656   5.050 -1.3565 -1.6514  1.0975
10367TIP3   OH252515   2.870   0.748  16.995 -0.1661 -0.0883  0.5698
10367TIP3    H152516   2.802   0.695  16.954 -3.1128  2.5940  1.7858
10367TIP3    H252517   2.902   0.695  17.068 -1.3517 -1.1704  0.3205
10368TIP3   OH252518   6.053   1.019  13.485 -0.0938  0.5683 -0.2578
10368TIP3    H152519   5.970   0.976  13.466  0.2773  0.5143 -1.8454
10368TIP3    H252520   6.034   1.079  13.557 -1.0428 -0.8695  0.7020
10369TIP3   OH252521   3.316   1.767   4.984 -0.2083 -0.1403 -0.1576
10369TIP3    H152522   3.334   1.674   4.996  0.3646  0.3702  3.5117
10369TIP3    H252523   3.353   1.788   4.898  2.2041 -2.6873  0.2069
10370TIP3   OH252524   1.110   4.816   5.398  0.3207  0.2814  0.2946
10370TIP3    H152525   1.067   4.797   5.481  0.7933 -0.4990  0.3622
10370TIP3    H252526   1.071   4.755   5.336 -1.9100  2.5593 -0.6676
10371TIP3   OH252527   4.701   1.317  13.796  0.1285 -0.0678  0.6077
10371TIP3    H152528   4.679   1.324  13.889 -0.9914 -0.2688  0.3622
10371TIP3    H252529   4.633   1.367  13.751  1.4672  1.2515 -0.0212
10372TIP3   OH252530   1.427   4.991   2.749 -0.4126 -0.0013 -0.0481
10372TIP3    H152531   1.492   5.054   2.717 -0.8107 -0.3614 -1.6250
10372TIP3    H252532   1.473   4.907   2.746 -0.9192 -0.2487 -1.1167
10373TIP3   OH252533   2.613   4.424  14.805 -0.3643  0.1525  0.2691
10373TIP3    H152534   2.532   4.412  14.855 -0.1512  0.1929  0.6316
10373TIP3    H252535   2.656   4.339  14.809 -1.8149 -0.7473 -2.5147
10374TIP3   OH252536   1.295   5.261  17.171  0.1464  0.0470  0.0691
10374TIP3    H152537   1.241   5.191  17.209 -0.3471  1.1161  1.3667
10374TIP3    H252538   1.236   5.308  17.112  0.6107 -0.9166 -1.1841
10375TIP3   OH252539   0.591   4.958   2.883  0.0714 -0.7015 -0.0620
10375TIP3    H152540   0.547   4.899   2.822  1.1925 -2.8597  1.1754
10375TIP3    H252541   0.680   4.966   2.849 -0.7863  2.5878 -1.8036
10376TIP3   OH252542   0.323   2.412  11.385  0.1147  0.0448  0.5317
10376TIP3    H152543   0.374   2.375  11.457  0.7905  0.6435  0.3561
10376TIP3    H252544   0.288   2.336  11.339  1.7740 -0.3905 -0.0321
10377TIP3   OH252545   1.120   6.398  14.198  0.2885 -0.7319  0.3044
10377TIP3    H152546   1.168   6.460  14.254  1.1355 -1.1047 -0.0084
10377TIP3    H252547   1.046   6.371  14.252 -1.1983  2.0546 -0.2771
10378TIP3   OH252548   4.327   3.632   3.389 -0.5577 -0.2684 -0.1631
10378TIP3    H152549   4.263   3.561   3.388  0.6101 -1.3778  0.7839
10378TIP3    H252550   4.389   3.609   3.320  0.9877 -1.3422  1.4994
10379TIP3   OH252551   1.494   5.285  12.762 -0.5341  0.3134  0.0503
10379TIP3    H152552   1.467   5.202  12.724  2.1775 -0.0102 -1.2519
10379TIP3    H252553   1.471   5.351  12.696  0.2052  0.2254 -0.3042
10380TIP3   OH252554   1.300   1.030  11.296 -0.4612  0.0507  0.1399
10380TIP3    H152555   1.258   1.078  11.224 -1.3483 -2.0178 -0.7981
10380TIP3    H252556   1.305   0.940  11.263  1.1233 -0.4933  1.8387
10381TIP3   OH252557   3.044   6.603  13.197 -0.5306 -0.4001 -0.3757
10381TIP3    H152558   2.961   6.580  13.240 -1.2928  1.4475 -0.8237
10381TIP3    H252559   3.109   6.603  13.267 -1.8416  3.0548  0.9317
10382TIP3   OH252560   1.732   6.728   1.593  0.5261  0.2624  0.0501
10382TIP3    H152561   1.671   6.727   1.667  0.1985  0.0589 -0.2218
10382TIP3    H252562   1.790   6.802   1.611  1.0586 -0.3779  1.0012
10383TIP3   OH252563   3.649   3.118  13.579 -0.1424  0.4259  0.1995
10383TIP3    H152564   3.640   3.198  13.527  1.3023  0.8724  0.6017
10383TIP3    H252565   3.646   3.148  13.670 -0.3840 -0.0653  0.3536
10384TIP3   OH252566   4.820   1.061  11.258  0.4528  0.5575 -0.3727
10384TIP3    H152567   4.875   1.089  11.332  0.0580 -1.2688  0.6386
10384TIP3    H252568   4.875   1.074  11.181  1.7167  0.3136  0.4698
10385TIP3   OH252569   5.158   1.521  12.892  0.6750 -0.3606 -0.1755
10385TIP3    H152570   5.137   1.568  12.812  0.2661  1.6476  1.0697
10385TIP3    H252571   5.077   1.477  12.917  0.6269 -0.4733 -0.5399
10386TIP3   OH252572   3.134   2.731   2.607 -0.0981 -0.1493 -0.6946
10386TIP3    H152573   3.039   2.730   2.599 -0.1095  2.1290 -1.1020
10386TIP3    H252574   3.152   2.687   2.690 -1.5535  0.1161 -0.2358
10387TIP3   OH252575   5.892   5.469   3.702  0.3058 -0.3338  0.3821
10387TIP3    H152576   5.901   5.465   3.607 -0.3815  0.9030  0.2637
10387TIP3    H252577   5.815   5.523   3.717  2.4450  2.4669  1.6985
10388TIP3   OH252578   4.263   3.324  13.443  0.0369 -0.0040  0.0069
10388TIP3    H152579   4.212   3.270  13.382  0.8270 -0.3184 -0.3860
10388TIP3    H252580   4.281   3.267  13.517  0.1983 -0.0305 -0.0532
10389TIP3   OH252581   3.474   2.932  13.004 -0.3579 -0.0867 -0.1431
10389TIP3    H152582   3.486   2.939  13.099  0.9275 -0.6465 -0.2583
10389TIP3    H252583   3.417   2.855  12.993  1.1397 -1.2539  0.0797
10390TIP3   OH252584   6.576   3.819   3.594 -0.4668  0.0013 -0.2955
10390TIP3    H152585   6.655   3.861   3.628  1.6919 -3.6899 -0.4809
10390TIP3    H252586   6.532   3.785   3.673 -0.1579 -0.7653 -0.4512
10391TIP3   OH252587   5.474   3.721  13.434 -0.0855 -0.0356 -0.2717
10391TIP3    H152588   5.535   3.676  13.376 -0.1046  0.6635 -0.8335
10391TIP3    H252589   5.396   3.664  13.436  0.6674 -1.0545  0.6513
10392TIP3   OH252590   5.161   3.460  14.844 -1.2720  0.5313  0.4423
10392TIP3    H152591   5.096   3.516  14.802  1.1034  2.3780 -0.9090
10392TIP3    H252592   5.206   3.517  14.906  0.3145 -0.2135 -0.0070
10393TIP3   OH252593   0.950   5.331  14.305  0.0640 -0.0438  0.0308
10393TIP3    H152594   0.966   5.243  14.271 -0.7541 -0.6758  1.2462
10393TIP3    H252595   0.935   5.319  14.399  0.5088  1.4595  0.3147
10394TIP3   OH252596   3.387   4.646  14.626 -0.7042 -0.4846 -0.2714
10394TIP3    H152597   3.347   4.716  14.574 -1.2375 -1.1999 -0.8293
10394TIP3    H252598   3.405   4.576  14.563  0.2201 -0.6877  0.2102
10395TIP3   OH252599   3.924   3.480  12.337 -0.1201  0.3018 -0.0052
10395TIP3    H152600   3.924   3.527  12.254 -3.2973 -0.5009 -0.5268
10395TIP3    H252601   3.974   3.400  12.319 -0.2720  0.4192 -0.9809
10396TIP3   OH252602   3.586   3.987   1.818  0.3228  0.1581 -0.2854
10396TIP3    H152603   3.567   3.989   1.724 -0.4730  0.8754 -0.1100
10396TIP3    H252604   3.681   3.976   1.823  0.1118 -2.3896 -1.1685
10397TIP3   OH252605   5.961   2.799   1.564  1.0682  0.1598  0.1383
10397TIP3    H152606   6.036   2.814   1.623  2.0672 -1.3206 -0.7217
10397TIP3    H252607   6.001   2.774   1.481 -0.3201  2.4097 -1.2730
10398TIP3   OH252608   2.714   4.826   3.426 -0.8265 -0.5600 -0.3152
10398TIP3    H152609   2.778   4.841   3.356  1.9689  1.7101  2.5962
10398TIP3    H252610   2.664   4.907   3.431  0.7945  0.3601  2.0041
10399TIP3   OH252611   2.099   4.823  11.705 -0.5276 -0.1106 -0.3288
10399TIP3    H152612   2.176   4.823  11.763 -1.4855  2.6114  1.0663
10399TIP3    H252613   2.130   4.863  11.624  0.0205 -0.9375 -0.5365
10400TIP3   OH252614   2.739   4.784   2.615 -0.4880  0.1352  0.0783
10400TIP3    H152615   2.732   4.691   2.636  2.4510  0.2360  1.7895
10400TIP3    H252616   2.694   4.793   2.530 -1.0880 -2.7495  0.0381
10401TIP3   OH252617   2.751   3.087  16.905 -0.1766 -0.2373 -0.3348
10401TIP3    H152618   2.674   3.108  16.852 -0.5378 -2.2721 -0.6663
10401TIP3    H252619   2.802   3.028  16.849  2.1150  1.8401 -0.4964
10402TIP3   OH252620   0.603   6.230   5.392 -0.8604  0.2977  0.0516
10402TIP3    H152621   0.578   6.229   5.299  0.9046 -3.1273 -0.4474
10402TIP3    H252622   0.554   6.159   5.431  0.4048  0.0343  1.1905
10403TIP3   OH252623   2.734   4.530  11.709 -0.5796 -0.1407 -0.0400
10403TIP3    H152624   2.809   4.480  11.676 -0.4591 -0.1277  0.2172
10403TIP3    H252625   2.668   4.464  11.730 -1.1283 -0.0758 -1.5059
10404TIP3   OH252626   1.227   4.304   1.580 -0.2314 -0.2806 -0.4379
10404TIP3    H152627   1.322   4.303   1.583 -0.1123  1.3605 -2.5011
10404TIP3    H252628   1.202   4.215   1.559  0.7038 -1.2925  2.4790
10405TIP3   OH252629   5.332   2.132   3.702  0.2114 -0.0221 -0.0918
10405TIP3    H152630   5.269   2.202   3.684  0.8275  0.4400 -0.4592
10405TIP3    H252631   5.294   2.054   3.661  0.3811  0.4798 -1.2189
10406TIP3   OH252632   6.781   0.292   2.296  0.4106 -0.0169  0.2214
10406TIP3    H152633   6.843   0.298   2.368  0.5855 -2.1806  0.2726
10406TIP3    H252634   6.706   0.344   2.325  0.4554 -0.8933  2.0033
10407TIP3   OH252635   4.446   1.891   0.014 -0.0998  0.2556 -0.1961
10407TIP3    H152636   4.523   1.857   0.060 -0.4533 -0.4068 -0.0852
10407TIP3    H252637   4.392   1.814  -0.003 -0.3607  0.6066 -0.9966
10408TIP3   OH252638   6.082   1.463   0.132  0.5087  0.0579 -0.0106
10408TIP3    H152639   6.019   1.399   0.165 -0.3861  0.0741 -1.6419
10408TIP3    H252640   6.028   1.534   0.098  1.4656  0.9263  0.2631
10409TIP3   OH252641   1.831   2.299   2.510  0.0356 -0.0306 -0.2354
10409TIP3    H152642   1.750   2.254   2.486 -0.1356  1.0113 -1.6680
10409TIP3    H252643   1.900   2.235   2.493  0.0291  0.9381 -4.5540
10410TIP3   OH252644   2.694   0.833  11.513  0.8663 -0.1194 -0.3407
10410TIP3    H152645   2.758   0.776  11.556  0.3121  0.4220  1.2364
10410TIP3    H252646   2.610   0.789  11.526  0.5087  0.7743  0.3950
10411TIP3   OH252647   1.542   6.471  15.056  0.0495 -0.0438  0.0855
10411TIP3    H152648   1.616   6.411  15.064  0.4454  0.7643  3.4689
10411TIP3    H252649   1.572   6.539  14.995  2.6193  0.9092  2.3099
10412TIP3   OH252650   2.351   0.185   2.141  0.2720 -0.1342 -0.4802
10412TIP3    H152651   2.363   0.248   2.212 -2.1823  0.2183 -0.3630
10412TIP3    H252652   2.378   0.232   2.062  2.0741 -0.2177  0.0507
10413TIP3   OH252653   1.507   1.637   4.248 -0.0187 -0.6706  0.5039
10413TIP3    H152654   1.442   1.707   4.258 -0.1569  0.0118 -4.0953
10413TIP3    H252655   1.455   1.561   4.220  0.3569 -2.2048  3.7396
10414TIP3   OH252656   2.867   6.387  17.193 -0.1285  0.4630  0.0551
10414TIP3    H152657   2.952   6.424  17.217 -0.2911  0.7187  0.2346
10414TIP3    H252658   2.849   6.324  17.263 -2.1328  3.5471  2.4571
10415TIP3   OH252659   0.650   5.754   4.083 -0.2072  0.2794 -0.2891
10415TIP3    H152660   0.745   5.766   4.092 -0.1682 -1.0994  1.4905
10415TIP3    H252661   0.638   5.659   4.084 -1.5941  0.4277 -0.9260
10416TIP3   OH252662   4.757   4.233  16.872  0.2402 -0.1450 -0.5984
10416TIP3    H152663   4.729   4.320  16.845 -0.4743 -0.2961 -0.3768
10416TIP3    H252664   4.754   4.235  16.967 -0.0036 -0.4811 -0.5968
10417TIP3   OH252665   1.068   4.121   3.812 -0.1989  0.1960  0.2197
10417TIP3    H152666   0.982   4.134   3.853  0.4265  0.3899  1.4889
10417TIP3    H252667   1.107   4.048   3.861  0.6629  0.5865  0.1142
10418TIP3   OH252668   4.600   2.830   0.058  0.1401 -0.4077 -0.5825
10418TIP3    H152669   4.537   2.865   0.121 -0.1083 -0.3207 -0.8775
10418TIP3    H252670   4.668   2.790   0.112 -0.2793 -0.6985 -0.2589
10419TIP3   OH252671   6.539   6.599   1.614  0.3624  0.0965 -0.6089
10419TIP3    H152672   6.546   6.515   1.568  0.4176 -1.0957  1.5319
10419TIP3    H252673   6.537   6.664   1.544  1.0194 -1.6353 -2.2845
10420TIP3   OH252674   5.557   3.331   6.159 -0.5182 -0.9090  0.5296
10420TIP3    H152675   5.474   3.290   6.136  0.8076 -3.1556 -0.4024
10420TIP3    H252676   5.613   3.318   6.082  1.2628 -0.9884  1.8072
10421TIP3   OH252677   1.342   2.063  15.829 -0.1032 -0.5642  0.1359
10421TIP3    H152678   1.432   2.095  15.830 -0.3927  0.2821 -0.2213
10421TIP3    H252679   1.321   2.051  15.736 -0.5663 -0.1477  0.1824
10422TIP3   OH252680   2.106   3.379  11.497 -0.2237 -0.6490 -0.1836
10422TIP3    H152681   2.094   3.451  11.560 -0.1488  1.3224 -2.3655
10422TIP3    H252682   2.022   3.334  11.497  0.3396 -1.7929  2.6390
10423TIP3   OH252683   4.269   1.596   3.979 -0.2193  0.2997 -0.2336
10423TIP3    H152684   4.207   1.531   3.948 -1.1938  1.5636 -0.9858
10423TIP3    H252685   4.218   1.677   3.988  1.5348  1.6883 -2.1352
10424TIP3   OH252686   3.319   2.634  14.665 -0.5737  0.2891  0.4822
10424TIP3    H152687   3.410   2.650  14.690 -0.9329  0.5997  1.5765
10424TIP3    H252688   3.325   2.592  14.579  0.6460 -0.7273  1.0565
10425TIP3   OH252689   1.642   0.652  14.648  0.1887 -0.1838  0.3845
10425TIP3    H152690   1.645   0.627  14.740 -2.9639 -0.7991  0.3542
10425TIP3    H252691   1.694   0.732  14.643 -0.3773  0.3661  2.8637
10426TIP3   OH252692   1.954   6.354  11.095 -0.0026 -0.5296 -0.5449
10426TIP3    H152693   2.033   6.380  11.143 -0.1873 -1.8286  0.4907
10426TIP3    H252694   1.926   6.434  11.050  1.1073  0.2964  0.1969
10427TIP3   OH252695   3.256   2.146   2.678 -0.1058 -0.1632 -0.3897
10427TIP3    H152696   3.313   2.080   2.637  2.0140  0.4981  1.3770
10427TIP3    H252697   3.242   2.113   2.767  1.3371  1.9466  0.6570
10428TIP3   OH252698   5.463   3.897  15.243 -0.5690  0.1164  0.6093
10428TIP3    H152699   5.553   3.899  15.276  0.2578  1.3975 -1.6081
10428TIP3    H252700   5.431   3.810  15.266  0.9581 -0.0725  2.1362
10429TIP3   OH252701   5.603   6.008  12.521  0.4881  0.8161 -0.0177
10429TIP3    H152702   5.606   6.025  12.427  1.5056 -1.6424 -0.4852
10429TIP3    H252703   5.694   5.994  12.546 -0.0086 -1.2529  0.7557
10430TIP3   OH252704   5.762   6.234  15.652  0.7462  0.7306 -0.2442
10430TIP3    H152705   5.723   6.178  15.585  1.8149  1.0005 -1.1020
10430TIP3    H252706   5.688   6.281  15.690 -0.0338 -0.4433 -0.2756
10431TIP3   OH252707   6.646   5.184   2.774 -0.3081  0.2426  0.4754
10431TIP3    H152708   6.635   5.254   2.839 -0.8891  0.1990  0.4222
10431TIP3    H252709   6.734   5.199   2.739  0.4820 -0.4612  2.1208
10432TIP3   OH252710   5.154   6.451   1.074  0.2114 -1.1199 -0.5653
10432TIP3    H152711   5.220   6.435   1.142 -1.5354 -0.8568  1.2103
10432TIP3    H252712   5.170   6.541   1.046 -0.3253 -0.5489  0.9216
10433TIP3   OH252713   1.917   2.704  12.275 -0.0324  0.8656  0.3831
10433TIP3    H152714   1.933   2.617  12.310 -1.0162  0.7968  0.6638
10433TIP3    H252715   1.876   2.689  12.190 -4.1156  1.0342  2.2349
10434TIP3   OH252716   3.389   0.362  12.984  0.0319  0.0438 -0.2350
10434TIP3    H152717   3.394   0.360  13.080  0.1056  1.2663 -0.1997
10434TIP3    H252718   3.414   0.452  12.961  0.5192 -0.3925 -1.4329
10435TIP3   OH252719   0.847   0.452   5.009  0.7545  0.7701 -0.3586
10435TIP3    H152720   0.838   0.404   5.091  2.9478  1.6264  0.4178
10435TIP3    H252721   0.784   0.523   5.015 -1.7392 -1.2995 -1.0460
10436TIP3   OH252722   5.610   5.450  15.382 -0.1065 -0.6207 -0.6374
10436TIP3    H152723   5.626   5.525  15.439 -3.1129 -0.0186 -0.4725
10436TIP3    H252724   5.637   5.374  15.433  0.1435  0.1375  0.3628
10437TIP3   OH252725   0.686   0.406  14.753 -0.1350 -0.4508  0.5340
10437TIP3    H152726   0.731   0.491  14.755  1.1516 -1.1022  4.3459
10437TIP3    H252727   0.599   0.424  14.790 -0.2883 -0.5757  0.2338
10438TIP3   OH252728   6.282   5.118  10.478 -0.2733  0.0390  0.4620
10438TIP3    H152729   6.327   5.087  10.557 -0.0154 -0.3173  0.1734
10438TIP3    H252730   6.242   5.039  10.441  1.5116 -0.2000 -1.0145
10439TIP3   OH252731   6.288   1.875  15.120 -0.2551 -0.3381  0.2521
10439TIP3    H152732   6.332   1.940  15.175  0.6735  0.8576 -1.8416
10439TIP3    H252733   6.207   1.856  15.167  0.7706  0.2011  2.3173
10440TIP3   OH252734   1.694   1.384  16.124 -0.6638  0.2479 -0.1474
10440TIP3    H152735   1.660   1.430  16.047 -1.3373 -0.3055 -0.1898
10440TIP3    H252736   1.647   1.422  16.198  0.3285  1.1110  0.0452
10441TIP3   OH252737   0.628   1.035   1.365 -0.1530 -0.0185  0.4615
10441TIP3    H152738   0.622   1.087   1.445  1.4610 -1.6403  1.6796
10441TIP3    H252739   0.549   0.981   1.365  0.4852 -0.9915  1.7031
10442TIP3   OH252740   6.370   0.657   0.015  0.3572  0.1130  0.1777
10442TIP3    H152741   6.419   0.739   0.022 -1.3069  1.1178  0.2344
10442TIP3    H252742   6.435   0.589   0.032  1.5377  1.4629  1.1698
10443TIP3   OH252743   0.126   6.368  14.545  0.0118  0.5170  0.6585
10443TIP3    H152744   0.039   6.404  14.530  0.6316  1.8164  0.0967
10443TIP3    H252745   0.127   6.343  14.638 -2.0473 -2.5691 -0.0652
10444TIP3   OH252746   5.667   1.280   1.562 -0.0862  0.5605  0.2945
10444TIP3    H152747   5.701   1.298   1.650  1.2357  2.0556 -0.4935
10444TIP3    H252748   5.714   1.202   1.534 -1.4206 -0.6635  1.3761
10445TIP3   OH252749   0.253   5.613  10.862 -0.1659  0.2022 -0.8178
10445TIP3    H152750   0.233   5.652  10.946  0.3319  0.4884 -0.8290
10445TIP3    H252751   0.333   5.657  10.833  0.5726 -1.0304 -0.6893
10446TIP3   OH252752   5.849   5.524  12.759 -0.5414 -0.5234  0.0827
10446TIP3    H152753   5.801   5.606  12.775  0.2153 -0.0497 -0.0544
10446TIP3    H252754   5.941   5.550  12.757 -0.2846 -1.4058  0.1819
10447TIP3   OH252755   3.896   4.591   3.131 -0.3356  0.3041 -0.1387
10447TIP3    H152756   3.981   4.549   3.143 -0.3533  0.2315 -0.2694
10447TIP3    H252757   3.860   4.549   3.054 -0.7638 -0.1094  0.2827
10448TIP3   OH252758   0.938   3.661  12.008  0.0707  0.3992 -0.8518
10448TIP3    H152759   0.960   3.739  12.059 -1.0805  1.7200 -2.3078
10448TIP3    H252760   0.993   3.668  11.930 -0.9537  0.4618 -1.5848
10449TIP3   OH252761   4.815   4.624   0.092  0.0059 -0.1335  0.4306
10449TIP3    H152762   4.843   4.709   0.058  0.1690 -0.0137  0.8638
10449TIP3    H252763   4.805   4.638   0.186  0.7500 -0.7839  0.6148
10450TIP3   OH252764   0.317   2.813  11.108  0.4442 -0.2740  0.5333
10450TIP3    H152765   0.267   2.752  11.054 -0.7177 -0.3369  1.6445
10450TIP3    H252766   0.401   2.822  11.063  0.5584 -2.5161  0.2238
10451TIP3   OH252767   2.792   4.422  12.342 -0.0781 -0.2690  0.2694
10451TIP3    H152768   2.740   4.503  12.342  0.9595  0.4211 -1.6344
10451TIP3    H252769   2.727   4.352  12.342 -1.0015  0.5714  0.1186
10452TIP3   OH252770   3.880   5.483   2.746 -0.1418 -0.0087 -0.1812
10452TIP3    H152771   3.788   5.512   2.745  0.1795  1.0457  0.0114
10452TIP3    H252772   3.876   5.389   2.766 -1.2007 -0.0606 -0.6154
10453TIP3   OH252773   3.321   2.981  11.548 -0.4185 -0.0891 -0.0850
10453TIP3    H152774   3.264   2.907  11.530 -0.4431 -0.0595 -0.1282
10453TIP3    H252775   3.408   2.952  11.522 -0.6623  0.4178 -1.4901
10454TIP3   OH252776   4.169   4.499  12.498  0.0683  0.4866 -0.1560
10454TIP3    H152777   4.171   4.566  12.430  2.0126  2.1556  1.4811
10454TIP3    H252778   4.256   4.460  12.496 -0.1704 -0.1079  0.7227
10455TIP3   OH252779   5.009   1.263  12.379  0.0925  0.1548 -0.4426
10455TIP3    H152780   4.959   1.303  12.450  1.7736  0.6129  0.5018
10455TIP3    H252781   5.088   1.228  12.421 -0.9941 -3.6614 -1.3046
10456TIP3   OH252782   6.529   4.543  12.442  0.4168  0.0379  0.0912
10456TIP3    H152783   6.622   4.531  12.459  0.2682 -1.7310 -0.2145
10456TIP3    H252784   6.494   4.580  12.523  1.4009  0.8544  0.1500
10457TIP3   OH252785   3.581   5.531  16.947 -0.2874  0.2043 -0.0854
10457TIP3    H152786   3.525   5.606  16.926  2.3451  1.9171 -1.2266
10457TIP3    H252787   3.661   5.545  16.896  0.9695 -2.4951  1.0218
10458TIP3   OH252788   0.538   2.860   4.722 -0.0553 -0.4593  0.3288
10458TIP3    H152789   0.608   2.802   4.752  0.5352  0.2577  0.3497
10458TIP3    H252790   0.576   2.948   4.726 -0.2013 -0.2776 -1.7962
10459TIP3   OH252791   3.598   5.656  14.983  0.0758 -0.2416  0.0645
10459TIP3    H152792   3.553   5.585  14.937 -1.4487  0.5375  0.3024
10459TIP3    H252793   3.602   5.727  14.920  0.5950 -0.1532  0.1929
10460TIP3   OH252794   2.289   3.636   1.585  0.0648  0.2951  0.2590
10460TIP3    H152795   2.375   3.643   1.544  1.4160 -0.9166  2.7974
10460TIP3    H252796   2.235   3.590   1.521  1.7264 -0.3044 -0.7229
10461TIP3   OH252797   4.653   5.953   1.663 -0.0948  0.4023  0.5653
10461TIP3    H152798   4.603   5.881   1.701 -1.9941  1.0954 -0.6028
10461TIP3    H252799   4.690   5.917   1.583  1.7408 -0.2488  1.6504
10462TIP3   OH252800   0.287   4.854   1.993  0.2116 -0.0828  0.0928
10462TIP3    H152801   0.313   4.886   1.906 -0.3226 -1.5276 -0.6159
10462TIP3    H252802   0.196   4.828   1.983  0.2929 -0.7332  0.9480
10463TIP3   OH252803   0.421   4.717   2.447 -0.1350 -0.5112 -0.4648
10463TIP3    H152804   0.407   4.720   2.352 -1.3017  0.7805 -0.2733
10463TIP3    H252805   0.359   4.652   2.478 -0.1734 -0.5064 -0.5285
10464TIP3   OH252806   2.725   5.392  14.436 -0.2409  0.5363  0.3812
10464TIP3    H152807   2.789   5.386  14.507  1.2242 -1.0999 -1.0360
10464TIP3    H252808   2.770   5.442  14.367 -0.1427 -1.3143 -0.9400
10465TIP3   OH252809   3.656   4.072  14.396  0.2543 -0.0992 -0.3992
10465TIP3    H152810   3.680   4.162  14.421 -1.3141 -0.0655  1.0910
10465TIP3    H252811   3.611   4.082  14.312  1.0996  0.3807 -0.8016
10466TIP3   OH252812   2.347   1.197  11.344 -0.2291  0.2500  0.0211
10466TIP3    H152813   2.330   1.130  11.410 -0.4275 -0.9546 -1.2297
10466TIP3    H252814   2.442   1.193  11.329 -0.4334 -0.7286 -1.0620
10467TIP3   OH252815   1.931   5.000  16.864  0.3516 -0.2332  0.3433
10467TIP3    H152816   1.977   4.922  16.895 -0.2731 -2.0948 -3.1500
10467TIP3    H252817   1.981   5.029  16.788 -1.1050  0.9820 -0.1786
10468TIP3   OH252818   6.686   2.646   5.545 -0.2710 -0.0939  0.1670
10468TIP3    H152819   6.624   2.686   5.484  0.0239 -0.1493 -0.1750
10468TIP3    H252820   6.670   2.689   5.628 -0.2726  0.4106 -0.0905
10469TIP3   OH252821   2.313   0.777  16.099  0.4673 -0.5639  0.3510
10469TIP3    H152822   2.386   0.736  16.052 -0.8986 -1.2236 -1.2641
10469TIP3    H252823   2.234   0.738  16.059 -0.7859  1.0884  1.1606
10470TIP3   OH252824   1.340   2.721   0.127 -0.1119  0.6394  0.1191
10470TIP3    H152825   1.339   2.809   0.089  1.1063  1.3076  1.5924
10470TIP3    H252826   1.426   2.714   0.169 -0.4026 -1.0695  0.4716
10471TIP3   OH252827   6.606   5.353   2.320 -0.4886  0.3557  0.1038
10471TIP3    H152828   6.610   5.312   2.406 -0.7855  1.7650  0.7998
10471TIP3    H252829   6.686   5.404   2.314 -0.4363  0.2136 -0.4995
10472TIP3   OH252830   4.861   5.673   4.705  0.2411  0.0127 -0.2446
10472TIP3    H152831   4.771   5.696   4.681  0.3613  1.0209  0.2556
10472TIP3    H252832   4.915   5.710   4.634  0.5494  2.5033  1.2393
10473TIP3   OH252833   4.897   6.263   3.504  0.7674  0.0259 -0.3999
10473TIP3    H152834   4.940   6.291   3.585  0.4856 -0.9889  0.1117
10473TIP3    H252835   4.943   6.311   3.435 -0.4688  2.6480  0.5217
10474TIP3   OH252836   1.437   1.089  16.148 -0.3278 -0.3037  0.1185
10474TIP3    H152837   1.502   1.153  16.178 -0.8342 -0.0553  0.6962
10474TIP3    H252838   1.465   1.066  16.060  1.1303 -0.9785  0.7484
10475TIP3   OH252839   1.653   2.149   6.936 -0.3988  0.0779  0.2863
10475TIP3    H152840   1.602   2.141   6.855 -1.1737 -1.3700  0.8986
10475TIP3    H252841   1.742   2.123   6.910 -0.4735  0.3633 -0.2681
10476TIP3   OH252842   0.243   5.789  13.066 -0.2345 -0.2226  0.0093
10476TIP3    H152843   0.182   5.841  13.119  0.7383  0.5508  0.3767
10476TIP3    H252844   0.288   5.734  13.130  1.3200  1.0860  0.0782
10477TIP3   OH252845   5.865   4.762   0.939  0.9139 -0.2354 -0.2272
10477TIP3    H152846   5.889   4.831   0.878 -0.9607  1.6190  1.0457
10477TIP3    H252847   5.785   4.725   0.902  1.5283 -1.2548 -0.5404
10478TIP3   OH252848   1.596   3.003   6.022  0.0240 -0.5191  0.4834
10478TIP3    H152849   1.547   3.059   5.961 -0.9357  0.0672  1.7639
10478TIP3    H252850   1.681   3.046   6.030  1.0527 -1.8938 -2.2529
10479TIP3   OH252851   6.187   2.257  15.176  0.2188  0.1152  0.3736
10479TIP3    H152852   6.191   2.267  15.271  1.1054  0.2853  0.3245
10479TIP3    H252853   6.272   2.291  15.145  0.1576 -0.4560 -0.4303
10480TIP3   OH252854   3.909   4.388  16.586 -0.0980  0.2006  0.0834
10480TIP3    H152855   3.935   4.480  16.583  1.9481 -0.3731 -0.6631
10480TIP3    H252856   3.857   4.374  16.507  0.6013  0.4305 -0.4195
10481TIP3   OH252857   3.161   6.245  13.954 -0.3483  0.2081 -0.1381
10481TIP3    H152858   3.097   6.209  14.015  0.2282 -0.3371  0.1450
10481TIP3    H252859   3.108   6.285  13.885 -0.9943 -0.7331 -0.1949
10482TIP3   OH252860   3.649   0.864   3.994 -0.5322  0.0254 -0.3256
10482TIP3    H152861   3.618   0.862   4.084 -1.8996  0.2703 -0.7739
10482TIP3    H252862   3.696   0.782   3.982 -1.7091 -0.7379  0.1493
10483TIP3   OH252863   1.181   0.117  14.971 -0.1878 -0.6971 -0.8271
10483TIP3    H152864   1.236   0.149  15.042 -0.6778 -1.7766  0.0611
10483TIP3    H252865   1.135   0.042  15.008  0.8763 -2.3832 -2.8347
10484TIP3   OH252866   3.656   4.036  16.145  0.4354 -0.6334 -0.4094
10484TIP3    H152867   3.619   4.119  16.175 -0.3201 -0.5164 -1.6550
10484TIP3    H252868   3.581   3.977  16.135  1.0606 -1.8136  1.4562
10485TIP3   OH252869   4.407   2.741  12.474 -0.1785 -0.4974 -0.2078
10485TIP3    H152870   4.314   2.740  12.500 -0.2704  0.2349 -0.4937
10485TIP3    H252871   4.440   2.656  12.503 -0.4291  0.0358  1.7620
10486TIP3   OH252872   3.993   0.557  11.807 -0.3590  0.3003  0.4250
10486TIP3    H152873   3.998   0.649  11.780  0.3209  0.0163 -0.4612
10486TIP3    H252874   4.045   0.552  11.887  1.3076  0.3058 -0.6284
10487TIP3   OH252875   5.083   1.303  13.798 -0.4312  0.1023  0.1073
10487TIP3    H152876   5.090   1.398  13.793  0.1518  0.1947  2.1523
10487TIP3    H252877   5.151   1.278  13.861  1.1967 -1.9319 -2.3654
10488TIP3   OH252878   1.054   5.145   1.830  0.0648 -0.2516 -0.1522
10488TIP3    H152879   1.114   5.144   1.756 -2.6652 -1.0212 -2.4500
10488TIP3    H252880   1.032   5.053   1.845  0.6997 -0.1229  1.7548
10489TIP3   OH252881   4.338   0.044  11.063  0.1212 -0.0995  0.3802
10489TIP3    H152882   4.406   0.096  11.019 -0.4801 -0.4304 -0.9508
10489TIP3    H252883   4.334   0.082  11.151  2.0206 -0.0670  0.4900
10490TIP3   OH252884   1.693   1.419   4.815 -0.1814  0.2877  0.4710
10490TIP3    H152885   1.775   1.430   4.862  1.2794 -0.8676 -1.7178
10490TIP3    H252886   1.703   1.473   4.737 -0.5940 -1.5988 -0.9053
10491TIP3   OH252887   6.522   3.356  11.777 -0.0315  0.5485 -0.0553
10491TIP3    H152888   6.505   3.441  11.817  2.1626 -0.3369  2.8821
10491TIP3    H252889   6.611   3.363  11.742  0.5542 -0.8929  1.1444
10492TIP3   OH252890   5.841   2.724   2.056  0.4043  0.2088  0.2126
10492TIP3    H152891   5.876   2.636   2.045 -0.5564 -0.1592 -0.0263
10492TIP3    H252892   5.747   2.714   2.038  0.2438  1.2249  0.4660
10493TIP3   OH252893   5.367   4.769   2.806  0.6256  0.2897  0.1551
10493TIP3    H152894   5.338   4.832   2.872  2.6685  1.1661  0.2457
10493TIP3    H252895   5.290   4.756   2.750 -0.6524  0.7210  1.7719
10494TIP3   OH252896   1.235   4.298   1.987  0.7896  0.7964 -0.4893
10494TIP3    H152897   1.154   4.248   1.982 -0.4886  2.9052 -1.1800
10494TIP3    H252898   1.301   4.233   2.010 -1.3635 -0.6511  1.8198
10495TIP3   OH252899   1.487   3.049   3.696  0.1572  0.1159  0.2959
10495TIP3    H152900   1.529   2.973   3.736 -0.6927 -0.8962 -0.6913
10495TIP3    H252901   1.534   3.061   3.613 -1.0104 -0.5752 -0.4741
10496TIP3   OH252902   2.492   0.522   3.120 -0.5759  0.4233  0.1244
10496TIP3    H152903   2.532   0.502   3.036 -0.5450 -1.7427  0.6206
10496TIP3    H252904   2.514   0.614   3.137  0.0135  0.6601 -1.8763
10497TIP3   OH252905   3.291   5.804  14.851 -0.2288 -0.4738 -0.1571
10497TIP3    H152906   3.386   5.812  14.845  0.0986 -0.7490  3.6874
10497TIP3    H252907   3.259   5.893  14.838  0.3818 -0.6110 -3.0177
10498TIP3   OH252908   0.299   6.465   3.315  0.4094 -0.1970  0.3568
10498TIP3    H152909   0.354   6.422   3.380 -0.8920  0.2949  1.8200
10498TIP3    H252910   0.276   6.396   3.253  4.3632  0.0238 -1.5071
10499TIP3   OH252911   0.645   5.021   4.144 -0.0201  0.1103  0.4902
10499TIP3    H152912   0.711   5.011   4.212 -0.3913 -1.5515  0.6249
10499TIP3    H252913   0.642   4.936   4.101 -0.8406  0.7049 -0.6429
10500TIP3   OH252914   1.606   3.253   4.015  0.1360 -1.1226  0.2479
10500TIP3    H152915   1.544   3.307   3.967  0.7711 -0.0304  0.6186
10500TIP3    H252916   1.563   3.168   4.025  0.2426 -1.5821 -2.7644
10501TIP3   OH252917   2.049   6.704  12.238 -0.1603  0.5529 -0.4457
10501TIP3    H152918   2.072   6.708  12.146 -1.1476 -1.1914 -0.7706
10501TIP3    H252919   1.990   6.629  12.246  1.1899 -0.3162  1.8710
10502TIP3   OH252920   5.813   4.139   3.357  0.2527  0.4050 -1.2896
10502TIP3    H152921   5.759   4.216   3.373  1.2383  0.7102  0.6584
10502TIP3    H252922   5.761   4.086   3.297 -1.3602  1.5905 -0.9814
10503TIP3   OH252923   4.927   4.679  10.414  0.3001  0.2121  0.5868
10503TIP3    H152924   4.895   4.755  10.461 -1.2372 -0.0556  0.0200
10503TIP3    H252925   5.009   4.656  10.457  1.6805  3.2213 -0.3280
10504TIP3   OH252926   4.028   5.786  12.438  0.2046  0.2661 -0.4153
10504TIP3    H152927   4.030   5.724  12.365 -0.0419  0.4063 -0.5415
10504TIP3    H252928   4.106   5.840  12.426  0.3517  0.0619 -0.3765
10505TIP3   OH252929   1.770   4.238   3.810 -0.4340 -0.6928  0.0204
10505TIP3    H152930   1.789   4.161   3.863  0.2504  0.2244  1.1458
10505TIP3    H252931   1.676   4.235   3.796 -0.8966 -0.1487  2.6375
10506TIP3   OH252932   5.322   6.153   1.840  0.1382  0.1066 -0.0351
10506TIP3    H152933   5.415   6.168   1.824 -0.0954 -0.8416 -2.5018
10506TIP3    H252934   5.277   6.217   1.785 -0.6594  0.0988  0.5985
10507TIP3   OH252935   5.839   6.640   3.571 -0.7754 -0.0167 -0.2717
10507TIP3    H152936   5.839   6.728   3.609  0.5025 -0.1119 -0.0066
10507TIP3    H252937   5.787   6.587   3.631  1.8305 -0.3248  1.7979
10508TIP3   OH252938   2.853   2.073   3.834  0.3594  0.1084  0.2257
10508TIP3    H152939   2.878   2.160   3.863  3.9584 -0.3683 -1.2156
10508TIP3    H252940   2.813   2.087   3.748  0.2549  0.3927  0.3194
10509TIP3   OH252941   2.035   4.036  15.872  0.0620 -0.0509 -0.1457
10509TIP3    H152942   2.010   3.953  15.830 -0.7388 -1.8943  3.6931
10509TIP3    H252943   1.951   4.076  15.896  0.4973  0.1526  1.0735
10510TIP3   OH252944   3.437   1.142  14.471 -0.1110 -0.5618 -0.0180
10510TIP3    H152945   3.434   1.049  14.494  2.4769 -0.5545  0.5644
10510TIP3    H252946   3.455   1.186  14.554 -2.0645  0.5424 -0.1609
10511TIP3   OH252947   6.279   4.857   2.290 -0.1466  0.3390  0.4811
10511TIP3    H152948   6.229   4.932   2.257  0.3046  0.3679 -0.1353
10511TIP3    H252949   6.360   4.895   2.325 -0.3089  0.2316  0.9856
10512TIP3   OH252950   0.235   4.212  15.549 -0.1706 -0.7885  0.1806
10512TIP3    H152951   0.208   4.252  15.632 -0.8353 -1.0448  0.0869
10512TIP3    H252952   0.233   4.284  15.486 -0.8687 -0.8630  0.1206
10513TIP3   OH252953   2.650   3.042  16.282  0.1565  0.0467  0.2941
10513TIP3    H152954   2.581   3.020  16.219 -0.2125 -0.3440  0.8348
10513TIP3    H252955   2.732   3.028  16.234 -0.1175 -0.4079 -0.0437
10514TIP3   OH252956   0.629   3.874  16.948 -0.1201 -0.6383  0.1643
10514TIP3    H152957   0.714   3.836  16.927  0.3171 -0.0228  0.7672
10514TIP3    H252958   0.578   3.867  16.867  1.3563  1.2240 -0.9766
10515TIP3   OH252959   4.510   1.258   3.889 -0.5534  0.3535  0.3669
10515TIP3    H152960   4.595   1.294   3.915 -0.0929 -0.1289 -0.4363
10515TIP3    H252961   4.446   1.303   3.945  0.0083  2.3221 -0.5349
10516TIP3   OH252962   6.554   5.028  16.605  0.1481 -0.6692  0.6656
10516TIP3    H152963   6.626   5.069  16.653 -0.0350  1.4767 -0.7965
10516TIP3    H252964   6.477   5.043  16.659  0.2518  0.0436  0.6205
10517TIP3   OH252965   2.658   0.421  16.750  1.0106  0.0132  0.3296
10517TIP3    H152966   2.682   0.357  16.683 -0.8479 -1.0902  0.7202
10517TIP3    H252967   2.725   0.411  16.818  2.2084  0.3021 -0.7921
10518TIP3   OH252968   0.800   0.689  14.744 -0.1628  0.2047  0.2193
10518TIP3    H152969   0.809   0.684  14.649 -0.2487  0.8606  0.1753
10518TIP3    H252970   0.721   0.740  14.758 -0.0894  0.2025  0.6488
10519TIP3   OH252971   5.208   6.778  11.991  0.8097  0.0407 -0.1074
10519TIP3    H152972   5.225   6.694  11.949  0.0175 -0.1913  0.0276
10519TIP3    H252973   5.293   6.805  12.027  1.1074 -0.5962 -0.3341
10520TIP3   OH252974   5.506   3.985  13.770  0.7760 -0.0004 -0.6025
10520TIP3    H152975   5.479   4.076  13.757  0.6070  0.2373  1.3840
10520TIP3    H252976   5.433   3.943  13.815  0.4157 -1.4128 -2.4337
10521TIP3   OH252977   1.691   2.322   0.261  0.1120  0.6947 -0.0298
10521TIP3    H152978   1.663   2.328   0.170 -1.5009  1.1073  0.4608
10521TIP3    H252979   1.786   2.326   0.258  0.1928 -1.6643 -1.8666
10522TIP3   OH252980   1.495   4.270   1.605 -0.3687  0.0045  0.3824
10522TIP3    H152981   1.577   4.316   1.587 -1.2524  1.5098  0.1121
10522TIP3    H252982   1.517   4.178   1.597  1.2520  0.4019  0.0982
10523TIP3   OH252983   4.437   3.803  15.424  0.5361 -0.1691  0.5587
10523TIP3    H152984   4.344   3.810  15.445  0.8221 -0.9322  2.1427
10523TIP3    H252985   4.443   3.730  15.362 -0.0406  0.6032 -0.4163
10524TIP3   OH252986   5.570   4.270  13.988 -0.5773  0.2277  0.0856
10524TIP3    H152987   5.632   4.204  13.956  0.4006  0.4377  1.4966
10524TIP3    H252988   5.529   4.305  13.909  0.1414 -0.8621 -0.7869
10525TIP3   OH252989   3.029   2.254  10.955 -0.2029  0.0670  0.0097
10525TIP3    H152990   2.935   2.250  10.938 -0.4104  0.8750  0.9858
10525TIP3    H252991   3.055   2.343  10.930  0.5438 -0.5312 -1.4393
10526TIP3   OH252992   1.097   5.241  11.184  0.0286  0.6645 -0.7331
10526TIP3    H152993   1.154   5.259  11.260 -0.1694  1.1484 -0.6980
10526TIP3    H252994   1.013   5.217  11.222  0.4535 -0.9520 -0.7650
10527TIP3   OH252995   2.304   5.113   6.050 -0.2588 -0.4667 -0.7348
10527TIP3    H152996   2.288   5.194   6.098  1.8322  0.1152 -0.9823
10527TIP3    H252997   2.314   5.141   5.959  1.1569 -0.9220 -0.7171
10528TIP3   OH252998   1.709   4.111   2.700  0.4542  0.8338  0.0751
10528TIP3    H152999   1.697   4.051   2.773 -2.4780  1.5435  0.2339
10528TIP3    H253000   1.715   4.054   2.623  1.7857  0.1733  0.6462
10529TIP3   OH253001   1.015   0.708  15.857  0.9834 -0.7929  0.5328
10529TIP3    H153002   1.107   0.716  15.882  0.1431  1.6265  3.1171
10529TIP3    H253003   0.995   0.791  15.814 -0.1013 -1.1623  0.3161
10530TIP3   OH253004   1.404   3.111   5.070  0.4946  0.0810 -0.1180
10530TIP3    H153005   1.476   3.050   5.084  0.1626  0.0621  1.5391
10530TIP3    H253006   1.446   3.197   5.066  0.5701  0.1139  1.2818
10531TIP3   OH253007   3.875   4.966  14.456  0.0503  0.9260  0.1213
10531TIP3    H153008   3.792   5.011  14.473 -0.7883  0.1413 -1.7492
10531TIP3    H253009   3.914   5.014  14.382  0.7751  0.6758  0.3341
10532TIP3   OH253010   2.098   5.123   5.701  0.2970  0.1589 -0.5284
10532TIP3    H153011   2.081   5.046   5.754  1.8088  1.1376  1.4443
10532TIP3    H253012   2.185   5.108   5.663 -0.5790 -0.3315 -2.4147
10533TIP3   OH253013   2.513   3.175  11.392 -0.9765  0.0238  0.6049
10533TIP3    H153014   2.469   3.110  11.446 -0.6396  1.1140  2.2403
10533TIP3    H253015   2.606   3.167  11.417 -0.8603  0.7369  0.4073
10534TIP3   OH253016   2.946   4.225  14.708 -0.1249 -0.0855  0.0024
10534TIP3    H153017   3.017   4.197  14.766  0.5856  0.6239 -0.5213
10534TIP3    H253018   2.945   4.320  14.715  1.0464  0.1248 -2.4195
10535TIP3   OH253019   3.114   4.207   3.348 -0.5846  0.5328 -0.2045
10535TIP3    H153020   3.197   4.253   3.335  0.2487 -0.9618 -0.2118
10535TIP3    H253021   3.062   4.230   3.270 -0.0419  1.1665 -0.3858
10536TIP3   OH253022   6.117   2.077  12.656 -0.2752  0.2504  0.8471
10536TIP3    H153023   6.168   2.140  12.604 -1.2164 -0.8672 -1.4821
10536TIP3    H253024   6.183   2.021  12.697  0.5055  1.5464  1.3865
10537TIP3   OH253025   3.708   2.161  17.160 -0.7722 -0.4356 -0.2682
10537TIP3    H153026   3.761   2.192  17.086 -0.3673 -3.5230 -1.3286
10537TIP3    H253027   3.624   2.206  17.150  0.1832  1.2642 -0.9907
10538TIP3   OH253028   2.324   4.622   3.841 -0.2734 -0.5230 -0.1003
10538TIP3    H153029   2.252   4.628   3.779 -0.9046 -0.1629  0.6607
10538TIP3    H253030   2.321   4.532   3.874  1.0874 -1.2209 -1.8011
10539TIP3   OH253031   2.945   1.036  16.360  0.3415  0.4357  0.0644
10539TIP3    H153032   3.015   1.075  16.308 -1.9265  2.6869 -1.3913
10539TIP3    H253033   2.949   0.942  16.339  1.2449  0.9181 -1.9856
10540TIP3   OH253034   4.193   2.381   4.506 -0.1508 -0.4527 -1.1111
10540TIP3    H153035   4.211   2.306   4.563 -2.1395  0.7750  1.2556
10540TIP3    H253036   4.137   2.346   4.437  0.0160 -1.4089 -0.7707
10541TIP3   OH253037   5.949   3.626   0.045  0.1681  0.2848 -0.1241
10541TIP3    H153038   5.905   3.710   0.029  0.4076  0.5689  0.6540
10541TIP3    H253039   5.999   3.641   0.126  0.0075 -0.6926  0.1563
10542TIP3   OH253040   1.276   3.523  12.473  0.5375 -0.3107  0.2815
10542TIP3    H153041   1.358   3.567  12.452  2.1776 -3.2911  0.1949
10542TIP3    H253042   1.265   3.458  12.404 -2.7937  1.1331 -0.6295
10543TIP3   OH253043   5.136   6.670  11.637  0.1730  0.6417  0.0994
10543TIP3    H153044   5.141   6.751  11.689 -1.5350  0.5052  0.5332
10543TIP3    H253045   5.174   6.693  11.553  1.1239  1.4592  0.7373
10544TIP3   OH253046   0.388   3.422   2.898  0.1140  0.0594  0.2862
10544TIP3    H153047   0.443   3.433   2.975  1.5160  0.8636 -0.8158
10544TIP3    H253048   0.432   3.354   2.846 -0.2385  0.3049 -0.3417
10545TIP3   OH253049   1.299   3.513   3.370 -0.3611 -0.1871  0.1196
10545TIP3    H153050   1.386   3.541   3.340 -0.0039  0.4294  1.7159
10545TIP3    H253051   1.289   3.425   3.334  1.4806 -0.7891  1.0051
10546TIP3   OH253052   2.835   4.385   3.381  0.3080 -0.0130  0.7703
10546TIP3    H153053   2.844   4.321   3.451 -0.5425  0.0416  0.9343
10546TIP3    H253054   2.906   4.364   3.320  0.2802 -0.8518  1.0188
10547TIP3   OH253055   5.971   2.496   1.424 -0.0129 -0.1249 -0.2549
10547TIP3    H153056   5.902   2.494   1.357  0.3172 -2.6540 -0.5609
10547TIP3    H253057   6.031   2.565   1.394 -0.8506  0.0652 -1.5563
10548TIP3   OH253058   1.046   0.863   2.834 -0.1235 -0.1916 -0.7215
10548TIP3    H153059   0.968   0.820   2.871 -1.3251  1.4837 -1.2841
10548TIP3    H253060   1.111   0.855   2.903 -1.0859 -0.7575  0.1487
10549TIP3   OH253061   3.691   5.193  16.756  0.1690  0.2407 -0.2831
10549TIP3    H153062   3.619   5.143  16.718 -1.4535  1.6044  0.9629
10549TIP3    H253063   3.663   5.211  16.846  2.9180 -0.9171  0.8691
10550TIP3   OH253064   2.026   4.999   6.254  0.0784 -0.3161  0.1941
10550TIP3    H153065   2.113   5.028   6.280 -0.6400 -1.6977  4.6121
10550TIP3    H253066   1.979   4.988   6.337 -3.5291 -1.9082 -1.9580
10551TIP3   OH253067   3.835   4.778  14.643 -0.0988  0.4148  0.2098
10551TIP3    H153068   3.854   4.856  14.590 -0.1690  0.2597 -0.0409
10551TIP3    H253069   3.813   4.813  14.730  0.7814  0.6311  0.3535
10552TIP3   OH253070   3.086   1.575   3.628 -0.1648  0.0697 -0.1332
10552TIP3    H153071   3.119   1.607   3.544  1.3958  2.0021  1.1705
10552TIP3    H253072   3.164   1.549   3.676 -1.0295 -0.7925  0.8368
10553TIP3   OH253073   2.958   2.677  17.092 -0.2507  0.9096 -0.3390
10553TIP3    H153074   3.006   2.760  17.093  3.7275 -1.2164 -1.9958
10553TIP3    H253075   2.898   2.682  17.167  2.3482  3.8745  1.6432
10554TIP3   OH253076   2.556   1.154  10.612 -0.1460  0.0870  0.5056
10554TIP3    H153077   2.607   1.086  10.656  0.0467  1.2789  2.1729
10554TIP3    H253078   2.506   1.196  10.682 -4.1026 -1.5589 -1.1579
10555TIP3   OH253079   5.894   5.980   4.632 -0.2734 -0.5537 -0.0383
10555TIP3    H153080   5.974   6.025   4.606 -1.7526  0.7865 -2.3797
10555TIP3    H253081   5.925   5.894   4.663  1.9922 -0.3589 -1.6254
10556TIP3   OH253082   0.614   1.647  16.163 -0.0527 -0.0494  0.2271
10556TIP3    H153083   0.669   1.677  16.091 -0.0081 -0.3381  0.1383
10556TIP3    H253084   0.673   1.643  16.238 -0.4670  1.7993  0.6617
10557TIP3   OH253085   2.689   2.436   1.631  0.1317 -0.3571 -0.3365
10557TIP3    H153086   2.635   2.364   1.597  0.8565  0.0539 -2.4412
10557TIP3    H253087   2.673   2.436   1.725 -2.3500 -1.2419 -0.7186
10558TIP3   OH253088   3.968   0.848   0.500  0.1123 -0.1710  0.3862
10558TIP3    H153089   3.874   0.827   0.494  0.1517 -0.4495  0.7458
10558TIP3    H253090   4.002   0.827   0.413  0.3630 -2.7206  1.0478
10559TIP3   OH253091   6.708   6.210   1.745  0.3185  0.1105  0.2880
10559TIP3    H153092   6.660   6.292   1.746  0.0423 -0.0539  0.4864
10559TIP3    H253093   6.738   6.198   1.835  0.0801 -0.1685  0.3308
10560TIP3   OH253094   0.245   5.333  14.207 -0.6728  0.0787  0.1766
10560TIP3    H153095   0.182   5.352  14.276 -2.2245 -1.1572 -0.8813
10560TIP3    H253096   0.256   5.416  14.161 -0.0479  0.7696  1.5544
10561TIP3   OH253097   2.760   3.629  14.657 -0.1931 -0.3847  0.2628
10561TIP3    H153098   2.814   3.550  14.655  2.0497  1.0864  0.8290
10561TIP3    H253099   2.762   3.658  14.748 -0.5862  0.5922 -0.0241
10562TIP3   OH253100   4.452   1.588  12.447 -0.1731  0.0773 -0.2735
10562TIP3    H153101   4.388   1.539  12.498  0.1181 -1.1366 -1.0457
10562TIP3    H253102   4.527   1.597  12.506 -0.1674 -0.5537 -0.1786
10563TIP3   OH253103   0.110   1.172   5.626  0.1417 -0.3672  0.0324
10563TIP3    H153104   0.117   1.260   5.661 -0.3683 -0.6804  0.9278
10563TIP3    H253105   0.036   1.176   5.566 -0.4190 -0.3978  0.7196
10564TIP3   OH253106   0.867   0.138   5.915  0.1906  0.0061 -0.1564
10564TIP3    H153107   0.784   0.114   5.872  0.3174  0.1103 -0.4596
10564TIP3    H253108   0.840   0.170   6.001 -0.3488  3.0431 -1.4080
10565TIP3   OH253109   0.014   3.801   0.625 -1.0346  0.5573 -0.0129
10565TIP3    H153110   0.080   3.752   0.576 -1.8570 -0.1242 -0.4589
10565TIP3    H253111  -0.021   3.864   0.561 -1.1919  0.5587  0.0757
10566TIP3   OH253112   0.038   2.064   4.940 -0.0181  0.1533 -0.3582
10566TIP3    H153113   0.095   1.987   4.951 -0.3257 -0.0997 -0.5308
10566TIP3    H253114   0.099   2.137   4.931  0.2664  0.1066  1.0988
10567TIP3   OH253115   3.938   0.187   3.961  0.3536 -0.2008 -0.7820
10567TIP3    H153116   3.878   0.155   3.894 -0.2034 -1.1214  0.1361
10567TIP3    H253117   3.883   0.236   4.021  0.5513 -0.8154 -0.0853
10568TIP3   OH253118   0.970   0.259  10.737 -0.3431  0.1051 -0.2534
10568TIP3    H153119   0.898   0.196  10.737  0.7163 -1.1592 -3.1460
10568TIP3    H253120   1.049   0.206  10.730  0.6066  1.6777 -2.1551
10569TIP3   OH253121   4.624   6.305  12.597  0.2545  0.2796 -0.2653
10569TIP3    H153122   4.570   6.314  12.518  1.4454  1.1915 -0.9914
10569TIP3    H253123   4.581   6.236  12.648  0.6991 -1.9194 -2.7368
10570TIP3   OH253124   3.600   4.448   2.684 -0.6603  0.5975  0.6190
10570TIP3    H153125   3.691   4.447   2.655 -0.0289  2.8613  2.3392
10570TIP3    H253126   3.555   4.385   2.627  1.6779  0.5417 -1.2147
10571TIP3   OH253127   5.808   0.648   3.845 -1.1187  0.7285  0.6322
10571TIP3    H153128   5.774   0.653   3.755 -0.5450 -1.4875  0.2716
10571TIP3    H253129   5.735   0.676   3.900 -2.1149  0.2013 -0.4080
10572TIP3   OH253130   0.197   2.181  11.299 -0.2171  0.4087 -0.1569
10572TIP3    H153131   0.164   2.203  11.212 -0.6323  0.3000 -0.0255
10572TIP3    H253132   0.228   2.090  11.290  0.2114  0.5689 -0.3259
10573TIP3   OH253133   4.280   0.608  15.182 -0.6189 -0.1395 -0.7870
10573TIP3    H153134   4.207   0.666  15.160  0.4124  1.2588 -0.6030
10573TIP3    H253135   4.250   0.559  15.259 -2.4110 -1.6036 -2.3535
10574TIP3   OH253136   4.019   6.375  11.853 -0.3154  0.1428 -0.0293
10574TIP3    H153137   4.108   6.385  11.886 -1.2624  0.6346  2.4783
10574TIP3    H253138   3.978   6.311  11.911 -2.0073  0.9633 -0.2632
10575TIP3   OH253139   5.532   6.163   4.454 -0.1344  0.3391  0.1198
10575TIP3    H153140   5.552   6.070   4.467  0.4172  0.2259 -1.4228
10575TIP3    H253141   5.473   6.164   4.378  0.8096  1.3281 -0.6276
10576TIP3   OH253142   4.122   3.089   2.690 -0.2183 -0.6928  0.0115
10576TIP3    H153143   4.145   3.086   2.782  1.0982 -0.8452 -0.3153
10576TIP3    H253144   4.068   3.012   2.675  2.4160 -2.5715 -0.0969
10577TIP3   OH253145   5.556   2.441  13.530  0.1706  0.0672 -0.4363
10577TIP3    H153146   5.560   2.347  13.547  0.3397  0.1781  0.1499
10577TIP3    H253147   5.631   2.458  13.473  1.0925  0.1145  0.7663
10578TIP3   OH253148   3.915   1.886  14.429  0.0631 -0.3013 -0.1230
10578TIP3    H153149   3.918   1.792  14.412 -2.3767 -0.1394 -1.5545
10578TIP3    H253150   3.917   1.893  14.525  1.0203 -1.7473 -0.0140
10579TIP3   OH253151   1.089   5.274  15.566  0.3556 -0.0355 -0.2089
10579TIP3    H153152   1.168   5.224  15.544  1.1327  0.9193  0.3854
10579TIP3    H253153   1.019   5.230  15.518  1.3916 -0.3295 -1.4844
10580TIP3   OH253154   3.294   2.017  13.245 -0.3087  0.0482  0.5411
10580TIP3    H153155   3.261   2.102  13.274 -1.2481  0.5696 -1.9517
10580TIP3    H253156   3.264   1.956  13.312 -2.0222  1.2656  0.9227
10581TIP3   OH253157   1.145   4.751  11.986  0.2576  0.1427  0.4877
10581TIP3    H153158   1.056   4.716  11.992 -0.0127  0.6920 -0.2172
10581TIP3    H253159   1.200   4.685  12.027 -0.4721 -0.2270  0.8804
10582TIP3   OH253160   2.669   4.724  15.997 -0.7361 -0.2112  0.0760
10582TIP3    H153161   2.649   4.801  15.945 -2.3180  0.2272  1.2849
10582TIP3    H253162   2.756   4.741  16.034 -0.7275  0.6163 -0.3260
10583TIP3   OH253163   6.639   1.250   0.008  0.3351 -0.0677  0.3911
10583TIP3    H153164   6.615   1.342   0.002  0.6774  0.0785  1.1702
10583TIP3    H253165   6.681   1.230  -0.075  1.5824  0.8639  0.7938
10584TIP3   OH253166   2.908   2.381  16.505  0.1883  0.3562 -0.0888
10584TIP3    H153167   2.863   2.305  16.467 -0.0169 -0.6644  2.1036
10584TIP3    H253168   2.854   2.406  16.580  1.1607  1.6051  0.1999
10585TIP3   OH253169   5.917   3.149   0.832  0.1252 -0.5259 -0.0874
10585TIP3    H153170   5.894   3.241   0.826  1.4690 -0.1253  0.7245
10585TIP3    H253171   6.010   3.149   0.854  0.1019 -2.0748  0.0572
10586TIP3   OH253172   3.983   5.624  14.473 -0.2735  0.3266  0.2138
10586TIP3    H153173   3.983   5.692  14.405 -2.2437  0.5043  0.3722
10586TIP3    H253174   3.900   5.578  14.460 -0.7982  0.5494  2.6939
10587TIP3   OH253175   3.493   2.413  13.883  0.1181 -0.2501 -0.0639
10587TIP3    H153176   3.565   2.458  13.840 -0.7799 -0.5231 -1.9531
10587TIP3    H253177   3.483   2.332  13.833  0.9150 -1.9986  2.5080
10588TIP3   OH253178   0.028   5.850  13.750  0.2458 -0.1404  0.4805
10588TIP3    H153179   0.018   5.775  13.809  1.4390 -0.2467  0.5577
10588TIP3    H253180  -0.021   5.920  13.793 -0.6896 -0.8062  0.5164
10589TIP3   OH253181   2.136   0.377   4.627  0.1568  0.8043 -0.1533
10589TIP3    H153182   2.053   0.398   4.584  0.0034  0.5925  0.0350
10589TIP3    H253183   2.192   0.346   4.556 -0.2382  0.0426 -0.1466
10590TIP3   OH253184   2.105   3.864   5.417  0.0826 -0.1184  0.0033
10590TIP3    H153185   2.173   3.796   5.417  1.1721  0.9232 -1.7088
10590TIP3    H253186   2.109   3.902   5.504  0.4292 -1.3037  0.5197
10591TIP3   OH253187   1.067   5.117  12.815 -0.2446 -0.0279 -0.1914
10591TIP3    H153188   0.990   5.059  12.820 -1.1995  0.9872 -2.3834
10591TIP3    H253189   1.030   5.204  12.801  1.2235  0.9674  1.8746
10592TIP3   OH253190   2.069   2.592   2.108  0.4933 -0.0538  0.4560
10592TIP3    H153191   2.113   2.509   2.127  2.7386  1.5077  2.2999
10592TIP3    H253192   1.991   2.591   2.164  1.3183 -0.2509  1.5966
10593TIP3   OH253193   3.103   2.248   6.164 -0.2312  0.4073  0.5985
10593TIP3    H153194   3.042   2.245   6.237  1.0816  1.0170  1.7367
10593TIP3    H253195   3.101   2.340   6.136  0.2061  0.4408  0.6775
10594TIP3   OH253196   5.230   1.850  15.525 -0.4805  0.3065 -0.1006
10594TIP3    H153197   5.281   1.799  15.588  2.3694 -0.0602 -2.5541
10594TIP3    H253198   5.152   1.798  15.508  0.0346 -0.8671  1.0910
10595TIP3   OH253199   4.959   3.206  13.695 -0.4006  0.2818 -0.2894
10595TIP3    H153200   5.047   3.232  13.724 -0.2926  0.7911 -1.0559
10595TIP3    H253201   4.944   3.258  13.617 -0.6866 -1.0785 -1.1509
10596TIP3   OH253202   4.037   1.652  16.043  0.6203 -0.1892 -0.3852
10596TIP3    H153203   4.068   1.579  15.990  1.9798  0.5718 -0.6715
10596TIP3    H253204   3.994   1.710  15.981  1.2367  0.1678 -0.4861
10597TIP3   OH253205   0.912   2.368  15.896 -0.3097  0.5869 -0.0177
10597TIP3    H153206   0.883   2.389  15.807  0.8711  0.8391 -0.3528
10597TIP3    H253207   0.930   2.274  15.894 -1.9086  0.2437  0.4356
10598TIP3   OH253208   3.537   6.606   0.833 -0.0801  0.3984 -0.3019
10598TIP3    H153209   3.624   6.641   0.815 -0.0674  0.7898  0.4715
10598TIP3    H253210   3.524   6.537   0.768  0.7569  0.4163 -0.4903
10599TIP3   OH253211   1.549   0.983   3.184 -0.4396  0.2571 -0.1435
10599TIP3    H153212   1.507   0.958   3.266  1.1624  2.6728  1.4632
10599TIP3    H253213   1.625   0.925   3.177 -1.0575 -0.5373 -0.3884
10600TIP3   OH253214   1.940   4.850  16.395 -0.2878 -0.1411  0.6324
10600TIP3    H153215   2.028   4.864  16.431  0.6961 -2.5267 -0.7038
10600TIP3    H253216   1.948   4.873  16.303 -1.0395 -0.4905  0.4832
10601TIP3   OH253217   5.680   5.700  15.278  0.1981  0.5447 -0.0224
10601TIP3    H153218   5.598   5.717  15.232  0.4494  1.0816 -0.2767
10601TIP3    H253219   5.684   5.604  15.285  0.1760  0.4539 -1.1578
10602TIP3   OH253220   4.437   6.185   0.933  0.4565 -0.2183  0.2721
10602TIP3    H153221   4.474   6.238   1.003 -0.1495 -0.6194  0.9015
10602TIP3    H253222   4.354   6.227   0.912  0.2326 -0.5969  0.3938
10603TIP3   OH253223   5.099   3.222  12.665 -0.5997  0.1419  0.3935
10603TIP3    H153224   5.190   3.222  12.638 -0.5334  0.7226  0.5955
10603TIP3    H253225   5.083   3.133  12.696 -0.6101 -0.4539 -1.2825
10604TIP3   OH253226   4.116   3.370  12.044  0.1241 -0.1167 -0.0577
10604TIP3    H153227   4.085   3.306  12.107  0.4184 -0.0561  0.1489
10604TIP3    H253228   4.201   3.337  12.016  0.4839  0.4223  0.3973
10605TIP3   OH253229   6.667   5.221  15.516  0.3878 -0.5065  1.1007
10605TIP3    H153230   6.746   5.271  15.534 -0.3944 -0.2537  4.0672
10605TIP3    H253231   6.679   5.139  15.563 -0.6201 -0.9389  0.6285
10606TIP3   OH253232   5.244   0.653   0.837 -0.1037 -0.0367  0.3731
10606TIP3    H153233   5.245   0.645   0.933 -1.5157  1.9891  0.5882
10606TIP3    H253234   5.163   0.702   0.819 -0.3776 -1.3067 -1.9265
10607TIP3   OH253235   6.257   2.818  16.037 -0.5241  0.4142  0.2222
10607TIP3    H153236   6.205   2.865  16.102 -0.2401  0.8598  0.1229
10607TIP3    H253237   6.344   2.859  16.041 -0.4340  0.2704 -0.2556
10608TIP3   OH253238   3.900   1.341   5.338  0.1056  0.1140 -0.2197
10608TIP3    H153239   3.804   1.341   5.339  0.0794  1.3365 -1.2643
10608TIP3    H253240   3.923   1.430   5.312  1.5424  0.1236  1.0534
10609TIP3   OH253241   3.297   4.096  12.755 -0.4734 -0.5360 -0.3153
10609TIP3    H153242   3.334   4.063  12.672 -0.3831  1.0626 -0.9319
10609TIP3    H253243   3.372   4.096  12.815 -0.4464 -1.3314 -0.3468
10610TIP3   OH253244   6.112   2.245   2.661 -0.1596 -0.0304 -0.5769
10610TIP3    H153245   6.175   2.258   2.732 -0.1803  2.0862 -0.9178
10610TIP3    H253246   6.162   2.198   2.594  0.2769 -0.7408  0.2330
10611TIP3   OH253247   4.822   4.887   3.718 -0.2354 -0.0826  0.5185
10611TIP3    H153248   4.853   4.830   3.788  0.1667  0.8051  1.0793
10611TIP3    H253249   4.731   4.906   3.741 -0.0678  0.3051  0.8673
10612TIP3   OH253250   0.071   2.252   0.958  0.7722  0.0577 -0.1025
10612TIP3    H153251   0.016   2.328   0.973 -0.4323 -0.9772  0.8394
10612TIP3    H253252   0.105   2.264   0.869 -0.0497  1.2753 -0.2634
10613TIP3   OH253253   4.098   6.594  16.877  0.4361 -0.5781 -0.4063
10613TIP3    H153254   4.046   6.625  16.951  1.3478 -1.0220  0.4441
10613TIP3    H253255   4.034   6.558  16.816 -0.1919 -2.3321  1.2012
10614TIP3   OH253256   1.587   5.106  15.395 -0.2105  0.0944 -0.9394
10614TIP3    H153257   1.609   5.043  15.326  1.1076 -0.9260  0.3736
10614TIP3    H253258   1.672   5.129  15.434 -1.0696 -0.7389  1.5195
10615TIP3   OH253259   2.006   2.146   1.272 -0.1731  0.2454  0.3310
10615TIP3    H153260   2.071   2.108   1.213  0.2581 -0.3135  1.1554
10615TIP3    H253261   2.029   2.112   1.358 -0.5511  1.3730  0.8909
10616TIP3   OH253262   5.692   2.760   0.798  0.3271 -0.4542 -0.1220
10616TIP3    H153263   5.659   2.783   0.711 -0.3662 -2.1136 -0.3347
10616TIP3    H253264   5.675   2.837   0.852 -2.0702 -0.4970 -0.7290
10617TIP3   OH253265   4.206   5.978  14.891  0.2525  0.0931 -0.0443
10617TIP3    H153266   4.285   6.014  14.931  2.3129 -1.2629 -2.7452
10617TIP3    H253267   4.145   5.967  14.964  2.1099  2.2601  1.9123
10618TIP3   OH253268   5.931   1.092   3.755 -0.1912 -0.0153  0.2064
10618TIP3    H153269   5.857   1.066   3.810  0.4391  0.4038  1.2738
10618TIP3    H253270   6.007   1.086   3.813  0.4821  0.4778 -0.6140
10619TIP3   OH253271   4.275   3.281   0.498 -0.2022  0.2155  0.4770
10619TIP3    H153272   4.300   3.281   0.590 -2.5404  0.3916  1.1436
10619TIP3    H253273   4.195   3.333   0.495 -1.0455 -1.1366 -1.3841
10620TIP3   OH253274   6.436   3.770   0.630 -0.1954  0.2966  0.2775
10620TIP3    H153275   6.475   3.799   0.547 -1.0298  1.5641  0.3096
10620TIP3    H253276   6.472   3.829   0.695  1.2958 -1.3882  1.0005
10621TIP3   OH253277   5.702   5.869  16.950  0.1214  0.1722 -0.8598
10621TIP3    H153278   5.766   5.815  16.997 -0.3203 -0.0152 -0.4682
10621TIP3    H253279   5.625   5.813  16.941  0.2369  0.1648 -1.9219
10622TIP3   OH253280   3.302   4.748   3.706  0.4450  0.3713 -0.7537
10622TIP3    H153281   3.291   4.767   3.799  0.2347  0.1141 -0.7272
10622TIP3    H253282   3.213   4.750   3.670  0.5361  0.5991 -0.9761
10623TIP3   OH253283   2.216   4.789   1.192  0.4790 -0.2726  0.1847
10623TIP3    H153284   2.123   4.811   1.181 -0.3299 -2.1282  2.7825
10623TIP3    H253285   2.255   4.867   1.232  0.4007  1.0772 -2.2942
10624TIP3   OH253286   3.117   0.404   3.018  0.3473  0.0735  0.0557
10624TIP3    H153287   3.111   0.500   3.015 -1.1718  0.0127  0.8471
10624TIP3    H253288   3.027   0.375   3.029  0.8018 -1.4608 -0.2145
10625TIP3   OH253289   5.915   6.417   0.682  0.2837  0.1478  0.5051
10625TIP3    H153290   5.832   6.462   0.697  0.1971  0.5460 -1.0833
10625TIP3    H253291   5.972   6.483   0.643  1.5985  0.0799  2.2422
10626TIP3   OH253292   4.861   1.088  17.088  0.1881  0.0006 -0.2342
10626TIP3    H153293   4.948   1.127  17.092  0.0065  0.4180 -0.2697
10626TIP3    H253294   4.820   1.128  17.012 -0.3289  0.4351  0.2675
10627TIP3   OH253295   6.628   6.383  12.810 -0.0180 -0.1393 -0.2039
10627TIP3    H153296   6.653   6.293  12.792  1.3408  0.4422 -1.2668
10627TIP3    H253297   6.704   6.421  12.855 -0.4335  0.5891 -0.1031
10628TIP3   OH253298   2.727   1.167   2.991  0.0283  0.2015 -0.0802
10628TIP3    H153299   2.656   1.191   3.050 -0.3154 -0.6434 -0.1466
10628TIP3    H253300   2.685   1.162   2.905  0.3857  0.7457 -0.2896
10629TIP3   OH253301   5.166   0.541   5.726 -0.2884  0.0405  0.4507
10629TIP3    H153302   5.241   0.597   5.705 -0.9303  0.8758  0.3403
10629TIP3    H253303   5.162   0.542   5.822 -1.2897  1.5548  0.4194
10630TIP3   OH253304   6.253   3.655   1.434 -0.3732  0.1894 -0.2232
10630TIP3    H153305   6.332   3.602   1.439 -0.6177 -0.4337 -2.3737
10630TIP3    H253306   6.212   3.630   1.351 -1.4839  2.3686 -0.3905
10631TIP3   OH253307   2.267   4.584  14.439  0.4823 -0.0661 -0.4238
10631TIP3    H153308   2.267   4.540  14.354  0.2260  1.2166 -1.0990
10631TIP3    H253309   2.194   4.646  14.434  0.3188 -0.1412  0.8175
10632TIP3   OH253310   2.833   2.323   4.007  0.1651 -0.1486  0.2813
10632TIP3    H153311   2.928   2.321   4.021  0.2443 -0.5413 -0.2809
10632TIP3    H253312   2.797   2.272   4.080  0.3055  0.8537  1.0683
10633TIP3   OH253313   0.111   5.925  14.867  0.4966 -0.3402 -0.1356
10633TIP3    H153314   0.199   5.890  14.857  0.1746 -1.1143 -0.2768
10633TIP3    H253315   0.057   5.873  14.807  0.7211  3.1110 -3.5142
10634TIP3   OH253316   4.033   3.928  12.467  0.1633  0.1905 -0.1955
10634TIP3    H153317   4.031   3.833  12.477 -0.6112 -0.2817 -3.8930
10634TIP3    H253318   4.086   3.943  12.388 -1.2933  2.6708 -0.7747
10635TIP3   OH253319   0.979   5.957  15.996 -0.5437  0.0370 -0.5957
10635TIP3    H153320   0.891   5.921  16.002 -0.5813  0.1241 -0.6242
10635TIP3    H253321   0.981   6.025  16.063 -0.4061 -0.1568 -0.4058
10636TIP3   OH253322   2.460   1.546  12.527  0.5172  0.2063  0.1186
10636TIP3    H153323   2.379   1.535  12.577  1.6097  1.8806  2.3584
10636TIP3    H253324   2.465   1.641  12.510  1.1042 -0.1028 -1.5881
10637TIP3   OH253325   1.901   3.052  12.024  0.0065  0.5827  0.4077
10637TIP3    H153326   1.907   3.011  12.110  1.6066 -0.8578 -0.3449
10637TIP3    H253327   1.977   3.018  11.976 -1.3202  0.6822 -1.8574
10638TIP3   OH253328   6.623   3.612   1.030 -0.3219  0.4944  0.6064
10638TIP3    H153329   6.627   3.689   0.973 -1.2788  1.0989  1.3546
10638TIP3    H253330   6.532   3.606   1.057 -0.1912 -0.7126  0.8292
10639TIP3   OH253331   2.466   2.235   1.041 -0.2691  0.2344  0.5258
10639TIP3    H153332   2.513   2.291   1.102 -0.0485 -2.7941  3.2437
10639TIP3    H253333   2.530   2.216   0.972  0.5829  0.8605  1.1295
10640TIP3   OH253334   0.826   5.712  11.154  0.5318  0.0027  0.3122
10640TIP3    H153335   0.826   5.746  11.243  0.7714  0.9657 -0.0475
10640TIP3    H253336   0.887   5.769  11.106  0.5522 -0.6196 -0.4209
10641TIP3   OH253337   1.702   5.244  16.215  0.2769  0.0964  0.5761
10641TIP3    H153338   1.622   5.192  16.210  0.4149  0.0137 -0.9422
10641TIP3    H253339   1.764   5.189  16.262  0.4819 -1.2173 -1.1926
10642TIP3   OH253340   1.191   6.742  14.460  0.1909  0.6414  0.2596
10642TIP3    H153341   1.199   6.815  14.399 -1.1158  0.2065 -0.4512
10642TIP3    H253342   1.214   6.779  14.545  0.3943  1.6571 -0.2360
10643TIP3   OH253343   4.675   3.341  13.633 -0.0559 -0.3075  0.3227
10643TIP3    H153344   4.679   3.265  13.575 -0.3828 -0.8395  0.9986
10643TIP3    H253345   4.665   3.415  13.574 -0.6437 -0.8741 -0.2946
10644TIP3   OH253346   5.721   4.991  16.789  0.1214 -0.4011  0.2522
10644TIP3    H153347   5.654   5.031  16.846  0.0684 -0.1867  0.0414
10644TIP3    H253348   5.792   4.968  16.848 -0.1043 -0.5517  0.4661
10645TIP3   OH253349   4.595   6.169  15.928 -0.0368  0.1776  0.6314
10645TIP3    H153350   4.514   6.219  15.934  0.6156  1.4453 -0.7261
10645TIP3    H253351   4.581   6.110  15.853  0.8962  1.5856 -0.6848
10646TIP3   OH253352   3.172   2.004   0.680 -0.3393  1.0561  0.0229
10646TIP3    H153353   3.098   1.999   0.740 -1.3906  0.0319 -1.3193
10646TIP3    H253354   3.214   1.918   0.686 -0.5317  0.8971 -0.8022
10647TIP3   OH253355   4.698   1.630  14.079  0.1772 -0.6110 -0.0113
10647TIP3    H153356   4.624   1.605  14.024  0.7478  2.0051 -2.1005
10647TIP3    H253357   4.658   1.675  14.153 -0.4674 -1.7647  0.3494
10648TIP3   OH253358   0.056   3.224  13.474 -0.5538  0.2009  0.3026
10648TIP3    H153359   0.008   3.182  13.546  0.1159  1.9091  1.7958
10648TIP3    H253360  -0.006   3.289  13.439 -0.4041  0.3100  0.2413
10649TIP3   OH253361   5.109   3.257  13.994  0.0754 -0.1012 -0.0210
10649TIP3    H153362   5.156   3.340  13.984  0.0720 -0.0896  0.0554
10649TIP3    H253363   5.017   3.282  13.993  0.0226 -0.2872 -1.6846
10650TIP3   OH253364   0.249   6.030  13.686  0.7712  0.2974  0.2869
10650TIP3    H153365   0.224   6.110  13.732  1.3036 -0.9438  2.8100
10650TIP3    H253366   0.179   5.968  13.708  0.3106  0.0525 -1.7288
10651TIP3   OH253367   0.737   6.076   6.040  0.3697  0.1944  0.1489
10651TIP3    H153368   0.762   6.026   6.117  0.1163 -0.6083 -0.2885
10651TIP3    H253369   0.803   6.146   6.034  0.3598  0.2879  1.1117
10652TIP3   OH253370   0.538   6.193  11.261  0.5318  0.1127  0.2417
10652TIP3    H153371   0.612   6.194  11.201 -0.7097  0.2000 -1.2998
10652TIP3    H253372   0.461   6.199  11.205 -0.6552 -0.0892  1.8191
10653TIP3   OH253373   2.048   2.769   0.536 -0.0823 -0.8446 -0.2825
10653TIP3    H153374   2.002   2.698   0.581 -0.2286 -0.8222 -0.3991
10653TIP3    H253375   2.128   2.729   0.503  0.1335 -0.8114  0.1934
10654TIP3   OH253376   0.072   0.280  14.431  0.3821  0.0352 -0.1183
10654TIP3    H153377   0.009   0.317  14.493 -0.9566  0.8772 -1.9288
10654TIP3    H253378   0.082   0.189  14.460  0.2076  0.5509  1.6390
10655TIP3   OH253379   0.719   1.026  17.009  1.1224 -0.3412  0.9561
10655TIP3    H153380   0.632   1.012  17.046  1.1823 -0.1772  1.1635
10655TIP3    H253381   0.755   1.099  17.060  0.9476  0.3282  0.1266
10656TIP3   OH253382   1.947   3.304  13.371 -0.4036 -0.0373  0.2049
10656TIP3    H153383   1.987   3.239  13.313 -2.2447  0.8266 -2.1416
10656TIP3    H253384   1.988   3.387  13.346  1.6134 -0.1904  2.8794
10657TIP3   OH253385   2.411   2.812   5.491  0.6021 -0.1507  0.1746
10657TIP3    H153386   2.444   2.804   5.580  0.8321  0.3885  0.1388
10657TIP3    H253387   2.416   2.723   5.456 -0.1800 -0.5053  0.9412
10658TIP3   OH253388   5.411   5.712  12.340 -0.1002 -0.4433 -0.2061
10658TIP3    H153389   5.323   5.696  12.306 -0.2355 -0.1763  0.0224
10658TIP3    H253390   5.432   5.632  12.389 -1.9395  1.2246  3.4004
10659TIP3   OH253391   3.022   1.690  13.014 -0.2236 -0.1308  0.1511
10659TIP3    H153392   3.041   1.645  13.096  1.2142  1.2721  0.6121
10659TIP3    H253393   2.931   1.668  12.995 -1.2230  1.1398  3.2033
10660TIP3   OH253394   4.334   2.872   5.695 -0.0873  0.2056 -0.3760
10660TIP3    H153395   4.296   2.836   5.615  1.4211  0.2934 -1.1537
10660TIP3    H253396   4.314   2.808   5.763 -1.8563  0.3909 -0.7104
10661TIP3   OH253397   5.144   2.884   4.610  0.3473  0.5636  0.2081
10661TIP3    H153398   5.121   2.915   4.697 -2.0814 -0.2075 -0.1098
10661TIP3    H253399   5.163   2.963   4.560 -0.7959  1.2140  0.7731
10662TIP3   OH253400   3.355   3.744   3.676  0.2788  0.0565 -0.2741
10662TIP3    H153401   3.378   3.783   3.760  2.6489  0.5975 -1.1544
10662TIP3    H253402   3.346   3.650   3.694  1.3578  0.0927  0.4509
10663TIP3   OH253403   2.783   6.579  15.876 -0.2872 -0.0235 -0.4109
10663TIP3    H153404   2.733   6.650  15.836  0.1563 -0.2647 -1.4278
10663TIP3    H253405   2.721   6.506  15.881 -0.2049 -0.1499 -1.1500
10664TIP3   OH253406   4.224   1.423  12.518 -0.0867  0.0273  0.3681
10664TIP3    H153407   4.229   1.454  12.427 -1.1164  2.2436  1.0230
10664TIP3    H253408   4.134   1.391  12.527 -0.7127  1.9332  1.2110
10665TIP3   OH253409   2.059   4.824   4.572  0.3966  0.1266  0.2778
10665TIP3    H153410   2.020   4.905   4.539  0.8202  0.1540 -0.1575
10665TIP3    H253411   2.154   4.838   4.565  0.4667 -0.5702 -0.1877
10666TIP3   OH253412   6.542   3.999  13.210 -0.0850 -0.2568  0.2940
10666TIP3    H153413   6.448   3.986  13.199 -0.3136  2.1342 -1.0956
10666TIP3    H253414   6.569   4.042  13.129  2.3006 -1.3686  0.4840
10667TIP3   OH253415   6.249   2.179  12.405 -0.4935  0.1134  0.3270
10667TIP3    H153416   6.319   2.123  12.439  0.1865  0.3726 -0.6089
10667TIP3    H253417   6.199   2.122  12.347 -2.6072 -0.7624  2.8935
10668TIP3   OH253418   2.020   6.126   3.253  0.2331  0.2754 -0.2480
10668TIP3    H153419   2.082   6.085   3.194 -0.0401 -0.5257  0.0147
10668TIP3    H253420   1.966   6.054   3.286 -1.4480  1.0678 -1.1960
10669TIP3   OH253421   6.645   4.006   2.142  0.4590 -0.3885 -0.3406
10669TIP3    H153422   6.610   4.045   2.222 -0.5658  0.3237 -1.1325
10669TIP3    H253423   6.706   4.072   2.108 -0.1839 -0.0848 -0.9081
10670TIP3   OH253424   0.026   6.310  14.804 -0.4880 -0.3916 -0.2072
10670TIP3    H153425   0.017   6.364  14.882 -0.0336  0.6264 -0.8612
10670TIP3    H253426  -0.061   6.311  14.764 -0.8207 -1.2265  0.4829
10671TIP3   OH253427   2.027   5.338   3.352 -0.6405  0.4393  0.4104
10671TIP3    H153428   2.019   5.270   3.285  2.0808  1.6073 -1.2002
10671TIP3    H253429   2.105   5.313   3.402 -0.8160  1.2769  1.1218
10672TIP3   OH253430   0.165   3.711  16.755  0.3873 -0.4363 -0.3989
10672TIP3    H153431   0.186   3.621  16.780  1.0283 -0.0940  0.3091
10672TIP3    H253432   0.175   3.713  16.660  2.4409 -0.5863 -0.2124
10673TIP3   OH253433   5.312   3.078  13.947  0.0292 -0.3240 -0.2585
10673TIP3    H153434   5.387   3.118  13.990  1.5083 -0.1751 -2.8826
10673TIP3    H253435   5.237   3.129  13.977  1.4787  2.2334 -0.8663
10674TIP3   OH253436   2.343   1.050  16.625 -0.1741 -0.2948 -0.1403
10674TIP3    H153437   2.279   1.070  16.694  0.7938 -0.6311  0.8542
10674TIP3    H253438   2.334   1.123  16.563 -1.2016 -0.1085  0.2159
10675TIP3   OH253439   2.886   2.561   3.685  0.2840 -0.3773  0.3240
10675TIP3    H153440   2.950   2.496   3.655  0.0777 -0.1691 -0.5852
10675TIP3    H253441   2.824   2.568   3.612 -0.1672  0.2190  0.7657
10676TIP3   OH253442   6.567   0.124  14.446  0.1681  0.4307 -0.1846
10676TIP3    H153443   6.516   0.112  14.527 -0.4322  0.5843 -0.5319
10676TIP3    H253444   6.503   0.111  14.376  0.3637  1.7095 -0.6141
10677TIP3   OH253445   2.773   6.294  16.947  0.1022 -0.4551 -0.0976
10677TIP3    H153446   2.707   6.358  16.920  1.1358  0.4210 -0.6113
10677TIP3    H253447   2.821   6.338  17.017  0.3882 -0.9339  0.0040
10678TIP3   OH253448   4.417   5.228  13.723 -0.1517 -0.2200 -0.1423
10678TIP3    H153449   4.491   5.288  13.714  0.9892 -1.5212  0.2903
10678TIP3    H253450   4.339   5.284  13.722  0.8924  1.2567  0.4126
10679TIP3   OH253451   6.158   3.018  15.828 -0.3157  0.0592 -0.0699
10679TIP3    H153452   6.125   2.962  15.757 -0.3341  0.6663 -0.5528
10679TIP3    H253453   6.226   2.967  15.870 -0.2750 -0.2967 -0.5613
10680TIP3   OH253454   3.390   0.416   5.328  0.2511  0.4190 -0.0509
10680TIP3    H153455   3.481   0.393   5.307 -0.0581 -0.8745 -0.0438
10680TIP3    H253456   3.374   0.497   5.280  1.5024  0.8116  0.1767
10681TIP3   OH253457   6.354   6.123  11.951 -0.4824  0.4994  0.8461
10681TIP3    H153458   6.381   6.041  11.909 -2.1565 -0.4547  1.5864
10681TIP3    H253459   6.397   6.121  12.037 -1.4374 -0.1690  1.3186
10682TIP3   OH253460   0.245   4.877   2.925 -0.5307  0.1850  0.1715
10682TIP3    H153461   0.260   4.805   2.986  0.2943  1.3053  1.3500
10682TIP3    H253462   0.215   4.949   2.981  0.0431  1.1768 -0.7636
10683TIP3   OH253463   2.680   5.845   3.300  0.6299  0.1255 -0.6850
10683TIP3    H153464   2.588   5.824   3.282  0.9365 -2.0265  0.1579
10683TIP3    H253465   2.708   5.895   3.223 -0.6965 -0.9168 -1.8731
10684TIP3   OH253466   6.546   3.808  11.286 -0.7787 -0.1314  0.3005
10684TIP3    H153467   6.467   3.816  11.339 -0.4215 -0.4195  0.8726
10684TIP3    H253468   6.576   3.718  11.302 -1.7499 -0.8865 -1.8711
10685TIP3   OH253469   0.585   0.077  11.768  0.3420  0.0060 -0.5665
10685TIP3    H153470   0.560   0.001  11.820 -1.4514  0.7674 -0.2691
10685TIP3    H253471   0.623   0.041  11.688 -1.7855 -1.2069 -1.0451
10686TIP3   OH253472   5.858   1.477   0.877 -0.0915 -0.3953  0.0313
10686TIP3    H153473   5.775   1.519   0.899  0.0236 -1.0932  1.8932
10686TIP3    H253474   5.833   1.403   0.821 -0.4367  1.1815 -1.9081
10687TIP3   OH253475   6.495   0.671   0.584  0.1600 -0.2261  0.0762
10687TIP3    H153476   6.499   0.586   0.627  0.0815 -0.7100 -0.8593
10687TIP3    H253477   6.522   0.654   0.494  2.3911  1.1574  0.4559
10688TIP3   OH253478   0.004   6.655  11.509 -0.3621 -0.0868  0.0159
10688TIP3    H153479  -0.038   6.611  11.583  0.5378 -0.5755  0.2548
10688TIP3    H253480  -0.065   6.706  11.468 -0.6852  0.8321  1.6811
10689TIP3   OH253481   0.124   2.688   5.681 -0.2894  0.2856  0.0761
10689TIP3    H153482   0.076   2.662   5.603 -0.2219 -2.1777  0.8175
10689TIP3    H253483   0.215   2.668   5.662 -0.1177  0.7745  0.3528
10690TIP3   OH253484   0.723   5.402   3.213 -0.1876  0.0403 -0.4534
10690TIP3    H153485   0.650   5.349   3.246  1.2815 -1.2507  0.7767
10690TIP3    H253486   0.789   5.338   3.186  1.5667  1.2222  0.9211
10691TIP3   OH253487   3.704   1.301  12.522  0.1681 -0.5997 -0.0483
10691TIP3    H153488   3.638   1.362  12.489 -0.1758 -0.4218  0.9539
10691TIP3    H253489   3.748   1.269  12.443 -0.3811  0.1067 -0.6544
10692TIP3   OH253490   0.302   4.983   5.565 -0.4251  0.4293 -0.6952
10692TIP3    H153491   0.340   5.041   5.499  0.4546  0.9239  0.2387
10692TIP3    H253492   0.217   4.958   5.528  0.3396  0.1552 -2.3185
10693TIP3   OH253493   1.621   0.611   0.089 -0.4633 -0.4581  0.7620
10693TIP3    H153494   1.710   0.597   0.059 -0.3581  0.0042  0.8578
10693TIP3    H253495   1.586   0.679   0.031 -1.4279 -2.0595 -0.6053
10694TIP3   OH253496   0.583   2.761  15.797 -0.5619  0.0150 -0.0921
10694TIP3    H153497   0.608   2.711  15.719  0.6153  0.9116 -0.3103
10694TIP3    H253498   0.493   2.789  15.780  0.9693  3.6625 -3.0143
10695TIP3   OH253499   2.423   2.943   4.683 -0.6044 -0.2521  0.0534
10695TIP3    H153500   2.514   2.933   4.654 -0.5538  0.0370  0.1192
10695TIP3    H253501   2.383   2.997   4.615 -0.6868 -0.2436  0.1100
10696TIP3   OH253502   4.043   2.587   2.074  0.0311  0.1336  0.1225
10696TIP3    H153503   4.064   2.504   2.118  0.5204 -0.1667 -0.6596
10696TIP3    H253504   4.119   2.604   2.019 -0.5577  0.5253 -0.5724
10697TIP3   OH253505   5.249   2.996   3.299 -0.1955 -0.7074  0.3866
10697TIP3    H153506   5.246   2.985   3.204 -2.1441 -0.9464  0.4586
10697TIP3    H253507   5.314   2.933   3.329 -1.1225 -2.1642 -0.6016
10698TIP3   OH253508   1.477   4.398  14.005 -0.1363  0.5671 -0.3192
10698TIP3    H153509   1.505   4.393  13.914 -0.9277  1.4642 -0.6170
10698TIP3    H253510   1.441   4.311  14.023 -1.6937  0.9715 -1.4318
10699TIP3   OH253511   1.755   4.915   5.401  0.2028  0.6541  0.0315
10699TIP3    H153512   1.765   4.838   5.346  0.8350  0.2853  0.6531
10699TIP3    H253513   1.842   4.929   5.440 -0.0576  1.3165  0.3942
10700TIP3   OH253514   6.720   1.274   1.488  0.4241  0.2032  0.0228
10700TIP3    H153515   6.683   1.232   1.566 -0.3747 -0.3198 -0.6339
10700TIP3    H253516   6.788   1.213   1.458  0.0183 -0.1002 -0.2893
10701TIP3   OH253517   5.641   3.685   0.327  0.1203 -0.4085  0.4560
10701TIP3    H153518   5.716   3.719   0.374  1.3509 -0.5837 -1.3181
10701TIP3    H253519   5.647   3.590   0.336 -0.0439 -0.4117  0.5422
10702TIP3   OH253520   0.650   3.055  12.029  0.0844 -0.1951 -0.2041
10702TIP3    H153521   0.586   3.084  12.093  0.4228 -2.9428  1.4883
10702TIP3    H253522   0.695   3.135  12.001 -0.4341  1.1127  2.5994
10703TIP3   OH253523   4.383   6.049   3.524  0.4022 -0.5979 -0.1521
10703TIP3    H153524   4.471   6.063   3.489  0.2693 -2.3197 -1.2505
10703TIP3    H253525   4.381   5.956   3.546 -0.7593 -0.3154  1.0049
10704TIP3   OH253526   1.358   3.529   5.537  0.0546 -0.3513 -0.8261
10704TIP3    H153527   1.417   3.586   5.586 -0.9729  0.7906 -0.8795
10704TIP3    H253528   1.283   3.586   5.515 -1.3870 -1.9490 -0.1268
10705TIP3   OH253529   0.289   4.965  11.384  0.2924 -0.1438 -0.3313
10705TIP3    H153530   0.201   4.927  11.389  0.3284 -0.3523 -1.1190
10705TIP3    H253531   0.274   5.060  11.384  0.0830 -0.1774 -0.1444
10706TIP3   OH253532   2.892   2.990   6.453 -0.1630  0.6817  0.0203
10706TIP3    H153533   2.809   3.010   6.497  0.0661 -0.4858  1.0000
10706TIP3    H253534   2.932   2.922   6.507  1.2763  0.9816 -0.6450
10707TIP3   OH253535   4.188   1.471   5.792  0.2653  0.4589  0.2600
10707TIP3    H153536   4.106   1.454   5.744 -0.1164 -0.0757  1.1010
10707TIP3    H253537   4.256   1.450   5.728 -0.2330 -0.8952  0.1422
10708TIP3   OH253538   0.817   2.023   3.567 -0.1582  0.2951  0.3577
10708TIP3    H153539   0.732   2.029   3.610 -0.7679  1.9472 -1.0573
10708TIP3    H253540   0.865   2.100   3.597 -0.6266  1.5200 -1.9632
10709TIP3   OH253541   6.001   3.968   6.234  0.4227  0.8915 -0.2293
10709TIP3    H153542   5.986   3.874   6.235  0.3034  0.8751 -1.9427
10709TIP3    H253543   5.918   4.006   6.263 -0.7318  0.5585 -2.8843
10710TIP3   OH253544   4.087   0.252   3.355 -0.3129  0.5578 -0.5978
10710TIP3    H153545   4.086   0.283   3.264 -2.7522 -4.4962 -2.4457
10710TIP3    H253546   4.006   0.285   3.393 -1.2462 -0.6259 -1.5215
10711TIP3   OH253547   4.665   5.521   4.476 -0.3638  0.0658  0.0205
10711TIP3    H153548   4.751   5.532   4.435 -0.1676  0.3021  0.4904
10711TIP3    H253549   4.655   5.427   4.486 -0.6904 -0.0271 -1.1607
10712TIP3   OH253550   5.618   3.152  13.919  0.1977 -0.1507  0.1126
10712TIP3    H153551   5.654   3.074  13.960  1.6199  0.5362  0.1988
10712TIP3    H253552   5.635   3.141  13.825  0.0215 -0.1362  0.0783
10713TIP3   OH253553   6.316   4.089  16.468 -0.0921 -0.6113  0.1814
10713TIP3    H153554   6.395   4.139  16.483 -1.3136  1.5538 -0.4089
10713TIP3    H253555   6.264   4.099  16.548 -1.7534  1.7891 -1.1536
10714TIP3   OH253556   3.096   5.028   1.579  0.2997 -0.3406  0.1357
10714TIP3    H153557   3.083   5.112   1.623  1.2960  0.4254 -1.0015
10714TIP3    H253558   3.024   5.022   1.517  1.1434  0.4562 -0.9430
10715TIP3   OH253559   1.414   2.375  11.181 -0.4355  0.1631  0.6739
10715TIP3    H153560   1.470   2.374  11.104  1.2769 -0.8784  1.9131
10715TIP3    H253561   1.390   2.283  11.194 -0.3222  0.2731  1.6784
10716TIP3   OH253562   0.261   1.576   0.438  0.3442  0.2857  0.0212
10716TIP3    H153563   0.277   1.528   0.357  0.3781  0.4828 -0.0903
10716TIP3    H253564   0.331   1.548   0.497  0.8527  0.8214 -0.3213
10717TIP3   OH253565   5.554   3.913   2.154 -0.0127  0.0250 -0.0702
10717TIP3    H153566   5.552   3.829   2.199 -0.2751 -0.4502 -0.9690
10717TIP3    H253567   5.475   3.958   2.184  0.2227  0.0251  0.5516
10718TIP3   OH253568   0.710   1.849   1.152 -0.0190  0.3039  0.4773
10718TIP3    H153569   0.702   1.924   1.211 -1.3506 -0.1315  0.8834
10718TIP3    H253570   0.690   1.773   1.207  0.1957 -0.2390 -0.1873
10719TIP3   OH253571   3.551   4.719   4.117 -0.7416 -0.0117  0.0605
10719TIP3    H153572   3.508   4.786   4.171  0.1049 -0.7691  1.7063
10719TIP3    H253573   3.481   4.656   4.098 -1.1639  0.5164 -0.1593
10720TIP3   OH253574   6.768   1.273   0.262 -0.2013  0.0929  0.2816
10720TIP3    H153575   6.771   1.177   0.262 -0.8680  0.0665  0.5839
10720TIP3    H253576   6.718   1.296   0.184  0.0250  0.1956  0.1674
10721TIP3   OH253577   1.151   6.009  13.578  0.4445 -0.1197  0.4022
10721TIP3    H153578   1.213   6.040  13.643  0.2255 -1.0141  1.0459
10721TIP3    H253579   1.135   5.917  13.601 -1.4553  0.2169  0.5190
10722TIP3   OH253580   4.582   3.044   4.873 -0.0798 -0.1430  0.5491
10722TIP3    H153581   4.569   3.063   4.780  0.1194  0.7456  0.6945
10722TIP3    H253582   4.528   3.109   4.919 -1.5577 -1.6840  1.0398
10723TIP3   OH253583   1.141   4.962   5.086 -0.0289 -0.2617  0.0702
10723TIP3    H153584   1.082   4.890   5.065 -1.6771  0.9525  0.4431
10723TIP3    H253585   1.131   5.024   5.014  2.0231 -0.7554 -0.6861
10724TIP3   OH253586   5.701   3.232  16.684 -0.0926  0.2684 -0.4396
10724TIP3    H153587   5.638   3.221  16.755  0.3181  1.7497  0.1767
10724TIP3    H253588   5.785   3.208  16.723 -0.2031 -1.3878 -1.1691
10725TIP3   OH253589   4.200   2.064  16.471 -0.5495 -0.3902  0.0856
10725TIP3    H153590   4.223   1.987  16.524 -1.4925 -0.7699 -0.0433
10725TIP3    H253591   4.172   2.028  16.387 -4.4076 -0.1852  1.1748
10726TIP3   OH253592   4.040   1.395  15.917  0.1280  0.3811  0.0501
10726TIP3    H153593   4.062   1.327  15.981 -0.8469 -0.7888 -0.8212
10726TIP3    H253594   3.944   1.402  15.922  0.0538  0.3419 -1.2025
10727TIP3   OH253595   2.188   4.348   0.411 -0.2217  0.0789 -0.1557
10727TIP3    H153596   2.161   4.391   0.492  0.0620 -1.1195  0.5869
10727TIP3    H253597   2.193   4.419   0.346 -0.4303  1.0396  0.8702
10728TIP3   OH253598   4.597   3.747   5.084  0.2895  0.2165  0.1754
10728TIP3    H153599   4.582   3.723   5.175 -1.1983  0.1534 -0.0719
10728TIP3    H253600   4.687   3.720   5.066 -0.0753 -1.6508  1.0217
10729TIP3   OH253601   5.314   4.294   2.461  0.4570  0.0857  0.4027
10729TIP3    H153602   5.263   4.213   2.471 -0.4238  0.5124 -0.5794
10729TIP3    H253603   5.353   4.308   2.547  0.4977 -1.3116  0.6204
10730TIP3   OH253604   3.760   5.879  13.988  0.1710 -0.5369 -0.7830
10730TIP3    H153605   3.796   5.865  13.901  1.5145 -0.8764 -0.1801
10730TIP3    H253606   3.756   5.974  13.997 -0.4252 -0.5032 -1.3988
10731TIP3   OH253607   6.342   5.860   0.270  0.0685  0.3260  0.4513
10731TIP3    H153608   6.319   5.903   0.187  0.2395  0.9081  0.7074
10731TIP3    H253609   6.429   5.822   0.254  0.7450  1.6751  0.8219
10732TIP3   OH253610   1.321   1.678   0.843  0.4391 -0.2034  0.0405
10732TIP3    H153611   1.231   1.670   0.811  0.5512  0.2614 -0.3981
10732TIP3    H253612   1.375   1.667   0.765  0.7703 -0.5782  0.3185
10733TIP3   OH253613   0.692   5.054  14.900  0.6432  0.1698 -0.6561
10733TIP3    H153614   0.780   5.082  14.926  1.1913 -1.5007 -0.6459
10733TIP3    H253615   0.705   5.003  14.820 -0.0996 -1.5081  0.2624
10734TIP3   OH253616   0.872   6.349  13.066 -0.1957 -0.4401 -0.0041
10734TIP3    H153617   0.856   6.256  13.048 -0.1200 -0.4960  0.2128
10734TIP3    H253618   0.799   6.375  13.124 -0.7362 -0.1253 -0.8114
10735TIP3   OH253619   1.536   6.361   1.571  0.2709 -0.2299 -0.5801
10735TIP3    H153620   1.629   6.368   1.594 -0.2964 -1.4145  2.2854
10735TIP3    H253621   1.527   6.412   1.490  2.9080  2.1961  0.5652
10736TIP3   OH253622   4.727   2.445  13.083 -0.2018  0.0125  0.2113
10736TIP3    H153623   4.661   2.513  13.076  0.9092  1.0929  0.0124
10736TIP3    H253624   4.735   2.428  13.177 -1.4601 -0.8356  0.1729
10737TIP3   OH253625   6.423   3.021   6.428  0.4226  0.3599 -0.4491
10737TIP3    H153626   6.423   3.034   6.333  0.1149  2.2069 -0.2147
10737TIP3    H253627   6.330   3.022   6.452  0.4067 -1.7493 -0.3135
10738TIP3   OH253628   6.559   6.080  12.125  0.3676 -0.2958  0.4233
10738TIP3    H153629   6.553   6.143  12.197  3.6959 -0.9008  1.3168
10738TIP3    H253630   6.585   5.998  12.167  0.1494 -1.2428 -1.2416
10739TIP3   OH253631   1.779   5.502  11.180  0.1246 -0.2690 -0.1784
10739TIP3    H153632   1.839   5.463  11.242  0.3957  3.1138  1.8227
10739TIP3    H253633   1.731   5.568  11.230 -2.7659 -0.4262 -2.5508
10740TIP3   OH253634   5.301   6.481  12.051  0.0100 -0.4510 -0.8412
10740TIP3    H153635   5.256   6.485  12.135  0.3442 -2.4796 -0.5515
10740TIP3    H253636   5.231   6.468  11.986 -0.1961  0.6112 -0.8469
10741TIP3   OH253637   3.446   3.887  16.111  0.6976  0.2070 -0.5618
10741TIP3    H153638   3.431   3.805  16.066  0.3817 -1.0359  1.7425
10741TIP3    H253639   3.365   3.937  16.099 -0.7634 -1.5643  1.5925
10742TIP3   OH253640   4.665   3.315  17.183  0.4537  0.0102  0.1055
10742TIP3    H153641   4.619   3.346  17.261  1.8682  0.2643  0.8423
10742TIP3    H253642   4.599   3.262  17.137 -0.6358  0.5230  1.0428
10743TIP3   OH253643   6.254   6.177  15.318  0.0349  0.3449  0.1956
10743TIP3    H153644   6.223   6.097  15.359 -0.8072  0.0960 -0.9197
10743TIP3    H253645   6.194   6.193  15.246 -0.1314  2.2829  0.7240
10744TIP3   OH253646   4.847   3.612  16.258  1.0654  0.2909  0.7033
10744TIP3    H153647   4.939   3.622  16.281  1.1166  0.1972  0.5396
10744TIP3    H253648   4.845   3.623  16.163  1.5190 -3.7645  0.1155
10745TIP3   OH253649   6.121   5.003  15.321 -0.1086 -0.0415  0.2753
10745TIP3    H153650   6.198   4.948  15.309  0.4834  0.9801 -0.7321
10745TIP3    H253651   6.114   5.053  15.239 -1.6469  0.1166  0.4857
10746TIP3   OH253652   3.422   3.139  13.243  0.1384 -0.3545  0.2014
10746TIP3    H153653   3.348   3.185  13.203 -0.8018 -2.1809 -0.2366
10746TIP3    H253654   3.499   3.189  13.218 -0.8090  0.6280 -0.7524
10747TIP3   OH253655   0.632   3.779   0.669  0.4102 -0.0692  0.1651
10747TIP3    H153656   0.641   3.693   0.710  0.3742  0.2260  0.7949
10747TIP3    H253657   0.604   3.836   0.740 -1.7859  0.0087 -0.7323
10748TIP3   OH253658   2.505   2.132   2.888  0.1708  0.3276 -0.5283
10748TIP3    H153659   2.433   2.159   2.831  0.4264  3.1992  0.3895
10748TIP3    H253660   2.584   2.163   2.842  0.5374  0.4759  0.1873
10749TIP3   OH253661   0.270   0.897   4.997 -0.0050 -0.6086 -0.2159
10749TIP3    H153662   0.307   0.828   4.941  1.4343  0.2845 -0.3802
10749TIP3    H253663   0.209   0.944   4.939  0.2123 -0.7425 -0.5567
10750TIP3   OH253664   0.000   4.232  13.082  0.1383  0.2943 -0.8455
10750TIP3    H153665  -0.082   4.266  13.046 -1.1334 -2.1112 -0.3035
10750TIP3    H253666   0.069   4.279  13.035 -1.5457  1.7741 -1.8528
10751TIP3   OH253667   2.087   6.045   2.745  0.2628  0.4586 -0.1057
10751TIP3    H153668   2.034   6.123   2.762  0.5062  0.4066  0.8902
10751TIP3    H253669   2.177   6.075   2.756  0.3093 -0.3268  1.8464
10752TIP3   OH253670   2.527   1.992  11.134 -0.3363 -0.2588 -0.3737
10752TIP3    H153671   2.433   1.978  11.146 -0.3036  0.1895  0.4275
10752TIP3    H253672   2.532   2.068  11.076 -0.4869 -2.0630 -2.8299
10753TIP3   OH253673   1.468   4.044   5.551  0.0831 -0.1023 -0.0709
10753TIP3    H153674   1.383   4.086   5.543  0.8090  1.7331  1.3203
10753TIP3    H253675   1.491   4.055   5.644  1.1189 -1.9655 -0.0920
10754TIP3   OH253676   0.228   5.483  14.874 -0.0344 -0.0409  0.5540
10754TIP3    H153677   0.192   5.473  14.962 -3.4907  0.3616 -0.7429
10754TIP3    H253678   0.167   5.438  14.817  0.7333  1.9131 -1.9492
10755TIP3   OH253679   1.283   3.613   5.943  0.1051 -0.5378  0.2305
10755TIP3    H153680   1.293   3.656   6.028 -3.4639 -1.9235  1.4624
10755TIP3    H253681   1.280   3.685   5.880  1.3053  0.5889  1.4405
10756TIP3   OH253682   5.173   4.293  16.687  0.0909  0.0747 -0.9143
10756TIP3    H153683   5.146   4.303  16.778  0.5760  0.2978 -0.7971
10756TIP3    H253684   5.206   4.379  16.661 -0.4242  0.1229 -1.4277
10757TIP3   OH253685   3.442   2.050  14.276  0.2744  0.4825 -0.2403
10757TIP3    H153686   3.531   2.015  14.267  0.2744  0.5660 -0.5528
10757TIP3    H253687   3.444   2.132  14.227 -0.5178 -0.4415 -1.8726
10758TIP3   OH253688   2.453   4.664  16.747 -0.3643  0.2790 -0.2997
10758TIP3    H153689   2.495   4.726  16.688 -1.6597 -0.0833 -1.6103
10758TIP3    H253690   2.496   4.679  16.831  1.3675  0.9321 -1.2662
10759TIP3   OH253691   0.980   2.850  16.714  0.1541  0.5674 -0.0001
10759TIP3    H153692   0.981   2.926  16.772  0.6360  0.2202  0.4488
10759TIP3    H253693   0.978   2.887  16.626 -2.7309  1.0916  0.2444
10760TIP3   OH253694   5.231   4.579  16.713  0.4167 -0.9531 -0.7479
10760TIP3    H153695   5.260   4.670  16.703  0.7849 -1.0566 -0.6285
10760TIP3    H253696   5.263   4.553  16.799  2.1416 -1.8605 -1.6263
10761TIP3   OH253697   4.021   3.892   5.988  0.2296 -0.0330 -0.3025
10761TIP3    H153698   4.104   3.875   5.943  0.2325 -1.5037  0.2086
10761TIP3    H253699   4.047   3.911   6.078  0.0147 -0.8380 -0.0596
10762TIP3   OH253700   6.376   0.017  13.583  0.2981  0.1073  0.6538
10762TIP3    H153701   6.417  -0.017  13.504  0.6622  0.6588  0.6004
10762TIP3    H253702   6.286   0.038  13.557 -0.0454 -1.1810  0.7944
10763TIP3   OH253703   2.498   1.982   1.843 -0.0173  0.3711  1.0675
10763TIP3    H153704   2.559   2.055   1.832 -0.0388  0.3460  0.7808
10763TIP3    H253705   2.506   1.932   1.763 -1.4765  1.1584  0.4016
10764TIP3   OH253706   4.106   2.664  14.493  0.1130 -0.4396  0.2055
10764TIP3    H153707   4.030   2.626  14.538 -0.8115  0.3805 -0.6282
10764TIP3    H253708   4.083   2.756  14.482  0.9922 -0.3046 -0.5728
10765TIP3   OH253709   0.989   0.841  13.552  0.2299 -0.5788 -0.3958
10765TIP3    H153710   1.044   0.910  13.515 -0.7986 -0.9390 -2.6706
10765TIP3    H253711   0.911   0.839  13.497  0.0901 -3.3445 -0.2115
10766TIP3   OH253712   5.046   0.687   2.515 -0.2880  0.1804  0.0709
10766TIP3    H153713   4.965   0.648   2.484 -0.1457 -1.2536  1.4250
10766TIP3    H253714   5.068   0.637   2.594  1.7202  0.7611 -0.0842
10767TIP3   OH253715   5.860   3.175   5.719  0.3784  0.2417  0.0119
10767TIP3    H153716   5.897   3.249   5.671 -1.9100  1.5214  0.1762
10767TIP3    H253717   5.875   3.100   5.661  1.3954  1.0605 -0.8147
10768TIP3   OH253718   5.660   4.358   1.579  0.1747  0.2461  0.6025
10768TIP3    H153719   5.696   4.302   1.511 -1.2386 -0.2969  0.2913
10768TIP3    H253720   5.574   4.320   1.600 -0.3774  1.7012  1.0878
10769TIP3   OH253721   1.142   5.439   1.875 -0.2430  0.3418  0.0546
10769TIP3    H153722   1.233   5.423   1.901 -0.3525  1.7605  1.3918
10769TIP3    H253723   1.102   5.352   1.875  0.6922 -0.1068  1.0950
10770TIP3   OH253724   3.408   6.023   4.865  0.2381  0.0259  0.0133
10770TIP3    H153725   3.426   6.052   4.954  0.4368  0.2180 -0.0874
10770TIP3    H253726   3.370   5.936   4.875  0.2243  0.0630  0.2875
10771TIP3   OH253727   4.492   6.673   3.002  0.2991 -0.6933 -0.2291
10771TIP3    H153728   4.542   6.602   2.962 -0.2877 -0.5030 -1.3120
10771TIP3    H253729   4.531   6.753   2.969 -1.1516 -0.5444 -1.6639
10772TIP3   OH253730   5.975   3.729   2.383 -0.6037 -0.3151 -0.2638
10772TIP3    H153731   6.004   3.656   2.329  1.8657  0.7675 -0.4779
10772TIP3    H253732   5.952   3.798   2.321 -1.0079 -0.2090 -0.0026
10773TIP3   OH253733   1.201   1.211  16.495  0.3210 -0.2651 -0.4420
10773TIP3    H153734   1.262   1.138  16.487 -1.0877 -1.4500 -0.6777
10773TIP3    H253735   1.207   1.258  16.412  0.0739 -1.0505 -0.9047
10774TIP3   OH253736   3.341   6.227  13.304  0.2868 -0.2420  0.1503
10774TIP3    H153737   3.364   6.173  13.379 -0.1850 -0.4460  0.1506
10774TIP3    H253738   3.411   6.210  13.240 -0.0642 -1.1468  0.0028
10775TIP3   OH253739   1.052   3.701   4.431  0.0188 -0.2891 -0.0373
10775TIP3    H153740   1.091   3.788   4.446  0.7727 -0.6420  0.0809
10775TIP3    H253741   0.959   3.718   4.421  0.1611  0.5399  0.0021
10776TIP3   OH253742   3.430   0.513  12.545 -0.4494  0.2764 -0.4214
10776TIP3    H153743   3.398   0.447  12.484 -0.5091 -1.6142  1.6088
10776TIP3    H253744   3.523   0.523  12.523 -0.6403  0.1603 -1.3015
10777TIP3   OH253745   5.865   0.917  14.829 -0.0844 -0.3559  0.1831
10777TIP3    H153746   5.789   0.948  14.781 -0.0180  0.9009  0.8713
10777TIP3    H253747   5.833   0.845  14.882 -1.1818  1.2647  1.7563
10778TIP3   OH253748   2.984   0.555   1.202 -0.1306 -0.3757  0.3524
10778TIP3    H153749   2.994   0.525   1.112  0.1995 -0.6994  0.4992
10778TIP3    H253750   2.970   0.476   1.253  0.3722 -0.2500  0.6870
10779TIP3   OH253751   1.431   5.604   0.590 -0.0236  0.0034  0.0298
10779TIP3    H153752   1.445   5.567   0.503 -1.4755  0.4305 -0.4056
10779TIP3    H253753   1.478   5.546   0.649  0.4229 -0.6730 -0.9747
10780TIP3   OH253754   5.725   1.258   2.500 -0.5590 -0.3905  0.1153
10780TIP3    H153755   5.702   1.342   2.541 -0.0101  0.1945 -0.7483
10780TIP3    H253756   5.780   1.283   2.426 -0.6964 -1.5034 -0.3585
10781TIP3   OH253757   0.900   5.346   0.505  0.1575 -0.8343  0.4016
10781TIP3    H153758   0.947   5.392   0.573  1.2161  0.7365 -1.3472
10781TIP3    H253759   0.889   5.410   0.435 -2.1354 -1.9811 -0.3723
10782TIP3   OH253760   5.109   4.066  13.414  0.5666  0.0579 -0.2979
10782TIP3    H153761   5.015   4.063  13.396  0.4980  0.8670 -0.0897
10782TIP3    H253762   5.136   4.153  13.385  0.5764  1.1767  2.9059
10783TIP3   OH253763   3.829   3.931  16.930 -0.5355  0.1040  1.0079
10783TIP3    H153764   3.903   3.894  16.977 -0.2814 -0.4324  0.1771
10783TIP3    H253765   3.806   3.866  16.864 -0.3056  1.2597 -0.2362
10784TIP3   OH253766   1.167   4.322  14.081 -0.1827 -0.5431  0.1686
10784TIP3    H153767   1.179   4.332  13.986  0.8423  1.4061  0.4874
10784TIP3    H253768   1.153   4.228  14.093 -0.3127 -0.8187 -1.9164
10785TIP3   OH253769   6.001   3.791  15.439  0.0989  0.1662  0.3993
10785TIP3    H153770   6.091   3.771  15.464  0.1405  0.2964  0.3575
10785TIP3    H253771   5.949   3.720  15.476  0.2261  0.0671  0.3847
10786TIP3   OH253772   2.280   3.689  16.229  0.5575 -0.3307  0.3090
10786TIP3    H153773   2.218   3.619  16.248  1.1470 -0.6876  0.9739
10786TIP3    H253774   2.339   3.651  16.163  1.1390 -0.6212  0.9880
10787TIP3   OH253775   1.865   3.608   3.853  0.1459 -0.2511  1.1196
10787TIP3    H153776   1.792   3.579   3.798  0.2790 -0.5908  1.1163
10787TIP3    H253777   1.873   3.539   3.919  1.2168 -0.8296  0.4214
10788TIP3   OH253778   2.924   1.904  16.765 -0.1668 -0.8679 -0.2014
10788TIP3    H153779   2.856   1.866  16.708  1.1952 -2.4620 -0.8090
10788TIP3    H253780   2.980   1.830  16.787  1.4238  0.4517  0.2232
10789TIP3   OH253781   2.580   4.333   6.610  0.5486  0.3047 -0.5810
10789TIP3    H153782   2.515   4.305   6.674  1.6310  1.0926  0.9028
10789TIP3    H253783   2.533   4.334   6.526 -0.8369 -0.9273  0.1528
10790TIP3   OH253784   2.079   1.144   1.753  0.4279 -0.3256  0.5049
10790TIP3    H153785   2.158   1.194   1.773  0.1239  1.0049 -1.5366
10790TIP3    H253786   2.110   1.065   1.708  0.8280 -1.5438  2.8406
10791TIP3   OH253787   0.776   1.274  15.207  0.3683 -0.5152  0.1207
10791TIP3    H153788   0.741   1.321  15.283  0.5850 -0.3650  0.1266
10791TIP3    H253789   0.850   1.326  15.177  2.2445 -2.1944  1.6985
10792TIP3   OH253790   3.168   3.444   4.689 -0.5477 -0.0306 -0.4452
10792TIP3    H153791   3.141   3.353   4.680 -0.2505 -0.2399  0.6605
10792TIP3    H253792   3.243   3.453   4.630 -0.4984 -0.5394 -0.4591
10793TIP3   OH253793   3.728   5.181  11.861 -0.0280  0.4136  1.0346
10793TIP3    H153794   3.757   5.131  11.784 -1.3516  0.1943  0.6520
10793TIP3    H253795   3.720   5.271  11.830  1.8255  0.7830  1.5794
10794TIP3   OH253796   1.500   2.816  12.915 -0.5966 -0.3972 -0.8241
10794TIP3    H153797   1.424   2.835  12.861 -0.3523 -0.2125 -1.1107
10794TIP3    H253798   1.549   2.750  12.866 -0.5223 -0.4411 -0.6907
10795TIP3   OH253799   5.625   4.969   1.018  0.1133 -0.8951  0.2653
10795TIP3    H153800   5.550   5.028   1.009  0.3998 -0.3134  1.6443
10795TIP3    H253801   5.599   4.891   0.968 -0.8264 -0.1565 -0.4356
10796TIP3   OH253802   1.642   0.609  12.208  0.2097 -0.6063  0.4196
10796TIP3    H153803   1.581   0.567  12.147 -0.7912  1.0485  0.2467
10796TIP3    H253804   1.620   0.571  12.294  2.4957 -3.9231 -0.3481
10797TIP3   OH253805   1.088   6.666  15.466  0.1980  0.2383  0.0897
10797TIP3    H153806   1.012   6.620  15.432  1.5360 -2.0390  0.0491
10797TIP3    H253807   1.109   6.621  15.548  3.0518 -0.9261 -1.2068
10798TIP3   OH253808   4.214   1.449  13.951 -0.3272 -0.2527 -0.8061
10798TIP3    H153809   4.229   1.481  14.040 -0.9813 -1.9892 -0.0294
10798TIP3    H253810   4.132   1.399  13.958 -1.0505  0.6621 -2.6725
10799TIP3   OH253811   4.514   1.882  16.352 -0.2805 -0.1916  1.1288
10799TIP3    H153812   4.566   1.934  16.291 -0.7182 -0.9491  0.1034
10799TIP3    H253813   4.424   1.892  16.321 -0.4788 -0.7598  1.5103
10800TIP3   OH253814   6.652   6.368   2.153  0.7593  0.5461 -0.7412
10800TIP3    H153815   6.573   6.423   2.157  0.8869  0.7096 -0.4757
10800TIP3    H253816   6.699   6.399   2.076  0.8289  0.8053 -0.5941
10801TIP3   OH253817   5.987   3.999  10.981  0.0870  0.1397 -0.1249
10801TIP3    H153818   6.082   3.994  10.995  0.1730 -1.9013 -1.1503
10801TIP3    H253819   5.978   4.019  10.887 -0.4527 -3.0277 -0.8157
10802TIP3   OH253820   5.570   5.316   1.219 -0.3124 -0.6410 -0.3335
10802TIP3    H153821   5.537   5.367   1.144 -1.7301 -0.3736  0.4579
10802TIP3    H253822   5.491   5.284   1.262  0.5153 -1.0229  0.9029
10803TIP3   OH253823   5.650   2.220  15.236  0.4603  0.0830  0.2589
10803TIP3    H153824   5.559   2.194  15.219  0.6800  0.6534 -1.9410
10803TIP3    H253825   5.694   2.208  15.152  2.2306  0.6459  1.0938
10804TIP3   OH253826   6.619   2.184   4.806  0.0394  0.3624 -0.4528
10804TIP3    H153827   6.681   2.123   4.847 -1.4393 -0.5009  0.5111
10804TIP3    H253828   6.622   2.262   4.861  1.3210  0.8814 -1.2261
10805TIP3   OH253829   5.838   4.452  10.915  0.0219 -0.7571  0.3560
10805TIP3    H153830   5.902   4.518  10.888 -0.9904  0.9615  2.0665
10805TIP3    H253831   5.891   4.376  10.938  1.5931  0.9705  2.7402
10806TIP3   OH253832   4.108   2.886  16.727  0.5637 -0.0337  0.1444
10806TIP3    H153833   4.144   2.828  16.794  1.1872  1.0314  0.7529
10806TIP3    H253834   4.185   2.926  16.686  0.1091  2.1940  1.3798
10807TIP3   OH253835   0.935   3.385   0.641  0.4933  0.5526  0.4009
10807TIP3    H153836   1.029   3.397   0.630  0.2354  0.8319 -1.7358
10807TIP3    H253837   0.896   3.431   0.566 -1.2325 -1.1560  0.2000
10808TIP3   OH253838   0.225   3.712   3.353  0.2592 -0.1294 -0.3812
10808TIP3    H153839   0.199   3.708   3.445  0.0044  2.7058 -0.2839
10808TIP3    H253840   0.316   3.680   3.353 -0.4570 -2.2871  0.4810
10809TIP3   OH253841   6.592   3.124  15.439  0.2936  0.4661  0.2984
10809TIP3    H153842   6.671   3.074  15.460 -0.5439 -1.3452 -0.7712
10809TIP3    H253843   6.569   3.167  15.522  1.7565  0.1500  0.8993
10810TIP3   OH253844   6.664   2.993  10.632  0.0951 -0.4350  0.5007
10810TIP3    H153845   6.639   3.071  10.583  1.9333 -0.1582 -0.0461
10810TIP3    H253846   6.674   2.925  10.565  1.9220 -0.2331  0.5457
10811TIP3   OH253847   2.497   0.842   1.247 -0.3968 -0.5026 -0.0468
10811TIP3    H153848   2.539   0.810   1.167  0.6493 -0.5007  0.4937
10811TIP3    H253849   2.496   0.766   1.305  0.0264 -0.1606  0.4100
10812TIP3   OH253850   5.076   5.309   3.200 -0.3196 -0.2031 -0.4411
10812TIP3    H153851   4.993   5.300   3.246 -0.1278  0.3605  0.0208
10812TIP3    H253852   5.121   5.380   3.245 -0.0302  0.2025 -1.3496
10813TIP3   OH253853   4.915   0.412   4.743  0.2133 -0.3072  0.2766
10813TIP3    H153854   5.009   0.405   4.726  0.2434 -0.2891  0.4292
10813TIP3    H253855   4.875   0.350   4.682  0.2181  0.6144 -0.6748
10814TIP3   OH253856   4.834   0.733   4.175 -0.0843  0.3591  0.2901
10814TIP3    H153857   4.897   0.662   4.160 -0.1436  0.3113  0.2700
10814TIP3    H253858   4.868   0.778   4.253 -0.4057 -0.0934  0.6982
10815TIP3   OH253859   3.601   0.392   6.031  0.3989 -0.0609 -0.1505
10815TIP3    H153860   3.506   0.388   6.017  0.2731  0.0192  0.6619
10815TIP3    H253861   3.622   0.309   6.074  0.5576  0.3038  0.4828
10816TIP3   OH253862   4.791   0.454   4.392  0.0948  0.2126  0.1335
10816TIP3    H153863   4.852   0.500   4.450  0.2275 -0.9378  0.9261
10816TIP3    H253864   4.823   0.364   4.390  0.1037  0.2212 -1.7554
10817TIP3   OH253865   6.303   2.535   1.220 -0.3994  0.3735  0.0049
10817TIP3    H153866   6.289   2.482   1.298  0.1212  1.2928  0.7493
10817TIP3    H253867   6.376   2.493   1.175  0.3778  0.7689  0.8822
10818TIP3   OH253868   0.389   1.054   3.347 -0.4565  0.0286 -0.4529
10818TIP3    H153869   0.471   1.007   3.339 -1.3454 -1.4247 -1.3596
10818TIP3    H253870   0.362   1.043   3.438 -0.0234 -0.1122 -0.3446
10819TIP3   OH253871   0.464   5.836  11.076  0.2675 -0.5223 -0.3273
10819TIP3    H153872   0.425   5.847  10.989  1.0087  2.3917 -0.3417
10819TIP3    H253873   0.546   5.885  11.072  0.0406  0.1569  2.1868
10820TIP3   OH253874   2.587   2.672  14.879 -0.0661 -0.3647 -0.1517
10820TIP3    H153875   2.523   2.742  14.868  0.7495  0.5153  0.6173
10820TIP3    H253876   2.566   2.634  14.964  0.1455 -0.3717 -0.1028
10821TIP3   OH253877   2.371   2.416   1.893  0.2224  0.4502 -0.0822
10821TIP3    H153878   2.363   2.511   1.890  0.3605  0.4475 -0.5610
10821TIP3    H253879   2.330   2.391   1.976  0.4456  0.9529  0.1825
10822TIP3   OH253880   2.247   5.665  11.224  0.5569  0.1517  0.0361
10822TIP3    H153881   2.320   5.640  11.168 -0.8579 -4.1058 -0.1182
10822TIP3    H253882   2.172   5.669  11.164 -0.0767  0.4058  0.8405
10823TIP3   OH253883   2.970   2.269   1.701 -0.4497 -0.2519 -0.3376
10823TIP3    H153884   3.053   2.317   1.701 -1.1470  1.0140  1.2439
10823TIP3    H253885   2.913   2.319   1.643 -0.4987 -0.3780 -0.3964
10824TIP3   OH253886   4.028   0.359   4.218 -0.4759 -0.4372  0.1363
10824TIP3    H153887   3.964   0.338   4.286 -0.0859  4.5555  2.2574
10824TIP3    H253888   3.975   0.381   4.141 -1.2250  1.0293  1.0663
10825TIP3   OH253889   4.605   4.394  15.874  0.2392 -0.1720  0.0605
10825TIP3    H153890   4.695   4.365  15.857  0.8093  0.9758  1.0723
10825TIP3    H253891   4.604   4.486  15.850 -0.6293 -0.1328  0.2360
10826TIP3   OH253892   6.080   5.138  14.917 -0.0468 -0.5675  0.2802
10826TIP3    H153893   6.167   5.145  14.877 -0.3928  2.0693 -0.0994
10826TIP3    H253894   6.089   5.182  15.002 -0.2540 -2.9391  1.5576
10827TIP3   OH253895   3.690   3.962   3.749 -0.1361  0.0972 -0.2065
10827TIP3    H153896   3.772   3.994   3.787  0.4699 -1.1552 -0.4187
10827TIP3    H253897   3.624   4.025   3.777  0.7332  0.5600  0.8371
10828TIP3   OH253898   4.980   4.008   4.690  0.6960  0.1742  0.9162
10828TIP3    H153899   5.047   4.045   4.632 -0.4352  1.7986  0.6023
10828TIP3    H253900   4.915   3.970   4.631 -0.0401  1.0819  1.1353
10829TIP3   OH253901   6.596   0.306   3.916 -0.3668 -0.4980 -0.2408
10829TIP3    H153902   6.644   0.245   3.859 -0.3379  0.1706 -0.9417
10829TIP3    H253903   6.582   0.384   3.862 -1.7815 -0.4737  0.1289
10830TIP3   OH253904   4.818   5.182   2.353 -0.1966  0.1197 -0.0816
10830TIP3    H153905   4.776   5.125   2.417  0.3045  1.4373  1.4704
10830TIP3    H253906   4.881   5.126   2.308 -2.3958 -1.4653 -1.2920
10831TIP3   OH253907   2.694   0.165   3.772 -0.3291  0.4371 -0.0990
10831TIP3    H153908   2.678   0.071   3.767  3.7361 -0.4221  1.0056
10831TIP3    H253909   2.722   0.190   3.684 -0.4013  0.4358 -0.1227
10832TIP3   OH253910   0.174   4.584  14.702 -0.0453 -0.0979 -0.4159
10832TIP3    H153911   0.082   4.561  14.707 -0.4502  1.4984 -0.4064
10832TIP3    H253912   0.202   4.595  14.793  0.4401 -1.6550 -0.3656
10833TIP3   OH253913   6.732   4.403   1.443 -0.1684 -0.2004  0.0927
10833TIP3    H153914   6.680   4.480   1.468 -2.0246 -1.0934 -0.9078
10833TIP3    H253915   6.751   4.359   1.526 -0.9101  0.2104  0.4819
10834TIP3   OH253916   0.002   2.533   0.893 -0.5585  0.3004 -0.0771
10834TIP3    H153917   0.028   2.496   0.808 -4.9552 -0.0635 -1.3476
10834TIP3    H253918   0.020   2.626   0.884 -0.1361  0.1387 -1.0544
10835TIP3   OH253919   3.528   4.093  11.612 -0.4403  0.4181  0.8941
10835TIP3    H153920   3.547   4.167  11.670  1.2658 -0.2859  1.2623
10835TIP3    H253921   3.600   4.032  11.626 -0.8437 -0.4834 -0.7847
10836TIP3   OH253922   3.940   3.758   3.709 -0.2492  0.1242  0.7134
10836TIP3    H153923   3.973   3.839   3.748 -0.3764 -1.0500  3.3235
10836TIP3    H253924   3.904   3.709   3.782 -1.1164 -1.8613 -1.0030
10837TIP3   OH253925   1.225   2.240   5.526 -0.5461 -0.0315 -0.6680
10837TIP3    H153926   1.261   2.210   5.610 -2.6094  0.0252  0.2503
10837TIP3    H253927   1.200   2.159   5.481 -2.9672  0.0901  0.3924
10838TIP3   OH253928   0.359   4.467  13.171  1.0660  0.1556  0.0738
10838TIP3    H153929   0.410   4.462  13.252  1.9825 -0.7321 -0.5436
10838TIP3    H253930   0.424   4.474  13.101  0.2860  0.8542 -0.6004
10839TIP3   OH253931   2.980   4.445   1.840  0.0593  0.4499 -0.3597
10839TIP3    H153932   2.978   4.350   1.825 -0.5490  0.5328 -0.7908
10839TIP3    H253933   3.030   4.480   1.767  2.8905  0.1721  1.3559
10840TIP3   OH253934   6.743   6.445   4.361 -0.1414  0.1167  0.1773
10840TIP3    H153935   6.838   6.441   4.348 -0.2748  0.1771 -0.8917
10840TIP3    H253936   6.709   6.371   4.311 -0.7637  0.9557 -0.6644
10841TIP3   OH253937   5.873   2.641  16.719  0.6690 -0.4806  0.0784
10841TIP3    H153938   5.948   2.636  16.778  1.7607  1.4562 -1.0932
10841TIP3    H253939   5.870   2.733  16.692 -0.9790 -0.9379 -1.3747
10842TIP3   OH253940   3.833   3.634   5.078 -0.0786 -0.1675  0.3210
10842TIP3    H153941   3.758   3.602   5.027 -1.3035  2.2003  0.5995
10842TIP3    H253942   3.893   3.559   5.081 -0.3243 -0.6874 -3.9004
10843TIP3   OH253943   3.227   3.938  17.204  0.5684 -0.2750 -0.2853
10843TIP3    H153944   3.169   3.886  17.260  0.0426  0.8960  0.2692
10843TIP3    H253945   3.221   3.896  17.118  0.0051 -1.0277  0.1175
10844TIP3   OH253946   1.044   4.826  13.635 -0.0133 -0.2316  0.4353
10844TIP3    H153947   0.980   4.791  13.698 -0.6759  0.4013  0.1119
10844TIP3    H253948   1.071   4.749  13.584 -0.0931 -0.6011  0.9419
10845TIP3   OH253949   3.892   2.521   3.483  0.4438 -0.9036 -0.1664
10845TIP3    H153950   3.821   2.586   3.491  1.3377  0.4644 -2.7636
10845TIP3    H253951   3.852   2.439   3.511 -1.7746  0.1044 -0.2419
10846TIP3   OH253952   2.280   1.809   4.943 -0.4551  0.3018  0.4160
10846TIP3    H153953   2.295   1.888   4.994  0.9844 -0.0679  0.5868
10846TIP3    H253954   2.213   1.760   4.992  0.7849  0.0256  1.8681
10847TIP3   OH253955   2.197   5.864   0.518  0.6480 -0.3201 -0.1808
10847TIP3    H153956   2.190   5.914   0.437 -2.8251  0.2962  0.4212
10847TIP3    H253957   2.198   5.930   0.587 -0.1662 -0.9490  0.4450
10848TIP3   OH253958   1.644   0.164  12.551  0.4468  0.3410  0.6064
10848TIP3    H153959   1.616   0.193  12.464 -1.9644 -0.9074  0.9200
10848TIP3    H253960   1.639   0.243  12.606  3.0798  1.3946 -0.5917
10849TIP3   OH253961   1.770   5.038   0.623 -0.1393  0.1955 -0.5152
10849TIP3    H153962   1.813   5.040   0.709 -1.0191  0.7931 -0.0910
10849TIP3    H253963   1.835   5.074   0.563 -0.1790  1.4439  0.1863
10850TIP3   OH253964   4.930   4.149   0.907  0.9573  0.4709 -0.5912
10850TIP3    H153965   4.916   4.126   0.815  2.1237 -0.9428 -0.4243
10850TIP3    H253966   4.844   4.138   0.948  0.3212  1.5679 -1.5999
10851TIP3   OH253967   3.101   5.661   4.639 -0.1575  0.4226  0.1326
10851TIP3    H153968   3.020   5.657   4.588 -1.5549  0.3041  2.2917
10851TIP3    H253969   3.160   5.600   4.595 -1.5220 -0.1215 -0.9844
10852TIP3   OH253970   6.179   0.221   4.661 -0.4360  0.3630  0.5426
10852TIP3    H153971   6.108   0.229   4.724 -0.7768 -1.1788  0.3697
10852TIP3    H253972   6.160   0.139   4.614  0.7343  0.6184 -0.3917
10853TIP3   OH253973   3.130   0.779   3.156 -0.1687 -0.1628 -0.0489
10853TIP3    H153974   3.064   0.744   3.096 -0.4239 -0.4243  0.3877
10853TIP3    H253975   3.083   0.796   3.237  0.2835 -0.2751  0.2381
10854TIP3   OH253976   6.759   4.186  11.725 -0.1375  0.0517  0.3628
10854TIP3    H153977   6.771   4.092  11.734  0.1889  0.0637  0.0606
10854TIP3    H253978   6.827   4.224  11.781 -0.4372  0.1113  0.6937
10855TIP3   OH253979   0.152   0.165   0.361 -0.2735 -0.1399  0.3380
10855TIP3    H153980   0.196   0.224   0.299  0.8760 -0.5603  0.7446
10855TIP3    H253981   0.205   0.170   0.441 -0.9364 -0.6980  0.8227
10856TIP3   OH253982   0.385   2.131  13.406  0.2981 -0.4203  0.5426
10856TIP3    H153983   0.410   2.077  13.481  0.4769  0.7249  1.3238
10856TIP3    H253984   0.458   2.122  13.345  0.8097 -0.2481  1.1175
10857TIP3   OH253985   3.845   5.567   6.162  0.2227 -0.3236  0.2294
10857TIP3    H153986   3.835   5.582   6.256 -0.1721  1.2140 -0.0613
10857TIP3    H253987   3.795   5.487   6.145  2.8577 -2.4248  1.8730
10858TIP3   OH253988   6.086   3.019   6.680  0.0792 -0.1337  0.2710
10858TIP3    H153989   6.008   3.074   6.692 -0.6825 -0.7360 -1.6097
10858TIP3    H253990   6.137   3.065   6.613  0.8782 -0.2169  0.8252
10859TIP3   OH253991   3.037   5.523  14.812  0.5076 -0.0654  0.1410
10859TIP3    H153992   3.011   5.444  14.859 -1.6406  0.3485 -0.3007
10859TIP3    H253993   3.032   5.593  14.876  2.2533 -0.2286  0.4896
10860TIP3   OH253994   1.346   0.577   0.074 -0.3153  0.2968 -0.0411
10860TIP3    H153995   1.441   0.569   0.080 -0.2056  1.1353 -0.6114
10860TIP3    H253996   1.312   0.528   0.150  0.5081 -1.3662 -0.7151
10861TIP3   OH253997   4.210   3.013   1.951  0.1990 -0.6829  0.6394
10861TIP3    H153998   4.293   3.048   1.918 -0.5724  1.3891  0.7749
10861TIP3    H253999   4.198   2.931   1.905  0.2883  1.0105 -2.5388
10862TIP3   OH254000   4.280   5.500  15.875 -0.2402 -0.5487  0.4572
10862TIP3    H154001   4.198   5.451  15.886 -1.3377  1.4096  1.2156
10862TIP3    H254002   4.339   5.463  15.942 -0.1503 -2.6279 -0.7364
10863TIP3   OH254003   6.691   1.730  11.057  1.0965  0.8749 -0.0352
10863TIP3    H154004   6.740   1.736  11.139  2.7510  0.9018 -1.0133
10863TIP3    H254005   6.667   1.820  11.037 -2.0925  0.5744  2.0346
10864TIP3   OH254006   1.484   1.154  12.256  0.0078 -0.2593  0.3624
10864TIP3    H154007   1.520   1.212  12.189  1.6737 -2.0206 -0.3261
10864TIP3    H254008   1.410   1.112  12.213 -1.0774  1.1653  0.7947
10865TIP3   OH254009   0.027   6.560  15.537 -0.5001 -0.2044  0.5365
10865TIP3    H154010   0.059   6.517  15.616  0.9467 -3.8897 -1.9759
10865TIP3    H254011  -0.066   6.537  15.533 -0.7200  0.4972  1.4466
10866TIP3   OH254012   2.710   2.091  16.840 -0.4171 -0.3731  0.0992
10866TIP3    H154013   2.666   2.050  16.915  0.6161 -0.6680  0.5468
10866TIP3    H254014   2.791   2.042  16.829  0.8720  1.5739  0.6696
10867TIP3   OH254015   2.386   5.690   4.983  0.0272 -0.2425  0.7839
10867TIP3    H154016   2.460   5.642   5.021  0.0546 -0.7099  0.1524
10867TIP3    H254017   2.404   5.691   4.889 -1.0052 -0.7637  0.5729
10868TIP3   OH254018   4.181   1.277   2.510  0.7019 -0.2694  0.3832
10868TIP3    H154019   4.274   1.270   2.487  0.3530 -0.7696 -0.9416
10868TIP3    H254020   4.181   1.296   2.603  2.1301 -0.8232  0.5169
10869TIP3   OH254021   6.529   0.541  11.131  0.3097 -0.2455 -0.1906
10869TIP3    H154022   6.472   0.472  11.098 -2.2093  1.8235 -0.3560
10869TIP3    H254023   6.527   0.531  11.226  0.9751 -1.1567 -0.2673
10870TIP3   OH254024   2.564   6.554   5.207  0.2852  0.2255 -0.0536
10870TIP3    H154025   2.514   6.567   5.288  0.5774 -1.0889  0.3405
10870TIP3    H254026   2.646   6.601   5.222  1.6326 -2.5583  1.6547
10871TIP3   OH254027   0.566   1.302   5.762 -0.4463 -0.2430  0.2328
10871TIP3    H154028   0.534   1.375   5.814  0.6518  1.0068 -0.8247
10871TIP3    H254029   0.641   1.269   5.812  0.2895  0.6275 -0.2912
10872TIP3   OH254030   4.364   0.787   0.030 -0.0914 -0.0199  0.2435
10872TIP3    H154031   4.402   0.789  -0.058  1.5297 -0.4027  0.9107
10872TIP3    H254032   4.296   0.720   0.025  0.7893 -0.8921 -0.4269
10873TIP3   OH254033   2.659   2.957  12.925 -0.1432 -0.1172  0.0977
10873TIP3    H154034   2.695   2.983  12.840 -1.7109  0.2623 -0.4632
10873TIP3    H254035   2.678   3.030  12.983  1.0753 -0.4451  0.1283
10874TIP3   OH254036   4.153   6.412  14.895 -0.3170  0.3115  0.4401
10874TIP3    H154037   4.124   6.358  14.822 -1.6710  0.9242  0.5204
10874TIP3    H254038   4.138   6.357  14.972 -1.2751  0.6344  0.4828
10875TIP3   OH254039   0.741   4.062   0.675 -0.1935 -0.5313  0.5448
10875TIP3    H154040   0.795   4.028   0.746  0.4246  0.6357  0.6465
10875TIP3    H254041   0.678   4.119   0.718 -1.0291 -1.3024  0.3474
10876TIP3   OH254042   2.030   1.036   5.806  0.0241  0.0695  0.8073
10876TIP3    H154043   1.940   1.033   5.774  0.3110 -0.9242  0.0708
10876TIP3    H254044   2.022   1.017   5.899 -0.5311 -0.1018  0.7327
10877TIP3   OH254045   0.983   2.517   0.644  0.3457 -0.3074 -0.0898
10877TIP3    H154046   0.931   2.506   0.564  0.5327  0.4771 -0.3235
10877TIP3    H254047   1.041   2.441   0.646  1.7150  0.6617 -1.7403
10878TIP3   OH254048   5.986   0.590  15.388  0.4563 -0.1552  0.4064
10878TIP3    H154049   6.002   0.512  15.442  0.3275 -0.4684 -0.0046
10878TIP3    H254050   6.055   0.588  15.322  0.3925  0.0259  0.3337
10879TIP3   OH254051   1.413   0.890  14.172  0.8430 -0.3540  0.3898
10879TIP3    H154052   1.378   0.926  14.090 -1.4265 -0.8159  1.1181
10879TIP3    H254053   1.425   0.797  14.154 -2.1380 -0.9805  1.3162
10880TIP3   OH254054   5.348   3.331  12.545 -0.0084  0.1731 -0.1965
10880TIP3    H154055   5.385   3.264  12.488 -1.0772 -0.6191  0.0195
10880TIP3    H254056   5.423   3.382  12.575  0.6680 -0.0854 -1.4373
10881TIP3   OH254057   1.770   0.981  14.003 -0.3373 -0.3642  0.0052
10881TIP3    H154058   1.775   1.033  14.083  1.8163  0.1898 -0.4477
10881TIP3    H254059   1.701   1.022  13.951 -1.3303 -0.3653  1.3143
10882TIP3   OH254060   2.206   5.722  15.255  0.1604 -0.1872 -0.2073
10882TIP3    H154061   2.223   5.735  15.349 -1.8592 -0.3757  0.2044
10882TIP3    H254062   2.255   5.793  15.212  0.8595  0.0832  0.9964
10883TIP3   OH254063   4.552   6.272  12.123  0.0329  0.0948 -0.5952
10883TIP3    H154064   4.556   6.364  12.097  1.2569  0.5473  1.1421
10883TIP3    H254065   4.518   6.273  12.212 -0.0722 -1.1478 -0.6083
10884TIP3   OH254066   5.666   0.588   0.516 -0.0928 -0.2212  0.0792
10884TIP3    H154067   5.741   0.529   0.511  0.3332  0.3831 -0.6610
10884TIP3    H254068   5.674   0.644   0.439  0.1175  1.5388  1.3719
10885TIP3   OH254069   3.876   3.724   5.683 -0.5221  0.6108  0.4060
10885TIP3    H154070   3.920   3.809   5.680 -0.0232  0.3670  0.6800
10885TIP3    H254071   3.824   3.726   5.763 -1.8903  1.3255 -0.4981
10886TIP3   OH254072   2.735   6.159  15.640 -0.1812  0.4129 -0.1691
10886TIP3    H154073   2.686   6.241  15.642 -0.8720  0.0555 -1.6398
10886TIP3    H254074   2.667   6.091  15.637  0.4017 -0.1585 -0.4544
10887TIP3   OH254075   2.354   0.262   4.459 -0.1442  0.2066  0.2259
10887TIP3    H154076   2.357   0.171   4.488  0.4341  0.6526  1.6238
10887TIP3    H254077   2.355   0.257   4.364  0.7189 -1.2259  0.2977
10888TIP3   OH254078   0.184   1.432   6.087  0.1018  0.1863  0.6419
10888TIP3    H154079   0.107   1.408   6.034  1.0236 -1.0139 -0.1768
10888TIP3    H254080   0.170   1.524   6.109 -2.9618 -0.7516  2.8963
10889TIP3   OH254081   2.661   5.215  14.953  0.4300  0.2135 -0.7337
10889TIP3    H154082   2.697   5.282  14.895 -0.0739  0.5228 -0.6997
10889TIP3    H254083   2.566   5.218  14.935  0.3670 -0.2350 -0.4654
10890TIP3   OH254084   2.612   3.914  15.609 -0.3523  0.2510 -0.1368
10890TIP3    H154085   2.660   3.986  15.650  0.8899 -0.3914 -0.4204
10890TIP3    H254086   2.522   3.923  15.641  0.4228  0.2040  2.1387
10891TIP3   OH254087   4.761   1.680   0.459  0.3675 -0.5347  0.3927
10891TIP3    H154088   4.771   1.718   0.546 -2.9721 -1.1147  1.0746
10891TIP3    H254089   4.776   1.586   0.472  0.3984 -0.5526  0.2305
10892TIP3   OH254090   4.357   1.858   3.825  0.3295  0.3577  0.0288
10892TIP3    H154091   4.363   1.766   3.798  0.7300  0.7837 -1.3582
10892TIP3    H254092   4.338   1.854   3.918  0.6457 -1.1421  0.0426
10893TIP3   OH254093   5.134   0.184  10.744 -0.5708  0.9397 -0.0938
10893TIP3    H154094   5.144   0.090  10.727 -1.8172  0.5415  1.3263
10893TIP3    H254095   5.224   0.214  10.758 -0.0614  0.1734 -1.6037
10894TIP3   OH254096   2.295   4.143   1.333 -0.1774  0.4753  0.1585
10894TIP3    H154097   2.304   4.197   1.255  1.7553  0.6001  0.4396
10894TIP3    H254098   2.244   4.196   1.394 -0.1005  1.1301 -0.3425
10895TIP3   OH254099   4.645   1.523  17.033 -0.0229 -0.4213 -0.3056
10895TIP3    H154100   4.616   1.575  16.958  0.9313 -0.4007 -0.6770
10895TIP3    H254101   4.598   1.440  17.024 -1.3055  0.2593  0.1122
10896TIP3   OH254102   2.701   0.947  11.843 -0.2057  0.2952 -0.5872
10896TIP3    H154103   2.796   0.950  11.852 -0.0884 -0.9251 -1.2626
10896TIP3    H254104   2.682   0.855  11.821 -1.4598  0.6856 -1.1996
10897TIP3   OH254105   3.881   1.603   5.318 -0.2213  0.2165  0.1986
10897TIP3    H154106   3.814   1.654   5.363  1.1795  0.6427  1.8476
10897TIP3    H254107   3.959   1.658   5.321  0.3334 -0.4803 -1.2671
10898TIP3   OH254108   2.383   5.781  13.720 -1.0239 -0.0571  0.0785
10898TIP3    H154109   2.368   5.828  13.802 -0.0433  0.4608 -0.0365
10898TIP3    H254110   2.438   5.840  13.669  0.4756 -1.4654  0.0465
10899TIP3   OH254111   5.204   0.096   5.154 -0.3880 -0.0602  0.4768
10899TIP3    H154112   5.120   0.071   5.115 -1.2880  5.4679 -1.6740
10899TIP3    H254113   5.181   0.138   5.236  0.3930  0.1205  0.6100
10900TIP3   OH254114   1.792   3.714  13.180 -0.8574  0.5957  0.1138
10900TIP3    H154115   1.829   3.751  13.100  0.3724 -1.9159 -0.5418
10900TIP3    H254116   1.821   3.623  13.179 -2.3712  0.0560  2.5013
10901TIP3   OH254117   2.899   5.169   0.174  0.5321  0.1382  0.0769
10901TIP3    H154118   2.836   5.197   0.241  0.0750 -0.4176 -0.1250
10901TIP3    H254119   2.969   5.128   0.223  1.0025  1.2376  0.3480
10902TIP3   OH254120   2.912   1.230  10.839  0.1333  0.5770 -0.1444
10902TIP3    H154121   2.849   1.236  10.910  1.2376 -0.9457  0.9979
10902TIP3    H254122   2.865   1.185  10.769  0.3987 -2.0428  1.2870
10903TIP3   OH254123   6.592   5.357  13.206 -0.7440  0.0263  0.3172
10903TIP3    H154124   6.577   5.418  13.134  0.3208 -0.1035 -0.0226
10903TIP3    H254125   6.627   5.411  13.277 -0.3022 -0.1066  0.1992
10904TIP3   OH254126   3.900   0.363   1.737  0.0525  0.2055 -0.2858
10904TIP3    H154127   3.815   0.389   1.773  1.4598  0.8195  2.6989
10904TIP3    H254128   3.957   0.355   1.813  2.7119 -0.1416 -2.2538
10905TIP3   OH254129   1.898   5.752   4.500 -0.1443 -0.4491 -0.5392
10905TIP3    H154130   1.923   5.692   4.430 -3.1601 -0.8492 -1.3722
10905TIP3    H254131   1.855   5.825   4.456  0.5538  0.7348  0.6972
10906TIP3   OH254132   4.343   2.369   4.965 -0.2331 -0.0495  0.5910
10906TIP3    H154133   4.354   2.274   4.957 -2.3656 -0.2935  0.2729
10906TIP3    H254134   4.428   2.405   4.939  0.0985 -1.8159 -0.8921
10907TIP3   OH254135   3.133   2.852  15.862  0.1564 -0.2533  0.1769
10907TIP3    H154136   3.101   2.783  15.920  1.8717  0.0139  1.4836
10907TIP3    H254137   3.133   2.931  15.917 -0.5679  0.5374 -0.9326
10908TIP3   OH254138   0.935   3.401  13.949 -0.2331  0.6160  0.0527
10908TIP3    H154139   0.915   3.489  13.917 -2.9585  0.2897  0.7274
10908TIP3    H254140   0.871   3.345  13.905 -0.4822 -0.5951  1.9211
10909TIP3   OH254141   1.642   4.983   0.073 -0.0450  0.0744  0.3354
10909TIP3    H154142   1.652   4.970  -0.022 -0.4408 -1.3818  0.4741
10909TIP3    H254143   1.584   5.059   0.081  1.4150  1.3101 -0.5603
10910TIP3   OH254144   3.558   2.766  10.454  0.8946  0.6792  0.3374
10910TIP3    H154145   3.570   2.852  10.493  0.4921  0.5456  0.7659
10910TIP3    H254146   3.500   2.782  10.379  0.4507  0.7173  0.6847
10911TIP3   OH254147   5.147   1.068  11.978  0.4876  0.0635  0.6391
10911TIP3    H154148   5.157   1.158  12.008  0.8009  0.1906  0.1593
10911TIP3    H254149   5.225   1.023  12.009  0.0040 -0.2136  1.4788
10912TIP3   OH254150   1.032   4.446   0.359  0.3208  0.5150 -0.0622
10912TIP3    H154151   0.967   4.441   0.289  0.4237 -0.6331 -0.0934
10912TIP3    H254152   1.112   4.476   0.316  0.4963 -0.6014 -0.5207
10913TIP3   OH254153   6.757   3.001  17.141  0.1586  0.2663  0.5432
10913TIP3    H154154   6.814   3.064  17.187  0.5872 -0.0433  0.4435
10913TIP3    H254155   6.799   2.989  17.056 -1.7330  2.3776 -0.7254
10914TIP3   OH254156   3.484   2.369  11.642  0.3215  0.5111  0.1332
10914TIP3    H154157   3.520   2.304  11.582  0.7814 -0.1476  1.0922
10914TIP3    H254158   3.560   2.421  11.669  0.1470  0.6953  0.2731
10915TIP3   OH254159   6.193   3.217  16.614 -0.4780 -0.6121 -0.1612
10915TIP3    H154160   6.220   3.294  16.664 -2.9498 -1.0057  1.8550
10915TIP3    H254161   6.260   3.151  16.634  0.2625  0.2060  0.1070
10916TIP3   OH254162   2.510   6.227  16.321 -0.1272  0.3711  0.0308
10916TIP3    H154163   2.530   6.143  16.280  0.4284 -1.1450  3.2414
10916TIP3    H254164   2.415   6.233  16.319 -0.2266 -0.8430  0.6851
10917TIP3   OH254165   0.690   6.412  16.698  0.1401  0.2024 -0.6197
10917TIP3    H154166   0.659   6.335  16.745 -0.7972  1.6306  1.1539
10917TIP3    H254167   0.749   6.377  16.631 -1.9969 -2.2070 -1.3156
10918TIP3   OH254168   2.651   0.088   4.172 -0.0274 -0.2368  0.6143
10918TIP3    H154169   2.556   0.092   4.164  0.1928  2.3866 -1.9714
10918TIP3    H254170   2.673   0.154   4.238  0.0357 -0.5131  0.8719
10919TIP3   OH254171   2.267   6.287  13.067 -0.3510  0.1080 -0.8586
10919TIP3    H154172   2.329   6.329  13.008 -0.3535  1.1390 -0.1374
10919TIP3    H254173   2.316   6.216  13.108  0.2408  0.6796 -0.5784
10920TIP3   OH254174   3.869   5.406   1.433 -0.6678  0.2807  0.4376
10920TIP3    H154175   3.842   5.361   1.513 -2.6268  0.4180 -0.1196
10920TIP3    H254176   3.790   5.452   1.404 -0.1663 -0.2716 -1.9029
10921TIP3   OH254177   3.178   5.497  10.256  0.1359  0.3184 -0.3580
10921TIP3    H154178   3.091   5.535  10.241 -0.4791 -0.5343  0.9439
10921TIP3    H254179   3.194   5.510  10.349  0.8072 -0.7707 -0.3078
10922TIP3   OH254180   4.249   0.878   4.113 -0.1793 -0.0194  0.0989
10922TIP3    H154181   4.283   0.815   4.050  0.1649 -0.4057  0.6752
10922TIP3    H254182   4.326   0.911   4.160 -0.1789  1.9493 -1.2158
10923TIP3   OH254183   2.238   6.574   3.707  0.0945  0.2013  0.1425
10923TIP3    H154184   2.246   6.577   3.803 -2.6520  0.7893  0.3988
10923TIP3    H254185   2.196   6.657   3.685  1.0490  0.2237 -1.6430
10924TIP3   OH254186   0.256   1.306   6.786 -0.1401 -0.0112 -0.3939
10924TIP3    H154187   0.294   1.371   6.845 -0.0479  1.2307 -1.7830
10924TIP3    H254188   0.267   1.223   6.831  2.6091  0.5507  0.0215
10925TIP3   OH254189   5.245   0.560  14.817  0.2998 -0.2727 -0.5391
10925TIP3    H154190   5.273   0.648  14.790 -1.5817  0.1411 -1.2283
10925TIP3    H254191   5.240   0.510  14.735 -1.5002 -0.1700 -0.5059
10926TIP3   OH254192   2.826   3.093  15.603  0.2994  0.0093 -0.1665
10926TIP3    H154193   2.847   3.048  15.521 -0.4281  0.1669 -0.4471
10926TIP3    H254194   2.740   3.132  15.587 -0.4386 -1.0538  1.1400
10927TIP3   OH254195   3.276   4.381  16.460 -0.2876 -0.6152  0.4917
10927TIP3    H154196   3.276   4.391  16.365  0.9825 -0.3118  0.5136
10927TIP3    H254197   3.187   4.355  16.482 -0.9135  0.5166 -0.6665
10928TIP3   OH254198   0.696   0.226   0.700 -0.1237  0.4057  0.1595
10928TIP3    H154199   0.781   0.266   0.685  0.2398 -0.1354  0.7497
10928TIP3    H254200   0.670   0.191   0.615  1.0365 -0.9559  0.3509
10929TIP3   OH254201   5.934   1.556  12.065 -0.7828 -0.2461  0.1205
10929TIP3    H154202   5.997   1.485  12.048  0.2795  1.0869 -1.6870
10929TIP3    H254203   5.887   1.528  12.143  1.5221 -1.6566  1.0427
10930TIP3   OH254204   5.775   1.669   6.287 -0.3592  0.1685  0.7172
10930TIP3    H154205   5.685   1.655   6.258  0.0049 -2.0686  0.6049
10930TIP3    H254206   5.828   1.613   6.230  0.8020 -0.7600  2.6621
10931TIP3   OH254207   2.968   3.518   5.111 -0.1649 -0.4220 -0.4518
10931TIP3    H154208   3.017   3.464   5.049  2.5073  0.6039  0.7156
10931TIP3    H254209   2.968   3.467   5.192  1.5323  0.8898  0.3785
10932TIP3   OH254210   0.705   5.391   3.875  0.2817  0.6651 -0.7130
10932TIP3    H154211   0.666   5.450   3.810 -1.0554 -1.3411 -1.7683
10932TIP3    H254212   0.784   5.358   3.832  0.2952  0.6131 -0.6474
10933TIP3   OH254213   3.927   3.261   1.185 -0.1960 -0.2058  0.1348
10933TIP3    H154214   3.839   3.256   1.147  0.2344  0.9521 -1.0255
10933TIP3    H254215   3.946   3.354   1.190  1.5823 -0.4925 -1.0114
10934TIP3   OH254216   1.747   3.762   2.700  0.1202  0.2237 -0.7999
10934TIP3    H154217   1.743   3.672   2.732  2.6483 -0.1779 -1.4721
10934TIP3    H254218   1.689   3.811   2.757 -0.9658 -1.7713 -0.1615
10935TIP3   OH254219   0.047   4.257   3.018  0.1954 -0.4477 -0.1857
10935TIP3    H154220  -0.014   4.214   2.959  0.4327 -0.7404 -0.2179
10935TIP3    H254221   0.133   4.230   2.986  0.5540  3.4112 -2.9059
10936TIP3   OH254222   3.611   5.318  13.832  0.1890 -0.8520  0.9073
10936TIP3    H154223   3.526   5.363  13.830 -0.0135 -1.2514  0.5543
10936TIP3    H254224   3.646   5.330  13.744  0.9078  0.0856  1.3080
10937TIP3   OH254225   3.676   3.032  12.816  0.1191  0.4383  0.1332
10937TIP3    H154226   3.611   2.990  12.873 -1.7561 -1.2732 -3.0763
10937TIP3    H254227   3.751   2.973  12.818 -0.9958 -1.0979 -1.2186
10938TIP3   OH254228   4.624   4.436  13.207  0.1468 -0.1788 -0.1658
10938TIP3    H154229   4.665   4.418  13.292  0.4514  2.3278  0.2400
10938TIP3    H254230   4.691   4.483  13.158 -1.6472  2.5457 -0.0868
10939TIP3   OH254231   4.183   0.995  11.810 -0.4759  0.4414 -0.1499
10939TIP3    H154232   4.247   1.066  11.803 -0.7951  0.6600 -0.9316
10939TIP3    H254233   4.105   1.036  11.847 -1.1367  0.8241 -1.9116
10940TIP3   OH254234   5.655   4.885  16.438  0.1041  0.1110  0.4034
10940TIP3    H154235   5.585   4.944  16.409 -0.6501 -0.8952  0.1481
10940TIP3    H254236   5.728   4.943  16.460 -0.7731  1.1634  0.5619
10941TIP3   OH254237   4.635   6.204  10.738  0.7809 -0.1529 -0.4423
10941TIP3    H154238   4.637   6.223  10.644  0.2870 -1.0789 -0.6529
10941TIP3    H254239   4.695   6.130  10.748  0.2401 -0.5604 -0.1611
10942TIP3   OH254240   6.716   6.088  11.627  0.5214  0.1861 -0.0283
10942TIP3    H154241   6.719   6.118  11.718  0.6725  0.8778 -0.2593
10942TIP3    H254242   6.706   6.169  11.576  2.2783 -0.0421 -0.7461
10943TIP3   OH254243   1.132   4.512   4.706  0.4568 -0.8932  0.0451
10943TIP3    H154244   1.139   4.604   4.733 -0.0115 -1.4443  2.1511
10943TIP3    H254245   1.037   4.497   4.702  0.5367 -1.3630  0.0023
10944TIP3   OH254246   6.225   0.598  11.914  0.3442  0.6184 -0.4163
10944TIP3    H154247   6.253   0.507  11.914  1.2471  0.8871 -1.6529
10944TIP3    H254248   6.202   0.616  12.005  1.5353 -0.4125  0.0966
10945TIP3   OH254249   1.247   0.335  16.632  0.3572  0.1126  0.2183
10945TIP3    H154250   1.267   0.415  16.583  4.0969 -0.2237  1.0208
10945TIP3    H254251   1.211   0.365  16.715  2.1029  1.0207  0.6632
10946TIP3   OH254252   5.887   5.526  14.047  0.5241  0.0905 -0.2102
10946TIP3    H154253   5.818   5.463  14.027  1.2683 -1.0772  0.7747
10946TIP3    H254254   5.861   5.564  14.131  1.4098 -0.8666  0.5131
10947TIP3   OH254255   4.119   2.342  11.984  0.2276 -0.0187 -0.4785
10947TIP3    H154256   4.117   2.264  12.039  1.2367 -0.4910 -1.0955
10947TIP3    H254257   4.051   2.399  12.020 -1.7300 -1.8994 -1.0856
10948TIP3   OH254258   4.176   4.268   1.614  0.3221  0.0115  0.1698
10948TIP3    H154259   4.206   4.318   1.539  1.6887 -0.4799  0.3670
10948TIP3    H254260   4.223   4.306   1.689  0.9109 -1.1342  0.4050
10949TIP3   OH254261   3.762   1.094   5.241  0.0269 -0.2569  0.4173
10949TIP3    H154262   3.792   1.166   5.296 -0.5633  1.0494 -0.9601
10949TIP3    H254263   3.700   1.133   5.180 -2.8479 -2.5103  1.7542
10950TIP3   OH254264   6.576   1.116  12.315 -0.2964 -0.4096 -0.2445
10950TIP3    H154265   6.502   1.172  12.290 -0.4326 -0.8085 -0.7341
10950TIP3    H254266   6.611   1.157  12.394  1.1851  1.8226 -1.9842
10951TIP3   OH254267   4.965   6.134  11.243  0.0743  0.2250 -0.6371
10951TIP3    H154268   5.036   6.156  11.184  0.4756  0.1611 -0.1783
10951TIP3    H254269   4.887   6.132  11.187  0.6473 -1.1243 -1.4060
10952TIP3   OH254270   3.757   5.780   1.417  0.4903 -0.0390 -0.3297
10952TIP3    H154271   3.665   5.794   1.440  1.0322  0.5416  1.5877
10952TIP3    H254272   3.756   5.759   1.324 -1.3208  2.9685 -1.0662
10953TIP3   OH254273   4.065   4.892   5.838 -0.1167  0.0858 -0.0046
10953TIP3    H154274   4.125   4.902   5.764 -0.5430  2.2803 -0.0790
10953TIP3    H254275   4.106   4.939   5.910 -1.9987  2.1994 -0.2353
10954TIP3   OH254276   2.723   5.041  12.814 -0.4230 -0.5346  0.3224
10954TIP3    H154277   2.647   5.009  12.863 -1.1058 -2.4318 -1.8638
10954TIP3    H254278   2.766   4.961  12.782 -0.3641  0.6259 -2.6662
10955TIP3   OH254279   6.742   0.557   2.875  0.3263 -0.1061 -0.0739
10955TIP3    H154280   6.680   0.486   2.860  1.1467 -1.0788  0.9943
10955TIP3    H254281   6.699   0.634   2.839 -1.8698 -0.6094  1.3135
10956TIP3   OH254282   4.260   5.589   3.616 -0.3182 -0.2110 -0.4183
10956TIP3    H154283   4.177   5.627   3.643  0.0617  0.7292 -0.5590
10956TIP3    H254284   4.327   5.644   3.657  0.2393 -0.4787 -0.9512
10957TIP3   OH254285   2.358   2.794  16.582  0.4762  0.2012 -0.1359
10957TIP3    H154286   2.307   2.797  16.501  1.0072  1.1218 -0.4541
10957TIP3    H254287   2.399   2.708  16.582 -0.1707 -0.1100 -0.4458
10958TIP3   OH254288   6.079   5.833  12.641  0.8803 -0.1040  0.0525
10958TIP3    H154289   6.034   5.792  12.567 -0.4825  1.3467  0.0409
10958TIP3    H254290   6.048   5.786  12.718 -1.9960  1.9232  0.2112
10959TIP3   OH254291   1.703   6.141  12.797  0.1678  0.0485 -0.2646
10959TIP3    H154292   1.616   6.112  12.771  0.0941  0.5770 -0.6134
10959TIP3    H254293   1.761   6.104  12.730  0.3845 -1.4982  0.7516
10960TIP3   OH254294   3.808   2.228  10.770  0.3394 -0.7091  0.2703
10960TIP3    H154295   3.847   2.198  10.852  0.9057 -2.8111 -0.7436
10960TIP3    H254296   3.777   2.149  10.727 -1.1241  0.5013 -0.9696
10961TIP3   OH254297   4.669   3.008   3.338  0.2743  0.1361  0.0402
10961TIP3    H154298   4.764   3.021   3.342  0.4300 -1.2134  0.8811
10961TIP3    H254299   4.650   2.947   3.409 -1.3416  1.0596  0.4288
10962TIP3   OH254300   3.716   0.329  11.210 -0.0416 -0.2052 -0.5626
10962TIP3    H154301   3.753   0.312  11.123  0.3449  0.7133 -0.5764
10962TIP3    H254302   3.748   0.416  11.234  0.5386 -0.7959  0.8681
10963TIP3   OH254303   2.295   1.938   4.187 -0.1636  0.2900 -0.0081
10963TIP3    H154304   2.366   2.001   4.196  0.5631 -0.5132 -0.0080
10963TIP3    H254305   2.256   1.933   4.275 -0.2683  0.7792 -0.0246
10964TIP3   OH254306   3.290   4.487   4.617 -0.1715 -0.1545  0.4219
10964TIP3    H154307   3.257   4.571   4.584  0.6874 -0.2944 -0.8588
10964TIP3    H254308   3.289   4.429   4.540 -0.8550 -1.3480  1.3187
10965TIP3   OH254309   6.273   4.593   6.145 -0.5318  0.8328 -0.6509
10965TIP3    H154310   6.359   4.552   6.157 -1.8956 -2.0043 -0.1841
10965TIP3    H254311   6.291   4.672   6.094  2.1341 -0.6875 -2.1720
10966TIP3   OH254312   2.778   0.650   5.235  0.2067 -0.2404  0.2851
10966TIP3    H154313   2.761   0.685   5.323  1.8054  0.1821  0.4327
10966TIP3    H254314   2.849   0.587   5.248 -0.9014 -1.6548 -0.3991
10967TIP3   OH254315   6.341   4.852   3.066 -0.1607  0.3618  0.1716
10967TIP3    H154316   6.352   4.927   3.125  2.8812  0.4329 -0.3790
10967TIP3    H254317   6.391   4.781   3.107 -0.1486 -0.3415 -1.0176
10968TIP3   OH254318   4.782   5.413  13.516 -0.3091  0.3661 -0.0644
10968TIP3    H154319   4.796   5.323  13.487 -3.3635 -0.9478  2.2296
10968TIP3    H254320   4.867   5.441  13.550  0.3028 -2.1991  0.6016
10969TIP3   OH254321   2.332   2.180   4.983  0.3282  0.0029 -0.4590
10969TIP3    H154322   2.335   2.275   4.970 -0.8807  0.0566 -0.4472
10969TIP3    H254323   2.422   2.155   5.002  0.4586  1.3261  0.7403
10970TIP3   OH254324   5.182   5.943   3.666  0.4701 -0.0777 -0.5039
10970TIP3    H154325   5.189   6.004   3.592 -0.7763 -0.2293 -0.7623
10970TIP3    H254326   5.156   5.860   3.626  0.4881 -0.3387  0.0285
10971TIP3   OH254327   5.877   0.603  16.112 -0.3710  0.0239 -0.5274
10971TIP3    H154328   5.885   0.619  16.206 -1.5272 -1.3762 -0.1551
10971TIP3    H254329   5.832   0.680  16.078  1.3198  1.1770 -0.1762
10972TIP3   OH254330   1.093   0.692   3.181 -0.0677 -0.8932 -0.6403
10972TIP3    H154331   1.109   0.761   3.116 -0.1394  0.5287  0.8015
10972TIP3    H254332   1.178   0.680   3.225 -0.8170  0.6595  1.3284
10973TIP3   OH254333   5.991   6.598   0.476 -0.2821  0.3486  0.5231
10973TIP3    H154334   6.049   6.575   0.404 -0.5822  0.3855  0.2715
10973TIP3    H254335   5.925   6.654   0.437 -1.6279 -1.2981  0.4102
10974TIP3   OH254336   2.464   4.243   5.456 -0.2601  0.1923  0.2735
10974TIP3    H154337   2.415   4.298   5.517 -0.7085  0.4009 -0.2742
10974TIP3    H254338   2.406   4.233   5.380  0.5551  0.4728 -0.3916
10975TIP3   OH254339   4.481   4.230   6.631  0.9044 -0.1954  0.7914
10975TIP3    H154340   4.393   4.246   6.666  0.3414 -0.3282 -0.5015
10975TIP3    H254341   4.525   4.180   6.699  0.0294  0.0302  1.5355
10976TIP3   OH254342   6.505   2.427  13.924  0.5006 -0.1962  0.2948
10976TIP3    H154343   6.541   2.512  13.900  1.0847 -0.8269 -1.1466
10976TIP3    H254344   6.504   2.427  14.019  1.2771  1.0958  0.3106
10977TIP3   OH254345   1.495   3.787  15.823  0.0426 -0.0104 -0.1592
10977TIP3    H154346   1.507   3.812  15.732 -0.3128 -3.4720 -1.2264
10977TIP3    H254347   1.405   3.755  15.829  0.5300 -1.2633  1.0038
10978TIP3   OH254348   1.098   0.907   3.985  0.3630 -0.2792  0.3337
10978TIP3    H154349   1.118   0.996   3.957 -1.8477 -0.0927 -0.7229
10978TIP3    H254350   1.096   0.912   4.081  0.8695  0.6705  0.3004
10979TIP3   OH254351   0.888   2.139  12.703 -0.8379 -0.4827  0.5636
10979TIP3    H154352   0.976   2.131  12.667 -0.8958  0.6762  0.1299
10979TIP3    H254353   0.862   2.049  12.725 -0.4730 -1.1158 -1.5077
10980TIP3   OH254354   3.575   1.524   1.143  0.3284 -0.3688  0.5533
10980TIP3    H154355   3.579   1.439   1.099 -0.3313  0.2510 -0.7305
10980TIP3    H254356   3.608   1.507   1.231  1.6066 -1.6509 -0.1562
10981TIP3   OH254357   3.563   6.228  14.463 -0.3778  0.0995  0.0609
10981TIP3    H154358   3.566   6.324  14.468 -0.5865  0.1505 -0.7983
10981TIP3    H254359   3.487   6.204  14.516  1.1317  0.2428  2.3816
10982TIP3   OH254360   2.349   4.877  12.097  0.4290 -0.1921 -0.2549
10982TIP3    H154361   2.348   4.799  12.042 -1.9705 -0.2402 -0.1992
10982TIP3    H254362   2.308   4.848  12.179  1.4882  0.5910  0.5684
10983TIP3   OH254363   5.387   2.882  15.758 -0.2751 -0.2205  0.8147
10983TIP3    H154364   5.348   2.969  15.762  1.2457  0.4781  0.9589
10983TIP3    H254365   5.469   2.895  15.710 -1.0154 -1.9631 -0.9980
10984TIP3   OH254366   3.363   4.589  11.265  0.5300  0.3277  0.3579
10984TIP3    H154367   3.297   4.557  11.327  0.8062  2.1552  1.6249
10984TIP3    H254368   3.320   4.663  11.222  0.0205 -1.4377 -2.3118
10985TIP3   OH254369   4.390   1.687  16.048 -0.0542  0.0843 -0.2035
10985TIP3    H154370   4.341   1.724  15.975 -0.7555 -0.5069 -0.0393
10985TIP3    H254371   4.481   1.708  16.029 -0.4393  2.0128 -0.0544
10986TIP3   OH254372   6.655   4.066   4.823 -0.5949 -0.1814 -0.4734
10986TIP3    H154373   6.575   4.038   4.866 -0.4935 -0.4412 -0.4503
10986TIP3    H254374   6.669   4.001   4.755  0.0712 -0.6354  0.0902
10987TIP3   OH254375   0.817   3.598   6.676  0.5297  0.1257 -0.1356
10987TIP3    H154376   0.865   3.573   6.598  1.2405 -0.0155  0.3384
10987TIP3    H254377   0.883   3.638   6.733 -0.0233  0.4353  0.2922
10988TIP3   OH254378   5.371   1.653  15.677  0.0728 -0.2617 -0.6021
10988TIP3    H154379   5.404   1.601  15.751  0.4037  0.2613 -0.3757
10988TIP3    H254380   5.364   1.591  15.605  0.7096 -0.5691 -0.4030
10989TIP3   OH254381   3.333   4.982   3.866  0.5627 -0.1082 -0.1329
10989TIP3    H154382   3.356   5.067   3.828  0.4017 -0.3992 -0.8869
10989TIP3    H254383   3.415   4.933   3.866  0.8431  0.3335  1.0846
10990TIP3   OH254384   0.829   4.353  14.793 -0.4148  0.1686  0.3127
10990TIP3    H154385   0.843   4.302  14.713 -2.8814 -0.3857  0.2163
10990TIP3    H254386   0.829   4.288  14.863 -0.7286  0.3754  0.5004
10991TIP3   OH254387   0.198   0.046   4.188 -0.9952  0.1169  0.7121
10991TIP3    H154388   0.128   0.024   4.127 -0.8056  0.0678  0.5123
10991TIP3    H254389   0.270   0.075   4.133  0.1013 -2.4233  0.7487
10992TIP3   OH254390   1.311   5.098  12.683 -0.3822 -0.6592 -0.3309
10992TIP3    H154391   1.317   5.003  12.696  0.7343 -0.5776 -0.1945
10992TIP3    H254392   1.229   5.123  12.727  0.3725 -1.2547  1.4879
10993TIP3   OH254393   2.943   2.857   4.231  0.4211  0.2221  0.2138
10993TIP3    H154394   2.936   2.922   4.301 -0.1849 -0.6718  0.9881
10993TIP3    H254395   2.853   2.837   4.207  0.5763 -1.0144  0.6220
10994TIP3   OH254396   1.146   2.422  11.909 -1.1160 -0.7448  0.2461
10994TIP3    H154397   1.241   2.432  11.915 -1.1450  0.1080 -0.5559
10994TIP3    H254398   1.129   2.335  11.947 -0.2255 -0.1464  2.0971
10995TIP3   OH254399   2.115   5.972   0.978 -0.3182  0.2290  0.1185
10995TIP3    H154400   2.077   5.928   1.054 -1.2530 -0.3586 -0.6811
10995TIP3    H254401   2.041   6.014   0.935  0.0428 -0.3383 -1.0670
10996TIP3   OH254402   6.365   0.118  16.065 -0.0408  0.0442  0.0978
10996TIP3    H154403   6.457   0.116  16.040  0.5458 -0.0908  2.1532
10996TIP3    H254404   6.354   0.041  16.122 -1.6223 -0.4124 -0.7873
10997TIP3   OH254405   0.034   6.483   0.927  0.5652  0.4097 -0.1809
10997TIP3    H154406   0.002   6.444   1.007  0.9051  0.2574 -0.1174
10997TIP3    H254407   0.098   6.421   0.893 -1.4247 -0.7727 -1.9276
10998TIP3   OH254408   0.353   5.685   5.707 -0.0924  0.4752 -0.5100
10998TIP3    H154409   0.350   5.765   5.760 -0.3635 -0.0197  0.2327
10998TIP3    H254410   0.268   5.680   5.665  0.3407  1.1934 -1.4835
10999TIP3   OH254411   3.231   0.254   0.488  0.2041 -0.0556 -0.2266
10999TIP3    H154412   3.163   0.316   0.512  1.5795  1.9635 -1.3981
10999TIP3    H254413   3.191   0.198   0.422 -1.1888 -0.7124  1.1524
11000TIP3   OH254414   0.536   5.174  11.907  0.5942 -0.4847  0.2827
11000TIP3    H154415   0.498   5.218  11.984  0.4410 -0.8662  0.4295
11000TIP3    H254416   0.600   5.113  11.944 -1.0583 -2.2764  0.2676
11001TIP3   OH254417   0.528   3.725  15.676 -0.0210 -0.2317  0.3760
11001TIP3    H154418   0.435   3.707  15.662 -0.0282 -0.6733  0.9687
11001TIP3    H254419   0.567   3.639  15.692  0.6009 -0.1141 -0.5028
11002TIP3   OH254420   4.093   0.244   6.602 -0.1918  0.5904  0.0262
11002TIP3    H154421   4.121   0.335   6.594  1.5335 -0.1464 -3.6936
11002TIP3    H254422   4.171   0.197   6.631 -0.7815  0.1338  0.9049
11003TIP3   OH254423   0.855   4.954  12.846  0.1918 -0.0635 -0.4653
11003TIP3    H154424   0.832   4.884  12.907  1.2874 -0.6321 -0.6909
11003TIP3    H254425   0.788   5.021  12.860 -0.7312 -1.0480 -0.0760
11004TIP3   OH254426   2.636   5.819  15.347  0.4170  0.6090  0.0655
11004TIP3    H154427   2.550   5.860  15.356  0.6065  1.1432 -0.4877
11004TIP3    H254428   2.625   5.731  15.382  0.0619  1.2109  1.5071
11005TIP3   OH254429   3.164   0.874   1.239  0.0152 -0.3473 -0.3690
11005TIP3    H154430   3.239   0.887   1.296 -0.6280  0.2308  0.3725
11005TIP3    H254431   3.151   0.779   1.237 -0.8537 -0.3045  1.6690
11006TIP3   OH254432   4.169   3.393  13.770  0.5041 -0.1437 -0.0946
11006TIP3    H154433   4.253   3.384  13.814  0.7028  3.2405  0.3784
11006TIP3    H254434   4.190   3.420  13.681 -0.0630  1.3780  0.2162
11007TIP3   OH254435   3.115   6.495  15.016  0.3459 -0.2043  0.2864
11007TIP3    H154436   3.076   6.435  14.952 -0.4427  0.1417  0.4405
11007TIP3    H254437   3.173   6.440  15.068  2.5996 -0.1315 -2.0209
11008TIP3   OH254438   6.414   3.856   2.079  0.0628  0.3581 -0.1864
11008TIP3    H154439   6.381   3.838   2.166 -0.4103 -2.5127 -0.8887
11008TIP3    H254440   6.496   3.903   2.093 -0.9926  1.6890  1.7128
11009TIP3   OH254441   0.441   1.480   2.392 -0.3989  0.0558 -0.1309
11009TIP3    H154442   0.521   1.463   2.442 -1.5652  0.5253  1.9519
11009TIP3    H254443   0.467   1.468   2.301  1.7200 -1.0934  0.5829
11010TIP3   OH254444   0.766   4.176  14.108  0.0340 -0.2017  0.5569
11010TIP3    H154445   0.721   4.116  14.048 -0.1696 -1.7098  2.1478
11010TIP3    H254446   0.834   4.122  14.149  1.6846  1.4199 -0.0288
11011TIP3   OH254447   4.961   4.507   4.632 -0.1451 -0.0284  0.1171
11011TIP3    H154448   4.973   4.516   4.726 -1.2982  1.5761  0.1261
11011TIP3    H254449   4.995   4.588   4.595  0.8330 -0.8940 -0.9067
11012TIP3   OH254450   6.239   1.029   2.521  0.1020  0.2682  0.3500
11012TIP3    H154451   6.250   1.082   2.443  0.3018  0.2651  0.3752
11012TIP3    H254452   6.152   0.990   2.512  0.1606  0.1999  0.0889
11013TIP3   OH254453   1.233   0.519  17.079 -0.4597 -0.0445 -0.0856
11013TIP3    H154454   1.268   0.590  17.025 -0.4300 -0.2406 -0.3180
11013TIP3    H254455   1.259   0.543  17.168  1.8563 -1.1249 -0.4393
11014TIP3   OH254456   0.309   4.794   4.875 -0.3868 -0.0001 -0.5584
11014TIP3    H154457   0.237   4.731   4.870  1.0880 -2.1672  3.2119
11014TIP3    H254458   0.348   4.793   4.788 -3.0635 -0.9931 -1.8059
11015TIP3   OH254459   5.908   5.820  16.541 -0.2597  0.2639  0.3523
11015TIP3    H154460   5.945   5.732  16.553  0.6599  0.5985 -0.0545
11015TIP3    H254461   5.854   5.812  16.462  1.1380  0.4884 -0.6298
11016TIP3   OH254462   0.300   3.957  12.452 -0.2012 -0.1881 -0.1066
11016TIP3    H154463   0.348   3.963  12.535  2.7769 -1.4082 -1.6247
11016TIP3    H254464   0.240   3.883  12.464 -0.6102  0.3816  1.3494
11017TIP3   OH254465   0.999   0.795   1.625  0.5109 -0.3221 -0.2514
11017TIP3    H154466   0.950   0.863   1.671 -0.6340  0.2230 -2.2275
11017TIP3    H254467   0.948   0.777   1.547  2.4330 -1.1989 -1.3447
11018TIP3   OH254468   3.690   6.689  16.772 -0.0467  0.9229  0.0585
11018TIP3    H154469   3.711   6.601  16.801  2.3744  1.6302  0.5077
11018TIP3    H254470   3.658   6.733  16.851 -2.3632  0.1554 -0.4051
11019TIP3   OH254471   2.765   6.250  14.602  0.6546 -0.6367  0.3434
11019TIP3    H154472   2.671   6.261  14.587  0.5629 -0.7019  0.8532
11019TIP3    H254473   2.799   6.218  14.518  0.3514  0.1125 -0.0693
11020TIP3   OH254474   5.163   1.558  13.163  0.4336  0.1712  0.8382
11020TIP3    H154475   5.204   1.562  13.077 -0.8860 -1.7581  0.0931
11020TIP3    H254476   5.083   1.610  13.154 -0.0843 -0.6534  0.6809
11021TIP3   OH254477   4.575   4.139  12.609  0.2123  0.1237  0.1766
11021TIP3    H154478   4.645   4.079  12.583  0.5025  0.9736 -1.0814
11021TIP3    H254479   4.525   4.091  12.675  1.6154 -0.7323  0.6369
11022TIP3   OH254480   1.088   3.648  12.915  0.3058 -0.9159 -0.3327
11022TIP3    H154481   1.122   3.730  12.877 -2.3503  1.3761  2.0198
11022TIP3    H254482   1.138   3.637  12.996  0.4117 -1.4340 -0.4692
11023TIP3   OH254483   2.412   2.103  13.864  0.0495  0.4778  0.9152
11023TIP3    H154484   2.477   2.172  13.850  0.3725  0.5957  2.8349
11023TIP3    H254485   2.461   2.033  13.907 -0.9594  0.3616  1.9060
11024TIP3   OH254486   0.588   6.134  12.889  0.2292  0.0768  0.6102
11024TIP3    H154487   0.650   6.101  12.955  0.8129 -1.1239 -0.5272
11024TIP3    H254488   0.635   6.128  12.806 -1.8046 -1.9944 -0.4439
11025TIP3   OH254489   0.274   3.630  11.770 -0.5856  0.2709 -0.7184
11025TIP3    H154490   0.240   3.608  11.683  0.5880  0.2453 -1.1704
11025TIP3    H254491   0.337   3.700  11.754  0.4314 -0.4814 -0.0173
11026TIP3   OH254492   1.461   2.119   4.083  0.0637 -0.0857 -0.2009
11026TIP3    H154493   1.478   2.059   4.010 -0.2833 -0.1338 -0.2417
11026TIP3    H254494   1.380   2.087   4.121 -0.5496  0.8488 -0.7168
11027TIP3   OH254495   6.043   3.338   6.028 -0.3373  0.0950  0.2272
11027TIP3    H154496   6.047   3.429   6.055  2.4420 -0.1920  1.0084
11027TIP3    H254497   6.085   3.337   5.942  1.1463 -0.6472  0.9354
11028TIP3   OH254498   1.689   1.118   6.608 -0.5643 -0.4424  0.3068
11028TIP3    H154499   1.606   1.153   6.577 -0.0307  1.2244  0.6944
11028TIP3    H254500   1.725   1.187   6.664  1.5706 -0.7046 -0.6884
11029TIP3   OH254501   3.937   5.036   5.455  0.1318  0.1672  0.1383
11029TIP3    H154502   3.926   5.056   5.548  0.7348  1.6530 -0.0915
11029TIP3    H254503   3.973   5.116   5.417  0.6591 -0.6899 -1.2334
11030TIP3   OH254504   1.410   2.596  15.433 -0.1237  0.1364 -0.8313
11030TIP3    H154505   1.320   2.575  15.459  0.5749  0.0860  1.5953
11030TIP3    H254506   1.460   2.594  15.514  1.5297  3.1082 -1.7123
11031TIP3   OH254507   5.309   6.379  15.056  0.0424  0.0950 -0.7912
11031TIP3    H154508   5.301   6.383  15.151  2.5234  1.4837 -0.6076
11031TIP3    H254509   5.247   6.444  15.024 -2.3110 -1.8003 -0.2706
11032TIP3   OH254510   4.605   3.331   0.413 -0.4453  0.0852 -0.7180
11032TIP3    H154511   4.525   3.279   0.418  0.0912 -0.6950 -0.2255
11032TIP3    H254512   4.605   3.366   0.324 -1.2924  0.0239 -0.7473
11033TIP3   OH254513   0.719   5.034  12.065 -0.2253  0.2052 -0.3125
11033TIP3    H154514   0.813   5.032  12.049  0.1469  2.7793  1.3603
11033TIP3    H254515   0.707   4.986  12.147 -0.0777  1.7770  0.6482
11034TIP3   OH254516   0.059   1.072   4.926  0.5504  0.1721 -0.7578
11034TIP3    H154517   0.009   1.060   5.006  0.4001  2.1937 -0.5277
11034TIP3    H254518   0.017   1.015   4.862  0.5467 -1.2923  0.5384
11035TIP3   OH254519   4.654   0.665  12.863  0.4028  0.2204  0.0622
11035TIP3    H154520   4.622   0.704  12.945 -1.3992 -2.7469  0.8736
11035TIP3    H254521   4.724   0.605  12.891 -1.8080 -2.6071 -0.1736
11036TIP3   OH254522   2.585   0.101   4.762 -0.1095  0.2870 -0.0779
11036TIP3    H154523   2.493   0.125   4.775  0.4098  1.1258  2.4076
11036TIP3    H254524   2.634   0.171   4.806  1.7555  0.2316 -1.9967
11037TIP3   OH254525   3.733   0.549   4.724 -0.2012 -0.4562 -0.3084
11037TIP3    H154526   3.699   0.553   4.635 -0.9512  1.1149  0.0239
11037TIP3    H254527   3.681   0.481   4.767 -2.1492  1.0678 -0.1598
11038TIP3   OH254528   2.454   3.368  11.638 -0.7188 -0.2295  0.2058
11038TIP3    H154529   2.425   3.282  11.667  0.7803 -0.3615  1.3424
11038TIP3    H254530   2.398   3.388  11.562 -0.3183 -2.6623 -0.7534
11039TIP3   OH254531   3.481   0.232   0.603  0.3215 -0.9131 -0.2879
11039TIP3    H154532   3.540   0.247   0.529 -1.1087 -0.3108 -1.3363
11039TIP3    H254533   3.394   0.249   0.567 -0.6597 -3.4957  0.7751
11040TIP3   OH254534   1.220   3.375  11.911  0.5303 -0.1502 -0.0917
11040TIP3    H154535   1.315   3.371  11.901  0.6790  1.9905  0.2572
11040TIP3    H254536   1.188   3.295  11.868  2.4226 -0.5863 -0.7523
11041TIP3   OH254537   3.955   4.012   4.527 -0.7539 -0.0055  0.0903
11041TIP3    H154538   4.049   4.029   4.517 -0.1985 -1.9360  1.7552
11041TIP3    H254539   3.918   4.097   4.552  0.6927  0.5681  0.3689
11042TIP3   OH254540   1.073   1.132  13.808  0.7059 -0.3575 -0.1046
11042TIP3    H154541   1.147   1.153  13.752 -0.2699  1.1389 -0.8698
11042TIP3    H254542   1.048   1.216  13.848 -1.4993 -0.5453 -1.0181
11043TIP3   OH254543   1.707   4.327  12.756  0.2128 -0.0684 -0.4567
11043TIP3    H154544   1.671   4.238  12.763 -2.6511  1.0129 -0.7423
11043TIP3    H254545   1.697   4.350  12.663  0.0511  0.8965 -0.2084
11044TIP3   OH254546   1.854   0.131   0.696 -0.2498 -0.0242 -0.6251
11044TIP3    H154547   1.835   0.077   0.619 -0.2652 -0.2274 -0.4780
11044TIP3    H254548   1.892   0.071   0.759 -1.0981 -0.0427 -0.1273
11045TIP3   OH254549   1.799   2.050  16.713 -0.3216 -0.6239  0.5567
11045TIP3    H154550   1.852   2.097  16.648 -1.2925 -1.0000 -0.5401
11045TIP3    H254551   1.853   2.048  16.792  0.3135  1.0639  0.1860
11046TIP3   OH254552   5.035   6.214   6.294  0.2054  0.0349 -0.0073
11046TIP3    H154553   5.099   6.169   6.239 -0.5357 -1.6511  0.5036
11046TIP3    H254554   5.048   6.179   6.381 -1.0269  0.1032  0.2152
11047TIP3   OH254555   5.915   2.917  15.135  0.6488 -0.5987 -0.9694
11047TIP3    H154556   5.966   2.862  15.075  2.5751 -0.6409  0.6374
11047TIP3    H254557   5.908   2.865  15.215 -4.6440 -1.8670 -2.0847
11048TIP3   OH254558   3.554   5.665  12.207  0.5032  0.3091 -0.2147
11048TIP3    H154559   3.620   5.696  12.145  0.5707  2.6892  0.9943
11048TIP3    H254560   3.604   5.622  12.277  0.6661  0.5934 -0.1554
11049TIP3   OH254561   4.364   6.054  15.101 -0.0039  0.2718 -0.1592
11049TIP3    H154562   4.404   6.140  15.109 -4.6666  2.5579  0.0614
11049TIP3    H254563   4.280   6.061  15.148 -0.6928 -4.2773 -0.4035
11050TIP3   OH254564   0.490   5.591  14.930 -0.2630  0.3107 -0.2241
11050TIP3    H154565   0.415   5.534  14.915  0.4712 -0.8704  0.5286
11050TIP3    H254566   0.455   5.679  14.922 -1.4378 -0.2338 -1.2858
11051TIP3   OH254567   3.159   6.284  13.630  0.5688 -0.5509  0.2640
11051TIP3    H154568   3.089   6.344  13.659  1.2059  0.8349 -1.0164
11051TIP3    H254569   3.127   6.250  13.546  0.9151 -0.8023  0.2371
11052TIP3   OH254570   2.407   2.658   1.188  0.4927 -0.2804 -0.5281
11052TIP3    H154571   2.481   2.703   1.147  1.4900  0.7609  2.3041
11052TIP3    H254572   2.434   2.567   1.193  0.6172 -0.3055 -1.6044
11053TIP3   OH254573   6.123   3.119   0.294  0.2102  0.1348 -0.4273
11053TIP3    H154574   6.145   3.201   0.252  1.7078 -0.1054 -0.1226
11053TIP3    H254575   6.184   3.055   0.257 -0.8771 -0.8207 -0.6015
11054TIP3   OH254576   0.823   0.887   5.412  0.2004  0.6829 -0.4673
11054TIP3    H154577   0.750   0.846   5.459  0.9142 -0.5730 -0.4264
11054TIP3    H254578   0.863   0.946   5.476  0.8198 -0.6028  0.3538
11055TIP3   OH254579   2.304   1.067   1.983 -0.1119 -0.0018  0.5434
11055TIP3    H154580   2.386   1.021   2.001  0.4539  0.3916 -0.9505
11055TIP3    H254581   2.331   1.152   1.949 -1.0798 -0.6542 -2.0473
11056TIP3   OH254582   1.056   6.435   2.150  0.0569  0.0755 -0.2400
11056TIP3    H154583   1.043   6.526   2.177  1.6903  0.2682 -0.0759
11056TIP3    H254584   1.137   6.436   2.100 -0.2163 -1.2034 -0.7235
11057TIP3   OH254585   0.082   4.263   3.572  0.6829 -0.4338 -0.7351
11057TIP3    H154586   0.001   4.251   3.623  0.8819  1.4448  0.0970
11057TIP3    H254587   0.113   4.175   3.554  0.3031 -1.1722  1.9521
11058TIP3   OH254588   5.444   4.732  16.054  1.4082 -0.1397 -0.4033
11058TIP3    H154589   5.402   4.777  16.127  1.5026  1.5563 -1.3829
11058TIP3    H254590   5.445   4.796  15.983  1.2567 -1.7942 -1.9240
11059TIP3   OH254591   3.063   3.693   4.836  0.3014 -0.9016  0.3229
11059TIP3    H154592   3.124   3.706   4.909  1.5778  0.4691 -0.9346
11059TIP3    H254593   3.089   3.608   4.799  0.9206 -0.7173  0.3141
11060TIP3   OH254594   0.977   3.716   4.034  0.5299 -0.2500  0.3598
11060TIP3    H154595   0.888   3.741   4.057 -0.0931 -1.1209 -1.0278
11060TIP3    H254596   1.023   3.799   4.022 -0.7904  0.2546 -1.4635
11061TIP3   OH254597   0.764   5.673  14.391 -0.9627 -0.0915  0.4749
11061TIP3    H154598   0.810   5.602  14.436 -1.0139 -0.4716 -0.0682
11061TIP3    H254599   0.815   5.689  14.312 -1.0595  0.3436  0.4993
11062TIP3   OH254600   5.712   5.603  13.197 -0.3811 -0.2645  0.0098
11062TIP3    H154601   5.727   5.557  13.279  1.1535  0.6296  0.2569
11062TIP3    H254602   5.764   5.556  13.132 -0.4333 -0.0952 -0.1568
11063TIP3   OH254603   4.001   4.810  12.552  0.7770  0.1249 -0.0591
11063TIP3    H154604   4.061   4.804  12.477 -0.2816 -0.0156 -0.9100
11063TIP3    H254605   3.956   4.726  12.553 -0.3089  0.6975 -0.2116
11064TIP3   OH254606   5.370   5.026   5.764 -0.0204  0.3640 -0.0641
11064TIP3    H154607   5.443   4.986   5.715  0.8426  1.4881  0.2849
11064TIP3    H254608   5.344   4.958   5.827  1.2411  0.2288  0.3282
11065TIP3   OH254609   3.604   6.426  13.079  0.5958  0.0360 -0.4108
11065TIP3    H154610   3.650   6.343  13.093  1.3596  0.5517  0.1473
11065TIP3    H254611   3.584   6.458  13.167  0.0057  0.2826 -0.6329
11066TIP3   OH254612   3.854   1.332   1.246 -0.8577 -0.3898 -0.2508
11066TIP3    H154613   3.920   1.361   1.184 -0.5694 -0.9796 -0.2239
11066TIP3    H254614   3.839   1.408   1.302  0.0838 -0.3639 -0.0133
11067TIP3   OH254615   5.801   2.426   4.671  0.2105  0.0381 -0.3348
11067TIP3    H154616   5.825   2.363   4.738 -1.1056 -0.2674 -0.1434
11067TIP3    H254617   5.707   2.440   4.683  0.2826  1.2306 -1.0488
11068TIP3   OH254618   2.247   0.198  12.083  0.1969  0.1923  0.1255
11068TIP3    H154619   2.223   0.282  12.121 -2.0504 -0.4760  0.2549
11068TIP3    H254620   2.166   0.146  12.087  1.6452 -2.1157  0.4540
11069TIP3   OH254621   2.648   3.159   5.708 -0.2536 -0.1301 -0.2299
11069TIP3    H154622   2.703   3.109   5.768 -0.3948  1.0510  0.9381
11069TIP3    H254623   2.671   3.127   5.621  0.1538 -1.7001  0.4339
11070TIP3   OH254624   2.496   4.989   0.903 -0.2941  0.1274  0.1953
11070TIP3    H154625   2.490   4.980   0.808 -0.2177  0.4303  0.1610
11070TIP3    H254626   2.570   5.049   0.917 -0.9061  0.8366  0.4084
11071TIP3   OH254627   2.567   1.184  13.105 -0.2375  0.7305  0.5064
11071TIP3    H154628   2.529   1.110  13.058 -1.9461  2.1751 -0.4215
11071TIP3    H254629   2.638   1.145  13.156  0.4607 -1.1659 -1.8092
11072TIP3   OH254630   6.345   3.033   1.743 -0.3025 -0.5816  0.1837
11072TIP3    H154631   6.423   2.988   1.713  0.4031  0.4112  0.4992
11072TIP3    H254632   6.318   3.087   1.669 -0.6406 -0.8506  0.1075
11073TIP3   OH254633   5.115   4.533   1.621  0.0849 -0.2183 -0.5393
11073TIP3    H154634   5.100   4.439   1.617 -0.6305 -0.0359 -2.9960
11073TIP3    H254635   5.043   4.567   1.675 -0.1928 -0.9564 -0.4483
11074TIP3   OH254636   6.370   2.290  14.821 -0.4995  0.2965  0.1881
11074TIP3    H154637   6.343   2.200  14.835  1.3673 -0.2196  0.5428
11074TIP3    H254638   6.409   2.291  14.734 -1.8818  1.0964 -0.4385
11075TIP3   OH254639   6.534   3.416   3.634  0.1050 -0.0832  0.3280
11075TIP3    H154640   6.514   3.462   3.716 -1.6848 -0.0682 -0.1021
11075TIP3    H254641   6.627   3.393   3.642 -0.3150 -1.0965  2.8551
11076TIP3   OH254642   6.610   2.961   4.246 -1.0437 -0.5653 -0.0517
11076TIP3    H154643   6.665   2.923   4.177 -1.7616  1.5868 -1.8903
11076TIP3    H254644   6.524   2.920   4.232 -0.5240 -2.1250  1.2803
11077TIP3   OH254645   3.468   1.421   5.555 -0.1238 -0.9292 -0.1107
11077TIP3    H154646   3.403   1.450   5.620  0.8178 -0.1785  0.5072
11077TIP3    H254647   3.521   1.357   5.602  1.1309  0.2824  0.1615
11078TIP3   OH254648   4.871   4.887   4.472  0.1269 -0.6539 -0.4010
11078TIP3    H154649   4.876   4.953   4.403 -0.4883 -1.3295 -1.1147
11078TIP3    H254650   4.898   4.806   4.429 -1.1915 -1.2615 -0.1027
11079TIP3   OH254651   0.092   3.355   4.344  0.1642 -0.2062  0.1834
11079TIP3    H154652   0.067   3.352   4.436 -0.3613  1.1247  0.1016
11079TIP3    H254653   0.017   3.319   4.297 -0.4279  1.0836  0.1347
11080TIP3   OH254654   2.840   0.329   0.238 -0.6030  0.5210 -0.4447
11080TIP3    H154655   2.781   0.334   0.313 -0.9701  3.2787 -0.8825
11080TIP3    H254656   2.834   0.415   0.196  4.0629  1.0626 -0.2590
11081TIP3   OH254657   2.171   5.638   3.802  0.2934 -0.1211 -0.7266
11081TIP3    H154658   2.257   5.676   3.782  0.7264  0.1528  1.4627
11081TIP3    H254659   2.110   5.711   3.796  0.3671 -0.1162 -1.3801
11082TIP3   OH254660   4.893   1.958   1.417 -0.6098  0.1076  0.6189
11082TIP3    H154661   4.939   2.042   1.409 -0.6912  0.1366  0.4390
11082TIP3    H254662   4.958   1.893   1.392 -0.4568  0.0932  1.0507
11083TIP3   OH254663   5.633   2.755   0.245 -0.3296  0.3918  0.1883
11083TIP3    H154664   5.699   2.799   0.299  0.4973  0.2308 -0.6683
11083TIP3    H254665   5.669   2.668   0.229 -1.9756 -0.6441  1.8960
11084TIP3   OH254666   3.197   2.644   5.024  0.1706 -0.1356 -0.6936
11084TIP3    H154667   3.187   2.731   4.987  0.0221  0.1451 -0.0060
11084TIP3    H254668   3.292   2.632   5.031  0.1746  0.6781  0.8343
11085TIP3   OH254669   0.458   3.219  16.154  0.3145 -0.4708 -0.2697
11085TIP3    H154670   0.408   3.244  16.076  0.8537  0.2378 -0.3924
11085TIP3    H254671   0.459   3.124  16.153 -2.1985 -0.5215  0.4761
11086TIP3   OH254672   4.885   1.806  13.888  0.3779  0.4653  0.1723
11086TIP3    H154673   4.953   1.749  13.851 -0.5399  0.8249 -2.1562
11086TIP3    H254674   4.827   1.747  13.935 -1.3250 -0.8193 -3.3444
11087TIP3   OH254675   4.519   3.467   0.798 -0.7144 -0.0620  0.2688
11087TIP3    H154676   4.564   3.521   0.862  0.0047 -0.8969  0.4857
11087TIP3    H254677   4.554   3.496   0.713 -1.8952  1.2528  0.2219
11088TIP3   OH254678   3.417   1.863   3.964  0.2537  0.0163 -0.2651
11088TIP3    H154679   3.394   1.894   3.876  0.1693 -1.7131 -0.8875
11088TIP3    H254680   3.503   1.823   3.953  1.8469  2.9340  1.2106
11089TIP3   OH254681   5.014   2.806   1.028 -0.0871 -0.1926 -0.2520
11089TIP3    H154682   5.104   2.791   1.058  0.0700 -1.9784 -1.5366
11089TIP3    H254683   5.000   2.900   1.040  1.3743 -0.1702  1.5170
11090TIP3   OH254684   0.075   3.389   2.219 -0.1024  0.0758  0.2546
11090TIP3    H154685   0.027   3.432   2.290  2.4945  1.7036  1.1063
11090TIP3    H254686   0.086   3.299   2.250 -1.8668 -0.1029  0.4062
11091TIP3   OH254687   0.417   6.150  15.113  0.2588  0.0497  0.3655
11091TIP3    H154688   0.455   6.118  15.194 -0.6173  0.7367  1.0647
11091TIP3    H254689   0.324   6.126  15.120  0.0322  0.8038 -0.0780
11092TIP3   OH254690   1.312   5.651   5.220  0.5249 -0.2898  0.1748
11092TIP3    H154691   1.328   5.610   5.135  0.3904 -1.4883  0.7185
11092TIP3    H254692   1.221   5.630   5.239  0.6478 -0.2868  0.7563
11093TIP3   OH254693   4.373   4.190   0.862  0.0415  0.2684  0.6015
11093TIP3    H154694   4.389   4.096   0.871  1.4936  0.6153  1.9223
11093TIP3    H254695   4.357   4.220   0.952 -1.8352  1.0493  0.0189
11094TIP3   OH254696   4.464   5.023  11.771 -0.3034 -0.1032  0.3562
11094TIP3    H154697   4.473   5.007  11.865 -1.0746  0.6395  0.5698
11094TIP3    H254698   4.375   5.059  11.762 -0.8197 -1.6337 -0.8556
11095TIP3   OH254699   2.007   2.787   1.851  0.1686  0.0085 -0.4572
11095TIP3    H154700   1.972   2.711   1.804  0.1921  0.0605 -0.5584
11095TIP3    H254701   2.062   2.749   1.920 -0.0233 -0.0713 -0.3463
11096TIP3   OH254702   0.087   6.590   3.421 -0.0939 -0.0786 -0.3345
11096TIP3    H154703   0.090   6.554   3.509  0.5324 -0.8021 -0.6531
11096TIP3    H254704   0.174   6.576   3.385 -0.8688 -1.5023 -1.7485
11097TIP3   OH254705   0.997   2.078   1.357 -0.5953  0.7399  0.3476
11097TIP3    H154706   0.913   2.032   1.358  0.3384 -1.0031  1.0668
11097TIP3    H254707   1.040   2.047   1.277 -0.6301  1.6590 -0.0410
11098TIP3   OH254708   0.713   2.556   2.067  0.2016 -0.1911  0.2502
11098TIP3    H154709   0.692   2.630   2.123  1.2684 -0.0994  0.5457
11098TIP3    H254710   0.674   2.480   2.111 -3.0885  0.4845 -1.3330
11099TIP3   OH254711   1.415   5.715   4.318  0.1165 -0.1302 -0.0250
11099TIP3    H154712   1.428   5.649   4.386  0.6963  1.6489  1.6140
11099TIP3    H254713   1.493   5.707   4.263  0.5506 -0.3015  0.6037
11100TIP3   OH254714   6.070   6.607  10.527 -0.2290 -0.6517 -0.9857
11100TIP3    H154715   6.126   6.577  10.455  0.1657 -2.1147 -0.0815
11100TIP3    H254716   6.130   6.636  10.594 -0.5364 -2.1613 -0.0375
11101TIP3   OH254717   3.357   5.843   1.771 -0.1511 -0.5685 -0.0217
11101TIP3    H154718   3.284   5.822   1.829  0.7756  0.6397  1.6082
11101TIP3    H254719   3.418   5.770   1.783 -0.0749 -0.4480  0.3106
11102TIP3   OH254720   4.831   3.647  10.797 -0.1106  0.3088  0.5339
11102TIP3    H154721   4.750   3.600  10.777  0.4148 -0.3538 -0.0726
11102TIP3    H254722   4.872   3.661  10.712  0.0910  1.2451  0.7779
11103TIP3   OH254723   1.854   5.179  11.644 -0.0024  0.3223 -0.1057
11103TIP3    H154724   1.863   5.274  11.652 -1.9189  0.4689  0.4634
11103TIP3    H254725   1.797   5.167  11.568 -0.2919 -0.3500  0.2225
11104TIP3   OH254726   4.629   1.545   0.068 -1.1913  0.3690 -0.1441
11104TIP3    H154727   4.675   1.465   0.093 -1.5397  0.1414 -0.2130
11104TIP3    H254728   4.639   1.550  -0.027  0.9660  1.7591  0.1208
11105TIP3   OH254729   0.239   1.529   2.048 -0.4679 -0.3975 -0.3232
11105TIP3    H154730   0.267   1.494   1.963 -2.6275 -2.9050 -0.0495
11105TIP3    H254731   0.311   1.587   2.075  0.8275 -0.5656 -3.2427
11106TIP3   OH254732   4.251   6.028  16.154 -0.2200 -0.0027  0.3591
11106TIP3    H154733   4.190   5.976  16.207 -3.0163  1.4297 -1.3525
11106TIP3    H254734   4.282   5.968  16.087  0.9544 -0.9812  1.7580
11107TIP3   OH254735   0.231   3.541  11.516  0.2404 -0.1458  0.2262
11107TIP3    H154736   0.302   3.489  11.478 -1.0167 -0.9723 -1.0268
11107TIP3    H254737   0.215   3.610  11.451 -0.1663 -0.0026  0.4768
11108TIP3   OH254738   4.120   1.454   4.444  0.4515 -0.4166 -0.3296
11108TIP3    H154739   4.164   1.467   4.527  1.6941  0.1111 -1.0635
11108TIP3    H254740   4.085   1.540   4.421 -1.1687 -0.8743  0.3525
11109TIP3   OH254741   0.524   0.770  12.143 -0.1592  0.3250 -0.0025
11109TIP3    H154742   0.440   0.781  12.189  0.6714  2.2367  1.1331
11109TIP3    H254743   0.544   0.677  12.152 -2.2575 -0.2154 -0.4868
11110TIP3   OH254744   3.308   5.394   4.126  0.2782  0.0580 -0.3249
11110TIP3    H154745   3.279   5.384   4.035  0.5923 -1.3956 -0.2721
11110TIP3    H254746   3.228   5.403   4.176 -0.0706 -2.5907 -0.3394
11111TIP3   OH254747   4.889   3.914  16.347  0.2631 -0.3122 -0.2957
11111TIP3    H154748   4.900   4.008  16.358  1.9241 -0.4154 -0.9595
11111TIP3    H254749   4.959   3.876  16.402 -0.9758 -1.1800  0.6982
11112TIP3   OH254750   0.613   3.867  10.861  0.2173 -0.4335  0.1157
11112TIP3    H154751   0.580   3.778  10.845 -0.4554  0.0462 -1.2718
11112TIP3    H254752   0.688   3.854  10.919  1.7476 -2.2019 -2.1115
11113TIP3   OH254753   2.064   6.034   6.175  0.0556 -0.5395  0.5277
11113TIP3    H154754   1.984   6.038   6.122  0.0699 -0.5133  0.5077
11113TIP3    H254755   2.061   5.947   6.214  1.6999 -1.8449 -2.1106
11114TIP3   OH254756   0.164   3.384   4.021 -0.3493 -0.1521 -0.5111
11114TIP3    H154757   0.155   3.404   4.114 -1.7657  1.1346 -0.9068
11114TIP3    H254758   0.204   3.462   3.983  2.3594 -1.5594 -0.6271
11115TIP3   OH254759   6.063   1.591   1.865  0.2945 -0.2428  0.1965
11115TIP3    H154760   6.081   1.500   1.888  1.2781 -0.6427 -2.0864
11115TIP3    H254761   6.108   1.642   1.933  2.8151 -1.4059 -0.5409
11116TIP3   OH254762   5.974   2.341   6.882  0.6117  0.3357 -0.1209
11116TIP3    H154763   5.952   2.300   6.798 -2.1391 -0.2654  0.8397
11116TIP3    H254764   6.032   2.413   6.859  0.9848 -0.6464 -2.4004
11117TIP3   OH254765   2.970   4.745  16.914  0.2478 -0.0020 -0.0679
11117TIP3    H154766   2.961   4.758  17.008  0.9911  1.4425 -0.1796
11117TIP3    H254767   3.052   4.695  16.905  1.1058  1.3846 -0.0431
11118TIP3   OH254768   0.703   5.600   2.670  0.2106  0.0888 -0.3538
11118TIP3    H154769   0.697   5.637   2.582 -0.1522  1.1943  0.1336
11118TIP3    H254770   0.784   5.636   2.705  0.5657 -0.6774 -0.3780
11119TIP3   OH254771   1.934   4.282   2.587  0.2166  0.0553 -0.6294
11119TIP3    H154772   1.984   4.227   2.646 -0.4203 -1.1844 -1.2253
11119TIP3    H254773   1.845   4.248   2.592 -0.1660  0.9761 -1.0627
11120TIP3   OH254774   0.120   5.128  16.376  0.2878 -0.2787  0.0077
11120TIP3    H154775   0.047   5.148  16.435 -0.5525  0.5887 -1.3170
11120TIP3    H254776   0.079   5.097  16.296  1.3689  0.4693 -0.8411
11121TIP3   OH254777   4.476   1.437  11.458  0.0497  0.4384  0.2373
11121TIP3    H154778   4.387   1.454  11.488 -0.4981  0.3127 -1.2736
11121TIP3    H254779   4.466   1.408  11.367  1.5588 -0.4986  0.3456
11122TIP3   OH254780   6.375   3.707   3.828 -0.4359  0.0773 -0.9350
11122TIP3    H154781   6.295   3.749   3.798 -0.6548 -0.5541 -1.2638
11122TIP3    H254782   6.345   3.628   3.874  0.0515 -1.3877 -3.0448
11123TIP3   OH254783   0.019   1.758  16.661 -0.2903  0.6584  0.7559
11123TIP3    H154784  -0.019   1.692  16.604 -0.2096 -0.9962  2.5903
11123TIP3    H254785   0.089   1.797  16.608  0.3864 -1.4721  0.0463
11124TIP3   OH254786   2.684   1.434   4.419  0.0414 -0.3465 -0.3532
11124TIP3    H154787   2.731   1.517   4.427 -1.0012  0.2106  0.0301
11124TIP3    H254788   2.749   1.373   4.385  2.2671 -0.6211  4.0007
11125TIP3   OH254789   1.807   1.434   3.906 -0.2955 -0.1063  0.5894
11125TIP3    H154790   1.782   1.394   3.823 -1.1523  0.2921  0.6513
11125TIP3    H254791   1.889   1.480   3.887 -0.2618 -0.3730  0.0772
11126TIP3   OH254792   1.310   5.683   3.505 -0.4835  0.5512  0.6673
11126TIP3    H154793   1.406   5.688   3.512 -0.3183 -0.7641 -0.5220
11126TIP3    H254794   1.282   5.639   3.585  0.0192 -0.3334  0.3529
11127TIP3   OH254795   6.781   3.509  15.490  0.5195  0.3876 -0.2818
11127TIP3    H154796   6.757   3.429  15.443  1.4166  0.1057 -0.2733
11127TIP3    H254797   6.846   3.551  15.433  0.7786  0.6089  0.1754
11128TIP3   OH254798   5.798   6.477   5.327 -0.3559  0.0372 -0.1195
11128TIP3    H154799   5.760   6.393   5.354 -3.4128  0.8112 -1.7935
11128TIP3    H254800   5.817   6.522   5.409  0.2368 -1.8212  0.7911
11129TIP3   OH254801   2.298   4.700   4.310  0.0301  0.0648 -0.2013
11129TIP3    H154802   2.379   4.703   4.361 -0.2478 -1.2455  0.3222
11129TIP3    H254803   2.327   4.699   4.219  0.7347 -3.5371 -0.0046
11130TIP3   OH254804   6.311   0.282  13.221 -0.4571  0.2788 -0.1999
11130TIP3    H154805   6.397   0.257  13.254  0.1017  0.2233 -1.6346
11130TIP3    H254806   6.298   0.371  13.252  0.7969  0.8381 -1.2113
11131TIP3   OH254807   1.627   3.785  15.334  0.4033 -0.1744 -0.1638
11131TIP3    H154808   1.553   3.763  15.391  0.0598  1.4833  0.0388
11131TIP3    H254809   1.681   3.706  15.334 -1.0246 -1.1760  0.2120
11132TIP3   OH254810   4.901   2.788  13.827 -0.2476 -0.6798 -0.9267
11132TIP3    H154811   4.894   2.746  13.913  0.9377  1.0424  0.0349
11132TIP3    H254812   4.968   2.737  13.782  0.6109 -0.3501 -0.0583
11133TIP3   OH254813   6.417   4.853  14.048 -0.1795 -0.1822  0.1524
11133TIP3    H154814   6.483   4.831  13.982 -1.1472 -0.8298 -0.6094
11133TIP3    H254815   6.400   4.770  14.093  0.9888  0.3978  1.6943
11134TIP3   OH254816   2.952   5.725   2.967 -0.3038 -0.0808 -0.0668
11134TIP3    H154817   2.982   5.816   2.964 -0.2131 -0.1624 -1.8447
11134TIP3    H254818   2.871   5.725   2.915 -1.3180 -0.6447  1.4813
11135TIP3   OH254819   4.573   3.907  14.425 -0.5033  0.2260  0.4930
11135TIP3    H154820   4.570   3.913  14.329 -1.2474  0.3383  0.5209
11135TIP3    H254821   4.594   3.815  14.442 -1.4377 -0.0505  0.2288
11136TIP3   OH254822   6.603   5.724  16.279 -0.2163 -0.3135  0.0495
11136TIP3    H154823   6.561   5.684  16.356  0.6297 -2.1372 -0.4010
11136TIP3    H254824   6.682   5.764  16.313  0.0060 -0.8620  0.1929
11137TIP3   OH254825   1.539   5.201   5.731 -0.7665 -0.0562  0.2970
11137TIP3    H154826   1.560   5.111   5.706 -1.1161 -0.1071  0.1761
11137TIP3    H254827   1.514   5.195   5.823 -0.8873 -0.1027  0.2626
11138TIP3   OH254828   5.427   1.729   6.263  0.6315 -0.1001  0.3117
11138TIP3    H154829   5.368   1.735   6.339  1.1700 -0.3850  0.7517
11138TIP3    H254830   5.439   1.635   6.249 -1.6370 -0.1197 -1.8202
11139TIP3   OH254831   1.951   0.888   1.103 -0.3790 -0.4527  0.0070
11139TIP3    H154832   2.046   0.873   1.100 -0.1544  0.8753  0.4327
11139TIP3    H254833   1.922   0.875   1.012  0.4198  0.4417 -0.3853
11140TIP3   OH254834   2.359   4.323  13.253 -0.7789  0.2993 -0.3766
11140TIP3    H154835   2.301   4.257  13.290 -0.0296 -0.1486  0.0272
11140TIP3    H254836   2.327   4.406  13.289  0.7606 -0.2532  2.4153
11141TIP3   OH254837   4.741   3.996   2.306 -0.4357  0.5827  0.2695
11141TIP3    H154838   4.793   3.956   2.236  0.0994  2.4341 -0.4198
11141TIP3    H254839   4.806   4.031   2.367 -0.9044  0.2214  0.9877
11142TIP3   OH254840   6.638   6.419   5.300 -0.0154  0.2440 -0.1553
11142TIP3    H154841   6.689   6.339   5.287  1.8625  1.5995 -1.5398
11142TIP3    H254842   6.693   6.473   5.357 -1.2482  0.5908  0.7373
11143TIP3   OH254843   0.192   1.525  14.244 -0.0815  0.0465 -0.8955
11143TIP3    H154844   0.166   1.435  14.227 -0.6954  0.1307 -0.3900
11143TIP3    H254845   0.110   1.574  14.247  0.2512  0.6297 -1.2091
11144TIP3   OH254846   3.499   3.623  15.515 -0.6022 -0.0999 -0.3190
11144TIP3    H154847   3.485   3.716  15.533 -1.1324 -0.1128 -0.6573
11144TIP3    H254848   3.591   3.608  15.537 -0.4752  0.5388 -0.4073
11145TIP3   OH254849   2.324   6.543   0.634  0.2923 -0.5655 -0.8262
11145TIP3    H154850   2.281   6.617   0.590 -0.0886 -1.2354 -1.6181
11145TIP3    H254851   2.276   6.533   0.716  1.1766  0.8703 -0.1354
11146TIP3   OH254852   5.821   0.426  12.249  1.0121 -0.0993 -0.2832
11146TIP3    H154853   5.833   0.400  12.340  1.0376  0.9135  0.0117
11146TIP3    H254854   5.902   0.472  12.226  0.5071  0.7207 -0.4334
11147TIP3   OH254855   2.513   5.369   0.960 -0.3579 -0.2118 -0.3004
11147TIP3    H154856   2.515   5.457   0.924 -0.2356  0.9665  2.4593
11147TIP3    H254857   2.444   5.324   0.911 -1.5072  1.8956 -0.6775
11148TIP3   OH254858   1.578   4.393   0.538 -0.9081  0.1103  0.0492
11148TIP3    H154859   1.597   4.481   0.569  0.0708 -0.5535  1.3793
11148TIP3    H254860   1.509   4.405   0.473 -1.3285  1.7777  0.7750
11149TIP3   OH254861   6.249   1.875   4.286  0.4197 -0.0218  0.0882
11149TIP3    H154862   6.335   1.849   4.320  0.5153  2.4827  1.8906
11149TIP3    H254863   6.251   1.971   4.287 -1.7717  0.0703 -1.4894
11150TIP3   OH254864   5.436   1.902   5.465  0.0037 -0.6896 -0.6212
11150TIP3    H154865   5.503   1.867   5.524  2.1807 -1.3963 -3.3613
11150TIP3    H254866   5.460   1.994   5.454 -1.5595 -0.0470  1.0654
11151TIP3   OH254867   0.699   4.047  15.190  0.4425 -0.0120 -0.0068
11151TIP3    H154868   0.624   4.023  15.246 -0.1769  1.6009 -0.1148
11151TIP3    H254869   0.765   4.077  15.251  0.3108  0.3534 -0.0462
11152TIP3   OH254870   3.426   4.939   4.283 -0.5360 -0.5023  0.9909
11152TIP3    H154871   3.408   4.940   4.377 -2.7143  1.7056  0.6212
11152TIP3    H254872   3.350   4.894   4.245 -0.7017  0.4746  0.1471
11153TIP3   OH254873   1.704   4.050  10.524 -0.1304 -0.4601 -0.5457
11153TIP3    H154874   1.628   4.104  10.544  1.4868  2.2471 -1.5440
11153TIP3    H254875   1.668   3.975  10.475 -2.0700  1.1029 -1.5667
11154TIP3   OH254876   5.990   5.686   2.987 -0.2947 -0.8034 -0.2638
11154TIP3    H154877   6.024   5.759   2.935  0.5198 -1.1731 -0.2706
11154TIP3    H254878   5.907   5.664   2.946  0.0509 -0.6865 -1.0351
11155TIP3   OH254879   2.276   6.739   0.187 -0.0607 -0.4083  0.4630
11155TIP3    H154880   2.247   6.648   0.188 -0.5869 -0.2311  1.5460
11155TIP3    H254881   2.342   6.742   0.117  0.0922 -1.6548  0.5417
11156TIP3   OH254882   2.949   2.143   3.507 -0.4371 -0.1062 -0.8363
11156TIP3    H154883   2.866   2.122   3.550 -0.6986  0.4722 -1.0611
11156TIP3    H254884   2.969   2.232   3.536  1.3676 -1.1304  1.2319
11157TIP3   OH254885   0.637   0.513   3.603 -0.0105  0.4377 -0.1311
11157TIP3    H154886   0.622   0.431   3.650  0.7853 -0.0448 -0.6991
11157TIP3    H254887   0.732   0.518   3.593 -0.0560  1.4476 -0.0738
11158TIP3   OH254888   2.335   5.661   0.633  0.2075  0.4054 -0.0611
11158TIP3    H154889   2.262   5.720   0.611 -1.5913 -1.8215 -0.2668
11158TIP3    H254890   2.323   5.643   0.726  1.7687  1.6684  0.4148
11159TIP3   OH254891   5.076   1.607  15.541 -0.1902  0.1716  0.3403
11159TIP3    H154892   5.035   1.529  15.577 -0.9492  1.1241  1.5473
11159TIP3    H254893   5.125   1.575  15.465  0.8824 -1.7498  1.8072
11160TIP3   OH254894   2.676   3.282  10.910 -0.0696  0.2036  0.2338
11160TIP3    H154895   2.754   3.231  10.932 -1.0722 -1.3282  0.3273
11160TIP3    H254896   2.703   3.373  10.921  1.1437 -0.3617  2.1722
11161TIP3   OH254897   0.055   3.897   1.710 -0.4500  0.1989 -0.1486
11161TIP3    H154898   0.089   3.835   1.774  1.5241  1.5585  0.1761
11161TIP3    H254899  -0.026   3.930   1.749 -0.6878 -0.9935  0.3906
11162TIP3   OH254900   1.107   2.914   1.899  0.0842  0.0983 -0.4131
11162TIP3    H154901   1.186   2.887   1.947  0.3933  0.8845 -0.4748
11162TIP3    H254902   1.093   2.845   1.835  0.2638 -0.4476  0.1272
11163TIP3   OH254903   3.157   2.256  13.007 -0.2428 -0.0680  0.1565
11163TIP3    H154904   3.142   2.183  12.947 -2.1959 -0.7184  1.4126
11163TIP3    H254905   3.251   2.274  12.999 -0.1042 -1.4455 -1.5925
11164TIP3   OH254906   1.584   2.875  13.188  0.7353  0.2301 -0.3233
11164TIP3    H154907   1.625   2.862  13.102  0.9146  0.8558 -0.3354
11164TIP3    H254908   1.491   2.889  13.168  0.5078 -1.2151 -0.2956
11165TIP3   OH254909   0.990   5.464  11.517  0.3755 -0.0302 -0.2598
11165TIP3    H154910   0.948   5.378  11.526 -2.6191  1.2471 -1.4877
11165TIP3    H254911   1.009   5.491  11.607 -0.3107 -1.1958  0.2495
11166TIP3   OH254912   4.883   6.524  11.855  0.3120  0.3065 -0.4473
11166TIP3    H154913   4.824   6.449  11.867 -1.7137  1.8703 -0.2281
11166TIP3    H254914   4.871   6.550  11.764  1.1491  0.2470 -0.5779
11167TIP3   OH254915   1.701   4.465   3.621 -0.1131  0.5109 -0.0882
11167TIP3    H154916   1.664   4.393   3.570  0.9805  0.5992 -1.0192
11167TIP3    H254917   1.750   4.422   3.691 -2.2459  0.3940  1.3878
11168TIP3   OH254918   2.949   2.787  13.044  0.0880  0.5988 -0.2032
11168TIP3    H154919   3.031   2.814  13.084  0.2124  0.1019 -0.1269
11168TIP3    H254920   2.925   2.861  12.988  0.0845  1.1534  0.5186
11169TIP3   OH254921   3.682   4.176  16.977  0.3136  0.5742  0.1604
11169TIP3    H154922   3.712   4.086  16.963  0.9364  0.8434 -0.2885
11169TIP3    H254923   3.587   4.172  16.970  0.4980  0.4133 -2.6744
11170TIP3   OH254924   4.288   2.081  11.713  0.0724 -0.0669  0.1402
11170TIP3    H154925   4.230   2.157  11.712 -0.4844 -0.4729 -2.4432
11170TIP3    H254926   4.235   2.010  11.677  1.1285 -1.2792  0.9141
11171TIP3   OH254927   2.592   4.353   5.872 -0.4067 -0.5370 -0.7124
11171TIP3    H154928   2.624   4.263   5.878  0.5299 -0.1871 -0.3486
11171TIP3    H254929   2.649   4.402   5.931  0.6585  0.7310 -2.7373
11172TIP3   OH254930   1.486   5.330   5.173  0.2936 -0.1365  0.6046
11172TIP3    H154931   1.502   5.274   5.249  0.5216  1.4129  1.7328
11172TIP3    H254932   1.451   5.271   5.106  1.1672 -1.7310  1.5242
11173TIP3   OH254933   1.192   3.913  11.907 -0.2190 -0.5543  0.3582
11173TIP3    H154934   1.231   3.825  11.906  0.0327 -0.4366 -0.4894
11173TIP3    H254935   1.132   3.913  11.833 -0.1461  0.0200  0.2981
11174TIP3   OH254936   4.294   6.568  14.684 -0.4535  0.2528  0.6466
11174TIP3    H154937   4.219   6.546  14.628 -1.6337  1.9388  1.5159
11174TIP3    H254938   4.257   6.576  14.772  0.6923  1.4668  1.0334
11175TIP3   OH254939   3.952   5.030  14.149 -0.3750 -0.2507 -0.2665
11175TIP3    H154940   3.857   5.030  14.134 -0.2649 -1.0708 -0.9784
11175TIP3    H254941   3.968   5.110  14.199 -1.5702 -0.5791  0.6855
11176TIP3   OH254942   3.803   4.832   1.024 -0.0635 -0.1742  0.2306
11176TIP3    H154943   3.883   4.801   1.066  0.9808  0.1671 -1.4735
11176TIP3    H254944   3.800   4.785   0.940  0.4050  2.6896 -1.4433
11177TIP3   OH254945   5.813   0.044   4.587  0.0357  0.0599 -0.3021
11177TIP3    H154946   5.815   0.006   4.499 -1.7683 -0.0241 -0.3333
11177TIP3    H254947   5.893   0.011   4.629 -0.1551 -1.6395 -1.2047
11178TIP3   OH254948   0.828   3.254  13.742 -0.1182  0.3683 -0.3483
11178TIP3    H154949   0.861   3.256  13.652  0.8791 -1.2525 -0.0290
11178TIP3    H254950   0.771   3.177  13.745  1.7702 -1.0090  1.0532
11179TIP3   OH254951   0.686   3.188   3.155  0.4437 -0.0260  0.7077
11179TIP3    H154952   0.680   3.094   3.171  2.6687 -0.4026 -0.4464
11179TIP3    H254953   0.700   3.226   3.242  0.9938 -0.9171  1.0149
11180TIP3   OH254954   2.613   2.274  13.819  0.6823 -0.5303 -0.1014
11180TIP3    H154955   2.580   2.338  13.881 -0.4188  0.7747 -1.9843
11180TIP3    H254956   2.664   2.324  13.756  2.5137 -1.9480  0.2208
11181TIP3   OH254957   6.285   3.141  14.374 -0.0147  0.3876 -0.0725
11181TIP3    H154958   6.208   3.197  14.365 -0.4606 -0.3668 -1.0882
11181TIP3    H254959   6.337   3.158  14.295  0.4003  0.2160  0.1601
11182TIP3   OH254960   1.205   1.889  14.395  0.4879  0.5420  0.2696
11182TIP3    H154961   1.129   1.930  14.354 -0.6948 -0.1377  1.7105
11182TIP3    H254962   1.254   1.961  14.434  0.0613  0.8888  0.1656
11183TIP3   OH254963   5.362   5.090  10.868 -0.2270  0.2347  0.2408
11183TIP3    H154964   5.395   5.052  10.787  1.3707  2.9866 -0.4439
11183TIP3    H254965   5.284   5.140  10.842  0.7095  1.7303  0.2349
11184TIP3   OH254966   6.174   4.544  14.543 -0.0689  0.1006  0.8143
11184TIP3    H154967   6.175   4.640  14.548 -0.5033  0.2440 -1.4419
11184TIP3    H254968   6.197   4.516  14.632 -2.0959  2.2589  2.0793
11185TIP3   OH254969   2.195   2.878   5.797  0.2677  0.2609  0.0082
11185TIP3    H154970   2.191   2.785   5.820 -1.3634  0.2589 -0.2496
11185TIP3    H254971   2.169   2.881   5.705 -1.0385  1.1212  0.3975
11186TIP3   OH254972   3.198   0.001   4.852 -0.4080  0.6446  0.1944
11186TIP3    H154973   3.157   0.016   4.766 -0.9867  0.1689  0.3853
11186TIP3    H254974   3.140  -0.061   4.895 -1.5110  2.8237  1.9318
11187TIP3   OH254975   5.514   4.328  16.774  0.4414  0.1112 -0.2764
11187TIP3    H154976   5.494   4.235  16.784  0.9817 -0.0139 -0.3343
11187TIP3    H254977   5.446   4.373  16.824  0.2975 -0.3230 -0.0793
11188TIP3   OH254978   2.606   3.024  15.369  0.2423 -0.2348 -0.1890
11188TIP3    H154979   2.573   2.949  15.318  0.0286  1.0527 -1.9903
11188TIP3    H254980   2.537   3.041  15.433 -0.1904 -0.9340 -0.4556
11189TIP3   OH254981   2.739   0.728   3.482 -0.2520 -0.3950 -0.0287
11189TIP3    H154982   2.798   0.665   3.440  0.2048 -0.0210  0.0503
11189TIP3    H254983   2.744   0.806   3.427 -2.3826 -1.0989 -1.2801
11190TIP3   OH254984   1.126   5.367  10.960 -0.3326  0.3399  0.1733
11190TIP3    H154985   1.209   5.335  10.924 -0.2299 -0.5161  1.1542
11190TIP3    H254986   1.116   5.321  11.043 -1.6434  0.6709  0.2148
11191TIP3   OH254987   5.201   1.671   2.389  0.6034  0.3498  0.2846
11191TIP3    H154988   5.150   1.743   2.425  0.2588 -0.5340  1.5791
11191TIP3    H254989   5.219   1.697   2.299  0.7609  2.2025  0.8348
11192TIP3   OH254990   1.894   0.971  17.093 -0.3490 -0.7082  0.2791
11192TIP3    H154991   1.884   1.001  17.003 -0.8102 -0.2097  0.4958
11192TIP3    H254992   1.988   0.978  17.111 -0.2255 -1.0250 -0.2328
11193TIP3   OH254993   6.417   4.618  13.747 -0.3082  0.3418 -0.3762
11193TIP3    H154994   6.435   4.529  13.776  1.3944  1.1565  1.1684
11193TIP3    H254995   6.478   4.672  13.797 -0.6095  2.2740 -2.0414
11194TIP3   OH254996   2.398   1.647   5.746 -0.1136  0.0925  0.2461
11194TIP3    H154997   2.430   1.602   5.668  0.5823 -0.6489  0.9506
11194TIP3    H254998   2.361   1.578   5.801  0.3942  0.4568  1.0571
11195TIP3   OH254999   6.751   1.998   1.017  0.1002 -0.4356  0.2277
11195TIP3    H155000   6.814   2.001   0.945  1.5424 -1.1866  1.4249
11195TIP3    H255001   6.749   2.087   1.052  0.9091 -0.5322  0.5236
11196TIP3   OH255002   2.619   2.865   1.112 -0.2886  0.5204 -0.5286
11196TIP3    H155003   2.636   2.861   1.206  1.1034  0.0947 -0.7854
11196TIP3    H255004   2.596   2.956   1.095 -0.4862  0.6068  0.2127
11197TIP3   OH255005   6.178   5.591  13.886 -0.0738 -0.3473 -0.1396
11197TIP3    H155006   6.255   5.630  13.927  1.2117 -1.4440 -1.4390
11197TIP3    H255007   6.194   5.497  13.892 -1.0925 -0.5671 -0.8460
11198TIP3   OH255008   0.857   6.271  17.141  0.0680 -0.1231 -0.0679
11198TIP3    H155009   0.795   6.309  17.078  1.9543  1.6204 -0.9535
11198TIP3    H255010   0.938   6.320  17.126  1.1919 -1.2370  2.1876
11199TIP3   OH255011   6.597   2.831   3.499 -0.4732  0.0367 -0.1995
11199TIP3    H155012   6.593   2.925   3.482 -0.9485  0.4759  2.1751
11199TIP3    H255013   6.506   2.807   3.518  0.0175 -0.3911  1.6865
11200TIP3   OH255014   3.451   1.467  15.757 -0.0898  0.1080 -0.0671
11200TIP3    H155015   3.458   1.389  15.813  2.0342 -0.3866 -0.9780
11200TIP3    H255016   3.541   1.490  15.736 -0.6823  2.7303  0.0100
11201TIP3   OH255017   0.321   5.756  13.807  0.4133  0.1288 -0.1066
11201TIP3    H155018   0.321   5.825  13.873  1.0068 -0.5487  0.6010
11201TIP3    H255019   0.245   5.776  13.752  0.9616  1.7346 -0.3232
11202TIP3   OH255020   1.995   3.752   0.649 -0.3171  0.1933 -0.1140
11202TIP3    H155021   1.954   3.742   0.563  2.9627 -0.8668 -1.6431
11202TIP3    H255022   2.024   3.843   0.652 -0.4828  0.2455 -0.1111
11203TIP3   OH255023   3.379   2.583  14.412  0.4675 -0.4046 -0.7688
11203TIP3    H155024   3.396   2.646  14.341  0.0516 -1.3731 -1.7466
11203TIP3    H255025   3.448   2.517  14.402  0.0925 -0.8232 -0.5915
11204TIP3   OH255026   4.097   3.679   5.221  0.1650  0.0620 -0.1986
11204TIP3    H155027   4.021   3.723   5.182 -1.0959 -1.0005  0.9968
11204TIP3    H255028   4.060   3.603   5.267  1.8601  0.0525  1.2110
11205TIP3   OH255029   2.342   2.043  16.174 -0.8620  0.1537  0.0098
11205TIP3    H155030   2.337   2.120  16.230 -0.8623  0.7426 -0.7881
11205TIP3    H255031   2.395   1.980  16.223 -0.1344  0.9843  0.2929
11206TIP3   OH255032   2.221   1.211   5.737  0.4639 -0.2350 -0.1737
11206TIP3    H155033   2.150   1.153   5.763 -0.0735  0.8464  0.8291
11206TIP3    H255034   2.300   1.156   5.740  0.0313 -0.7953  1.2054
11207TIP3   OH255035   4.468   4.469  14.409 -0.0893  0.0602  0.9624
11207TIP3    H155036   4.503   4.466  14.498  0.2345  0.0452  0.8337
11207TIP3    H255037   4.476   4.379  14.377  2.0474  0.5684  0.0394
11208TIP3   OH255038   2.865   3.072   5.883 -0.1785  0.5677  0.1917
11208TIP3    H155039   2.918   3.105   5.955  0.8328  0.1839 -0.3623
11208TIP3    H255040   2.910   2.992   5.855 -0.7441  0.5347 -0.6482
11209TIP3   OH255041   0.256   5.136  13.013  0.3468  0.2411  0.2770
11209TIP3    H155042   0.248   5.231  13.006 -0.3514  0.2771  1.4586
11209TIP3    H255043   0.307   5.111  12.936 -1.3314  1.3363 -1.2517
11210TIP3   OH255044   5.431   6.107  15.239 -0.1097  0.4646  0.0559
11210TIP3    H155045   5.390   6.070  15.161  1.3167  1.5487 -1.2537
11210TIP3    H255046   5.364   6.102  15.307 -1.1089 -1.2345 -1.0257
11211TIP3   OH255047   5.392   4.969   1.315 -0.4215  0.0299 -0.2767
11211TIP3    H155048   5.348   5.052   1.332  0.2153  0.2369  0.3858
11211TIP3    H255049   5.463   4.966   1.379  1.4622  0.4165 -2.2679
11212TIP3   OH255050   2.299   0.709  17.192 -0.3388  0.4785  0.4239
11212TIP3    H155051   2.389   0.733  17.169 -0.2140 -0.4759 -0.1023
11212TIP3    H255052   2.309   0.634  17.252 -0.7972 -0.0260 -0.1240
11213TIP3   OH255053   1.229   3.095   4.810  0.5074  0.5456  0.3826
11213TIP3    H155054   1.164   3.035   4.847 -1.1218  2.9917  1.5702
11213TIP3    H255055   1.300   3.096   4.875 -0.0361  0.8687  0.9791
11214TIP3   OH255056   3.109   2.457   4.540 -0.4225 -0.1419  0.5631
11214TIP3    H155057   3.069   2.393   4.599  0.6952 -1.6741 -0.2893
11214TIP3    H255058   3.082   2.428   4.453  1.5879 -0.5359  0.0448
11215TIP3   OH255059   4.488   0.575  13.283  0.2318  0.5481 -0.8815
11215TIP3    H155060   4.533   0.564  13.200  1.6817 -0.6537  0.0388
11215TIP3    H255061   4.475   0.670  13.291  0.7236  0.7254 -2.1304
11216TIP3   OH255062   1.659   6.353  13.173  0.3014  0.2259  0.0737
11216TIP3    H155063   1.650   6.389  13.084  1.4009  0.7587  0.1743
11216TIP3    H255064   1.746   6.315  13.175 -0.1735 -0.8578  0.5537
11217TIP3   OH255065   4.839   0.703  16.402 -0.0348  0.6868 -0.0436
11217TIP3    H155066   4.745   0.721  16.412 -0.3380  0.2947 -2.1199
11217TIP3    H255067   4.868   0.762  16.334  1.2378  0.7511  0.5430
11218TIP3   OH255068   1.705   3.524   1.145  0.0253  0.1540  0.2747
11218TIP3    H155069   1.616   3.561   1.139 -0.5506 -1.1821  0.3646
11218TIP3    H255070   1.712   3.467   1.069  0.4199 -0.5756  0.8579
11219TIP3   OH255071   2.751   5.053   2.459  0.2123 -0.1503 -0.0445
11219TIP3    H155072   2.759   4.993   2.533 -1.2728 -0.2868  0.0055
11219TIP3    H255073   2.767   4.999   2.382 -0.7893 -0.5502  0.0224
11220TIP3   OH255074   5.902   0.386   0.717  0.8375  0.4380  0.2483
11220TIP3    H155075   5.908   0.292   0.696  2.7097  0.5558  0.2172
11220TIP3    H255076   5.939   0.393   0.805  0.6972  1.1634  0.2517
11221TIP3   OH255077   5.600   6.592   2.012  0.1722 -0.2483  0.1208
11221TIP3    H155078   5.651   6.512   2.003 -0.6143 -0.5634 -1.8984
11221TIP3    H255079   5.516   6.564   2.049  0.4102 -0.1479  0.7385
11222TIP3   OH255080   0.825   0.946   3.124 -0.0727  0.1660  0.0062
11222TIP3    H155081   0.920   0.939   3.128 -0.3330 -3.5153  1.5355
11222TIP3    H255082   0.799   0.888   3.052 -1.2589 -0.3489  0.8287
11223TIP3   OH255083   1.434   1.745   5.595 -0.0784 -0.0114  0.2805
11223TIP3    H155084   1.442   1.753   5.690 -0.0176  0.7679  0.2136
11223TIP3    H255085   1.508   1.692   5.568  0.7912  1.0710  0.4942
11224TIP3   OH255086   3.088   6.575   4.038  0.1226 -0.0154  0.6190
11224TIP3    H155087   3.080   6.485   4.008 -0.5828  0.5628 -0.9766
11224TIP3    H255088   3.112   6.625   3.960  1.2610  1.0666  1.6462
11225TIP3   OH255089   5.468   2.927  13.499 -0.2150  0.1671  0.1710
11225TIP3    H155090   5.544   2.929  13.557  1.1289  0.0193 -1.5591
11225TIP3    H255091   5.397   2.892  13.554  0.8808  0.5669  1.8729
11226TIP3   OH255092   6.662   3.680   2.744 -0.2320  0.6581  0.0713
11226TIP3    H155093   6.751   3.708   2.766  0.3831 -0.5955 -0.7588
11226TIP3    H255094   6.628   3.749   2.687 -0.0705  1.4874  0.9499
11227TIP3   OH255095   2.088   1.866   5.532  0.3469 -0.5167  0.1588
11227TIP3    H155096   2.134   1.909   5.604  3.8095 -1.0268 -1.6614
11227TIP3    H255097   2.128   1.780   5.526 -1.2098 -1.1732 -1.2086
11228TIP3   OH255098   1.614   5.033   4.668  0.4609 -0.6911  0.6963
11228TIP3    H155099   1.541   5.091   4.691  1.5748  2.0042 -2.1299
11228TIP3    H255100   1.579   4.945   4.677 -3.9971  0.5123 -2.9455
11229TIP3   OH255101   0.142   3.158   0.029 -0.6108  0.2596  0.0126
11229TIP3    H155102   0.176   3.248   0.026  0.9038 -0.3186 -1.5902
11229TIP3    H255103   0.220   3.104   0.040 -1.4689 -0.8812  0.5161
11230TIP3   OH255104   1.078   1.745  13.343 -0.0007  0.9833  0.1640
11230TIP3    H155105   0.998   1.775  13.386  0.6823  1.1253  1.3380
11230TIP3    H255106   1.147   1.759  13.407  0.5797 -1.6211  0.1590
11231TIP3   OH255107   1.519   6.408  16.562  0.1713 -0.5870  0.6721
11231TIP3    H155108   1.463   6.373  16.492  1.1584 -0.1106 -0.3843
11231TIP3    H255109   1.491   6.361  16.641  0.3312 -2.5488 -0.3966
11232TIP3   OH255110   4.995   5.509  15.202  0.0304  0.2325  0.4035
11232TIP3    H155111   4.946   5.450  15.145 -0.3103  0.9112 -0.0200
11232TIP3    H255112   5.058   5.552  15.144 -0.8561  1.5172  0.3560
11233TIP3   OH255113   4.066   0.081  10.989  0.2669 -0.1806  0.1144
11233TIP3    H155114   4.151   0.071  11.031  0.6063  0.3101 -0.4392
11233TIP3    H255115   4.087   0.091  10.896 -0.2881  1.5815  0.1600
11234TIP3   OH255116   5.740   0.712   4.356  0.1785 -0.1928  0.2529
11234TIP3    H155117   5.794   0.666   4.291  1.0337  0.1615  0.7073
11234TIP3    H255118   5.692   0.642   4.401 -0.0804 -0.4734 -0.4509
11235TIP3   OH255119   0.930   1.387   3.554 -0.6114  0.1348 -0.1571
11235TIP3    H155120   0.887   1.306   3.581 -0.5794  0.4806  0.9640
11235TIP3    H255121   0.870   1.427   3.492 -0.6600 -0.7140 -0.6691
11236TIP3   OH255122   1.609   2.109  15.818 -0.4887 -0.4974  0.6196
11236TIP3    H155123   1.664   2.119  15.896 -1.3571 -0.0941  1.1911
11236TIP3    H255124   1.613   2.016  15.797  1.4139 -0.2702 -0.0956
11237TIP3   OH255125   1.815   1.248   0.344 -0.5255 -0.6732 -0.1568
11237TIP3    H155126   1.909   1.235   0.327 -0.2467  1.3107 -0.3561
11237TIP3    H255127   1.804   1.231   0.437  0.3791  0.7974  0.2289
11238TIP3   OH255128   4.080   6.729  10.540 -0.0059 -0.1988  0.2729
11238TIP3    H155129   4.122   6.644  10.553 -0.2832 -0.0797  2.0615
11238TIP3    H255130   4.070   6.736  10.445  5.5846  0.5581 -0.4517
11239TIP3   OH255131   6.257   5.492  15.115 -0.6503  0.6205  0.1090
11239TIP3    H155132   6.235   5.521  15.027  1.8429  0.1895 -0.7023
11239TIP3    H255133   6.352   5.500  15.120 -0.4887 -1.7903  1.8955
11240TIP3   OH255134   2.720   6.549  16.390  0.1005 -0.2567 -0.5337
11240TIP3    H155135   2.684   6.632  16.359 -0.0003 -0.7879 -1.8588
11240TIP3    H255136   2.654   6.516  16.450  1.1695  1.7136  1.8135
11241TIP3   OH255137   5.973   4.144  13.427 -0.3748 -0.1456 -0.5691
11241TIP3    H155138   5.895   4.100  13.394 -0.1162 -1.4609  0.5332
11241TIP3    H255139   5.965   4.234  13.395 -1.4481 -0.7051 -1.9536
11242TIP3   OH255140   1.455   1.624  14.690 -0.0860 -0.7063 -0.1888
11242TIP3    H155141   1.404   1.643  14.611 -0.8817 -1.3692  0.1544
11242TIP3    H255142   1.480   1.532  14.681  0.1174 -0.6845  0.1560
11243TIP3   OH255143   1.049   4.146  14.394  0.1443  0.1876  0.3532
11243TIP3    H155144   1.046   4.050  14.392  0.4934  0.1899 -1.6359
11243TIP3    H255145   1.126   4.166  14.446  0.0427 -0.6147  0.8226
11244TIP3   OH255146   3.730   6.446   1.314 -0.0249 -0.2894  0.0760
11244TIP3    H155147   3.754   6.506   1.385 -0.4673  0.0880 -0.0865
11244TIP3    H255148   3.801   6.455   1.250  0.3270 -0.5603  0.4270
11245TIP3   OH255149   4.176   0.336  16.941  0.1953  0.0761 -0.1353
11245TIP3    H155150   4.172   0.324  17.036 -1.9780  0.1418 -0.2141
11245TIP3    H255151   4.265   0.368  16.926  1.0332 -1.2400  1.7169
11246TIP3   OH255152   0.747   4.272  10.860 -0.0541 -0.3656 -0.0682
11246TIP3    H155153   0.724   4.220  10.783 -0.1704  1.5442 -1.3585
11246TIP3    H255154   0.668   4.323  10.880  0.4492  0.2344  0.4208
11247TIP3   OH255155   0.347   2.271   0.314 -0.0355  0.0943 -0.1196
11247TIP3    H155156   0.373   2.247   0.225  2.1139  2.3692 -0.1757
11247TIP3    H255157   0.425   2.256   0.366 -0.3665  1.5310  0.8195
11248TIP3   OH255158   5.355   3.794   3.696 -0.9899 -0.1918  0.6230
11248TIP3    H155159   5.412   3.805   3.772  0.9689 -0.6311 -0.7528
11248TIP3    H255160   5.273   3.760   3.733 -1.0453  2.2006  2.8274
11249TIP3   OH255161   2.988   1.563   3.011  0.4150  0.3761 -0.2696
11249TIP3    H155162   2.948   1.616   2.943 -0.7976  1.6650  1.4011
11249TIP3    H255163   2.921   1.499   3.035  0.1955  1.0506  0.9287
11250TIP3   OH255164   6.714   1.747   4.840  0.9525 -0.3176 -0.5005
11250TIP3    H155165   6.699   1.714   4.929 -3.5129 -0.9583 -1.3680
11250TIP3    H255166   6.703   1.670   4.784  1.5357  0.5282 -1.7927
11251TIP3   OH255167   4.338   5.694  12.576 -0.2529  0.2975  0.0980
11251TIP3    H155168   4.366   5.734  12.658  0.6942 -0.4981  0.1724
11251TIP3    H255169   4.258   5.647  12.598 -1.1580  1.7936  0.0970
11252TIP3   OH255170   2.297   4.870  13.180  0.0994  0.0495  0.1806
11252TIP3    H155171   2.296   4.955  13.224  0.1180 -0.8025  1.8592
11252TIP3    H255172   2.389   4.843  13.182 -0.4759 -1.8834  3.3894
11253TIP3   OH255173   4.474   5.776  11.615  0.0704 -0.0457 -0.0636
11253TIP3    H155174   4.511   5.809  11.534  0.2449 -0.9314 -0.3530
11253TIP3    H255175   4.516   5.691  11.628  0.0102  0.0665  0.9234
11254TIP3   OH255176   2.991   6.653  15.477 -0.1358 -0.1762 -0.5269
11254TIP3    H155177   3.018   6.692  15.560 -3.5933 -0.8835  1.0259
11254TIP3    H255178   3.045   6.575  15.468  2.4971  1.5930 -0.5844
11255TIP3   OH255179   5.340   5.896   4.909  0.0258  0.3203 -0.3003
11255TIP3    H155180   5.287   5.860   4.838 -0.5662  2.1442 -0.8134
11255TIP3    H255181   5.301   5.982   4.927  1.8599  1.0362  0.3827
11256TIP3   OH255182   3.066   0.989   2.792 -0.3436  0.2689  0.3727
11256TIP3    H155183   3.158   0.968   2.804 -0.4890 -0.3779  0.3415
11256TIP3    H255184   3.066   1.069   2.739  0.1767 -0.2514 -0.4155
11257TIP3   OH255185   4.008   3.093   0.379 -0.5588 -0.0371 -0.0735
11257TIP3    H155186   4.100   3.074   0.361 -0.3626 -1.0267  1.8181
11257TIP3    H255187   3.998   3.185   0.355  0.2736 -0.5763 -2.6679
11258TIP3   OH255188   0.939   1.922   1.654  0.1392  0.0394 -0.4778
11258TIP3    H155189   1.008   1.874   1.607 -0.7198 -0.7650 -0.9185
11258TIP3    H255190   0.981   1.949   1.735  0.3676 -2.2630  0.2053
11259TIP3   OH255191   5.924   0.365  16.904 -0.5718 -0.5331  0.2841
11259TIP3    H155192   5.951   0.376  16.995 -1.3583 -2.9325  0.8538
11259TIP3    H255193   6.005   0.343  16.857 -0.1930  0.5403  0.4249
11260TIP3   OH255194   0.233   2.907   1.860 -0.6062  0.1180 -0.7408
11260TIP3    H155195   0.186   2.923   1.942  3.5549 -0.7716  1.9784
11260TIP3    H255196   0.300   2.974   1.857  2.1792 -2.5657 -1.0723
11261TIP3   OH255197   1.407   4.614  13.066  0.2836  0.1379  0.0454
11261TIP3    H155198   1.499   4.639  13.078  0.1768  0.2951  0.5882
11261TIP3    H255199   1.411   4.527  13.027  0.6624  0.6849 -1.1515
11262TIP3   OH255200   5.831   4.289  15.861 -0.4331 -0.2425  0.7015
11262TIP3    H155201   5.892   4.237  15.912 -1.2984 -0.6613  1.3304
11262TIP3    H255202   5.745   4.252  15.882 -0.8061 -0.4403 -1.0751
11263TIP3   OH255203   4.972   2.838  14.629  0.7320  0.1139 -0.0638
11263TIP3    H155204   4.878   2.841  14.651  0.7037  0.9907 -0.2915
11263TIP3    H255205   5.010   2.779  14.695  0.5059  2.0303  1.8205
11264TIP3   OH255206   5.432   0.776   4.241  0.6599  0.0364 -0.0133
11264TIP3    H155207   5.489   0.821   4.304 -0.1053 -0.5236  1.1020
11264TIP3    H255208   5.345   0.779   4.281 -0.3243  1.9063 -2.2505
11265TIP3   OH255209   5.752   1.980  11.391  0.3548 -0.0627 -0.4812
11265TIP3    H155210   5.692   1.961  11.318 -0.8068  2.2571 -0.1774
11265TIP3    H255211   5.820   2.035  11.352 -0.0283  0.8109  0.0540
11266TIP3   OH255212   5.941   3.672   4.529 -0.1245 -0.7561  0.0771
11266TIP3    H155213   5.914   3.644   4.617  0.1079  0.1161  0.4369
11266TIP3    H255214   6.000   3.603   4.499  1.4070 -0.0897  1.4508
11267TIP3   OH255215   6.439   2.919  15.796 -0.3788  0.4690 -0.7082
11267TIP3    H155216   6.450   2.917  15.892 -0.8279  1.2518 -0.6275
11267TIP3    H255217   6.452   3.011  15.774  0.3707  0.1727 -1.4837
11268TIP3   OH255218   2.443   5.169   0.125 -0.1841 -0.5138  0.2789
11268TIP3    H155219   2.529   5.198   0.096  0.3804 -2.3508  0.0621
11268TIP3    H255220   2.426   5.089   0.074 -1.6419 -0.6322  0.9279
11269TIP3   OH255221   2.071   5.361  14.509  0.0528 -0.4226 -0.1540
11269TIP3    H155222   2.073   5.440  14.456 -0.7297 -0.2477  0.0805
11269TIP3    H255223   2.005   5.378  14.576 -0.1847 -1.3039 -0.1590
11270TIP3   OH255224   1.225   4.020  11.535 -0.2029  0.1787  0.3711
11270TIP3    H155225   1.318   4.002  11.549 -0.5511 -1.1388  1.0882
11270TIP3    H255226   1.181   3.974  11.606 -1.4290  0.5291 -0.1506
11271TIP3   OH255227   2.563   3.063  15.862  0.2474 -0.4250  0.4312
11271TIP3    H155228   2.542   3.096  15.775  0.9413  1.0352  0.8074
11271TIP3    H255229   2.536   2.971  15.860  1.4511 -0.7529 -1.7338
11272TIP3   OH255230   1.543   3.840  13.098 -0.3932  0.7216  0.2562
11272TIP3    H155231   1.637   3.829  13.110  0.1402  4.0198 -0.5095
11272TIP3    H255232   1.504   3.789  13.169  1.9497 -0.5266  0.6957
11273TIP3   OH255233   2.527   5.628   5.697 -0.3452 -0.0198 -0.1983
11273TIP3    H155234   2.547   5.679   5.775  0.6593  1.1898 -1.2232
11273TIP3    H255235   2.440   5.591   5.714 -0.8930  1.6563  0.7617
11274TIP3   OH255236   2.884   0.407   2.287  0.0025 -0.3299  0.0799
11274TIP3    H155237   2.909   0.365   2.204 -2.2856  0.4210 -1.0425
11274TIP3    H255238   2.798   0.444   2.269 -0.9136 -0.9318  3.1220
11275TIP3   OH255239   1.358   1.366   3.943  0.7103  0.4973 -0.5363
11275TIP3    H155240   1.278   1.313   3.946  0.5574  0.7945  0.9742
11275TIP3    H255241   1.356   1.407   3.857 -0.2840 -0.2286 -0.8736
11276TIP3   OH255242   5.168   3.885  12.682  0.6079 -0.6756  0.6276
11276TIP3    H155243   5.200   3.861  12.595  1.0718 -2.1326  1.1800
11276TIP3    H255244   5.101   3.819  12.701  0.0415  0.0341  1.1088
11277TIP3   OH255245   0.081   6.137   3.373  0.0744  0.1145  0.3297
11277TIP3    H155246   0.086   6.041   3.381 -1.0625  0.1174  1.3226
11277TIP3    H255247   0.017   6.151   3.303  1.4340  0.1514 -0.9237
11278TIP3   OH255248   1.163   5.963   5.068 -0.1872 -0.3063 -0.2029
11278TIP3    H155249   1.119   5.886   5.104  0.5869 -0.6127  0.1042
11278TIP3    H255250   1.185   5.939   4.978 -0.7254 -0.1188 -0.3857
11279TIP3   OH255251   1.180   5.551  15.291  0.0121 -0.1236 -0.0562
11279TIP3    H155252   1.272   5.552  15.315 -0.3042  0.4601  1.1827
11279TIP3    H255253   1.134   5.572  15.372 -1.2406 -1.0046 -0.5309
11280TIP3   OH255254   0.380   5.253   4.479 -0.1177 -0.0537  0.3874
11280TIP3    H155255   0.382   5.199   4.559 -0.7067 -0.8123 -0.1015
11280TIP3    H255256   0.402   5.192   4.409  0.0377  0.5346 -0.0743
11281TIP3   OH255257   5.846   0.298   1.752  0.6144 -0.0689 -0.6150
11281TIP3    H155258   5.892   0.290   1.835 -0.1699 -0.3255 -0.2054
11281TIP3    H255259   5.831   0.207   1.724 -2.7537 -0.0748  0.9798
11282TIP3   OH255260   5.946   3.318   6.888 -0.5094  0.6873 -0.4262
11282TIP3    H155261   5.958   3.412   6.902 -1.1243  0.8732 -1.1429
11282TIP3    H255262   5.935   3.309   6.794 -2.3772  0.1260 -0.1849
11283TIP3   OH255263   0.725   2.119   5.133  0.0137  0.1790 -0.7618
11283TIP3    H155264   0.732   2.214   5.124  3.5151  0.2242  1.4129
11283TIP3    H255265   0.663   2.106   5.204  1.3752  0.9801  0.6134
11284TIP3   OH255266   2.871   0.455   4.499  0.6928  0.0337 -0.0449
11284TIP3    H155267   2.854   0.364   4.524  0.8494  0.6360  2.4028
11284TIP3    H255268   2.799   0.479   4.441 -0.6201 -0.9495  1.1452
11285TIP3   OH255269   2.137   2.652  11.444  0.4504 -0.2920 -0.1676
11285TIP3    H155270   2.049   2.688  11.434  0.1511 -0.6338  1.1134
11285TIP3    H255271   2.142   2.582  11.379 -0.0728 -0.0059 -0.5222
11286TIP3   OH255272   2.360   3.650  11.612 -0.3588  0.3107  0.2609
11286TIP3    H155273   2.433   3.653  11.550  0.9415 -1.2307  1.6571
11286TIP3    H255274   2.392   3.699  11.688 -0.0344 -1.9557  1.6119
11287TIP3   OH255275   6.289   6.040  12.308 -0.4646 -0.0193 -0.0789
11287TIP3    H155276   6.360   5.995  12.262  0.1711  1.1976 -0.2885
11287TIP3    H255277   6.213   5.983  12.295  0.0370 -0.4090 -1.4126
11288TIP3   OH255278   1.939   3.428   3.301  0.0016  0.0677  0.3568
11288TIP3    H155279   1.969   3.474   3.379 -0.1682  0.4979  0.1687
11288TIP3    H255280   1.956   3.488   3.229 -2.6892  0.9447  0.4188
11289TIP3   OH255281   2.861   2.339  16.999  0.4365 -0.4257 -0.0047
11289TIP3    H155282   2.939   2.368  17.047 -1.0439  0.7959  1.7521
11289TIP3    H255283   2.841   2.253  17.034 -0.0051  0.0096  0.8495
11290TIP3   OH255284   2.909   5.650  10.247 -0.3942 -0.7183 -0.1219
11290TIP3    H155285   2.835   5.696  10.208 -0.2736  0.7576  1.3231
11290TIP3    H255286   2.885   5.638  10.338  1.3015  0.1076  0.4491
11291TIP3   OH255287   1.607   1.993   0.921  0.0816  0.3513 -0.4085
11291TIP3    H155288   1.634   2.036   0.840  0.7251 -0.8025 -0.8062
11291TIP3    H255289   1.568   2.064   0.973  1.4106  1.4937 -0.9290
11292TIP3   OH255290   0.692   2.931   6.434 -0.0891 -0.1374  0.4992
11292TIP3    H155291   0.631   3.004   6.446 -0.9916 -0.9229  0.8159
11292TIP3    H255292   0.758   2.965   6.374 -0.2894  1.0589  0.9325
11293TIP3   OH255293   3.006   6.415  16.772  0.0335 -0.0848 -0.2028
11293TIP3    H155294   3.024   6.353  16.701 -1.3636 -1.3772  0.5451
11293TIP3    H255295   2.937   6.374  16.823 -0.9960  2.1466  0.2704
11294TIP3   OH255296   5.436   1.089  10.507 -0.2098  0.2536 -0.2287
11294TIP3    H155297   5.488   1.047  10.575  0.5984 -0.4582 -1.2699
11294TIP3    H255298   5.384   1.018  10.468 -1.2898  0.7980  0.1943
11295TIP3   OH255299   1.559   0.799   2.148  0.2912  0.2025  0.7159
11295TIP3    H155300   1.535   0.845   2.067 -0.9847  1.9129  2.0207
11295TIP3    H255301   1.475   0.778   2.188  0.9172 -1.1606  1.3128
11296TIP3   OH255302   4.747   2.401  14.749  0.9186 -0.7088  0.1322
11296TIP3    H155303   4.665   2.401  14.699 -0.1627 -0.2798  1.8675
11296TIP3    H255304   4.799   2.332  14.709 -0.8560 -1.9354 -0.1339
11297TIP3   OH255305   1.381   6.247  16.373 -0.6699  0.0089 -0.2304
11297TIP3    H155306   1.433   6.261  16.294 -0.9644  0.6210 -0.3270
11297TIP3    H255307   1.388   6.154  16.391 -1.8321 -0.4097 -1.8499
11298TIP3   OH255308   5.315   5.765   3.117  0.2089  0.6065  0.1082
11298TIP3    H155309   5.354   5.792   3.200 -1.6214 -0.2129  1.2528
11298TIP3    H255310   5.382   5.711   3.075  0.1448 -1.1999  2.2632
11299TIP3   OH255311   2.244   1.162  15.491 -0.1355  0.0238 -0.2503
11299TIP3    H155312   2.299   1.202  15.559 -0.1251 -0.9015  0.2889
11299TIP3    H255313   2.290   1.180  15.409  0.2479  0.4812  0.0611
11300TIP3   OH255314   1.860   1.171  14.700  0.1270  0.8649 -0.2502
11300TIP3    H155315   1.916   1.226  14.645  2.4137  1.6067  2.6643
11300TIP3    H255316   1.849   1.222  14.781 -0.7623 -1.3896  1.1026
11301TIP3   OH255317   0.807   2.882   0.312 -0.1873  0.5980  0.0465
11301TIP3    H155318   0.826   2.926   0.395 -0.8035  0.4501  0.2713
11301TIP3    H255319   0.872   2.812   0.308 -0.6258  0.1356  0.7747
11302TIP3   OH255320   3.855   2.113   2.628 -0.1109  0.2396 -0.4886
11302TIP3    H155321   3.904   2.127   2.708 -2.0170 -1.0984  0.9700
11302TIP3    H255322   3.917   2.072   2.568  0.8323 -0.4030  0.9112
11303TIP3   OH255323   0.076   1.088  12.243  0.0856 -0.1808 -0.1557
11303TIP3    H155324   0.099   1.126  12.158  0.4541 -0.0688 -0.0071
11303TIP3    H255325  -0.016   1.111  12.255  0.2736  0.5743 -0.1196
11304TIP3   OH255326   3.314   2.525   0.273  0.3845  0.4061  0.0048
11304TIP3    H155327   3.332   2.516   0.180  1.4175 -1.3325  0.3532
11304TIP3    H255328   3.285   2.438   0.301 -2.0530  1.4459  0.8788
11305TIP3   OH255329   4.992   0.292  14.320 -0.1443 -0.5883  0.4630
11305TIP3    H155330   5.030   0.378  14.340  0.1737 -0.3434 -1.1179
11305TIP3    H255331   5.047   0.230  14.367  0.8480 -0.0652  0.0085
11306TIP3   OH255332   6.715   4.821  17.111 -0.4096 -0.3869  0.0881
11306TIP3    H155333   6.713   4.728  17.133 -0.7542  0.0766  2.0899
11306TIP3    H255334   6.635   4.835  17.060 -1.1074 -0.9018  1.0243
11307TIP3   OH255335   5.847   3.192   3.766 -0.3437  0.0138  0.1286
11307TIP3    H155336   5.839   3.105   3.726 -1.4793 -0.1063  0.5940
11307TIP3    H255337   5.769   3.239   3.736  0.7086  1.1640 -0.8169
11308TIP3   OH255338   3.507   4.731  14.857  0.6184 -0.3385  0.2592
11308TIP3    H155339   3.470   4.710  14.771 -0.1031 -1.2636  0.7881
11308TIP3    H255340   3.590   4.775  14.837 -0.2159  0.7519 -0.9262
11309TIP3   OH255341   4.276   0.566  14.457 -0.0911 -0.0013  0.4236
11309TIP3    H155342   4.258   0.486  14.408 -0.2672 -0.0326  0.5377
11309TIP3    H255343   4.360   0.597  14.423 -0.9385  0.8012 -0.9601
11310TIP3   OH255344   0.898   5.053  13.563 -0.8006  0.3993  0.3618
11310TIP3    H155345   0.809   5.019  13.569 -0.0288 -2.1055 -1.2299
11310TIP3    H255346   0.954   4.978  13.584  0.9544  1.4823 -0.2774
11311TIP3   OH255347   4.871   1.122  13.771  0.0684  0.5199 -0.5603
11311TIP3    H155348   4.933   1.194  13.781  1.0521 -0.0748 -2.0856
11311TIP3    H255349   4.785   1.163  13.779  0.6376  1.5732  0.2819
11312TIP3   OH255350   4.441   1.227  16.733  0.1084 -0.2213 -0.0285
11312TIP3    H155351   4.397   1.240  16.817  1.2358  0.4040  0.4974
11312TIP3    H255352   4.498   1.304  16.725 -0.9331  0.3826 -1.9781
11313TIP3   OH255353   6.208   6.501   4.537 -0.5077  0.3287  0.2125
11313TIP3    H155354   6.274   6.486   4.605  0.6128  0.0709 -0.9060
11313TIP3    H255355   6.242   6.455   4.461 -1.4706  1.1028 -0.6940
11314TIP3   OH255356   1.592   5.725  13.734 -0.5398  0.6967  0.1765
11314TIP3    H155357   1.613   5.772  13.815 -2.9375  0.3172  1.0824
11314TIP3    H255358   1.557   5.641  13.765 -0.5045  0.1361 -1.2947
11315TIP3   OH255359   2.842   6.228   5.627 -0.3047 -0.0785  0.1307
11315TIP3    H155360   2.921   6.205   5.578 -1.1112  0.1608 -1.3178
11315TIP3    H255361   2.822   6.150   5.678  0.1716 -0.5768 -0.4367
11316TIP3   OH255362   0.243   0.337  13.193 -0.2083  0.1372  0.3717
11316TIP3    H155363   0.214   0.368  13.279 -0.7819 -0.8093  0.5327
11316TIP3    H255364   0.175   0.368  13.133 -0.8226 -0.8372  0.5438
11317TIP3   OH255365   6.657   5.705   2.833 -0.4124  0.7377  0.7130
11317TIP3    H155366   6.664   5.669   2.745  0.0443  1.8339  0.2980
11317TIP3    H255367   6.673   5.630   2.891 -0.4129  0.0841 -0.1303
11318TIP3   OH255368   5.664   6.358  11.061 -0.0134 -0.0502  0.2748
11318TIP3    H155369   5.745   6.316  11.088 -0.1004 -0.4911 -0.1554
11318TIP3    H255370   5.602   6.335  11.130  0.3265  0.6117  0.8052
11319TIP3   OH255371   0.434   3.520   5.671  0.2835  0.2555  0.4416
11319TIP3    H155372   0.403   3.524   5.761 -0.6180  1.3195  0.1002
11319TIP3    H255373   0.473   3.606   5.655  0.2669  0.1414 -0.2383
11320TIP3   OH255374   3.429   0.799   1.330  0.2089 -0.1964  0.5916
11320TIP3    H155375   3.477   0.732   1.378 -0.4228  0.3476  2.0267
11320TIP3    H255376   3.463   0.882   1.362 -0.4944  0.1830  0.3881
11321TIP3   OH255377   4.951   3.380  17.025  0.2201  0.2782  0.3437
11321TIP3    H155378   4.923   3.352  16.937  0.4053  0.2800  0.2835
11321TIP3    H255379   4.877   3.359  17.081 -0.4506  1.5684 -0.0387
11322TIP3   OH255380   2.266   4.172  15.652  0.1939 -0.0964 -0.2622
11322TIP3    H155381   2.278   4.093  15.705  1.5300  0.5322  0.3950
11322TIP3    H255382   2.355   4.202  15.635 -0.2746  0.4720 -1.7235
11323TIP3   OH255383   1.302   0.357   0.955  0.3472 -0.2223  0.4895
11323TIP3    H155384   1.275   0.449   0.947  1.3641  0.0436 -0.0086
11323TIP3    H255385   1.298   0.339   1.049 -1.0067 -0.0329  0.4763
11324TIP3   OH255386   0.100   3.102   1.686 -0.2807 -0.0379  0.2015
11324TIP3    H155387   0.117   3.034   1.750  0.3102 -0.7878 -0.7283
11324TIP3    H255388   0.161   3.172   1.708  0.0949 -0.3976  0.3053
11325TIP3   OH255389   2.659   2.894  16.527 -0.2365 -0.0887  0.2147
11325TIP3    H155390   2.569   2.869  16.546 -0.4094  1.4250  1.5517
11325TIP3    H255391   2.652   2.960  16.458 -0.0762 -0.6192 -0.3162
11326TIP3   OH255392   2.873   3.126  14.253 -0.0209  0.5505 -0.7056
11326TIP3    H155393   2.830   3.055  14.300 -0.6301  1.5143  0.2389
11326TIP3    H255394   2.935   3.162  14.316  0.3168  0.8164 -1.1893
11327TIP3   OH255395   5.389   2.002  16.489  0.0740  0.3766  0.4782
11327TIP3    H155396   5.362   2.000  16.398  0.7149  0.6318  0.2827
11327TIP3    H255397   5.315   1.964  16.537 -0.5930  0.9916 -0.0614
11328TIP3   OH255398   2.643   6.336  13.060 -0.0535 -0.7564 -0.0179
11328TIP3    H155399   2.707   6.265  13.074  2.2469  1.2539  0.0124
11328TIP3    H255400   2.628   6.336  12.965  3.2676  1.4287 -0.6149
11329TIP3   OH255401   2.515   5.331   0.559  0.5641  0.0446  0.5869
11329TIP3    H155402   2.521   5.351   0.465  0.7088 -0.0607  0.5741
11329TIP3    H255403   2.600   5.293   0.580  0.4785 -0.0638  0.7306
11330TIP3   OH255404   0.481   0.783   3.063  1.0890 -0.7229 -0.2341
11330TIP3    H155405   0.541   0.838   3.114  0.1901  1.0474 -1.0262
11330TIP3    H255406   0.456   0.839   2.989 -1.8258 -1.2863  0.2995
11331TIP3   OH255407   3.285   1.676  14.344 -0.5878  0.6739  0.0555
11331TIP3    H155408   3.240   1.665  14.427  0.1568  0.2270  0.4109
11331TIP3    H255409   3.231   1.737  14.295 -0.8434  1.2282  1.0100
11332TIP3   OH255410   5.797   1.811  14.876 -0.4218  0.3604  0.5102
11332TIP3    H155411   5.749   1.775  14.951  0.8022 -0.5779  0.8624
11332TIP3    H255412   5.863   1.744  14.856 -2.6760 -0.8848 -3.3649
11333TIP3   OH255413   0.150   5.410   1.987 -0.2608 -0.6306 -0.1117
11333TIP3    H155414   0.064   5.432   1.952 -0.0005  1.2248  0.3546
11333TIP3    H255415   0.201   5.383   1.910 -0.7048  0.1073 -0.6785
11334TIP3   OH255416   6.430   0.855  15.575 -0.3138 -0.0347 -0.0919
11334TIP3    H155417   6.408   0.948  15.574 -0.9493 -0.1895 -1.6484
11334TIP3    H255418   6.348   0.812  15.602 -0.6063 -0.2705 -1.3144
11335TIP3   OH255419   6.076   3.770  11.424 -0.3243  0.1462 -0.5316
11335TIP3    H155420   6.034   3.811  11.499  0.5897  1.4986 -0.7228
11335TIP3    H255421   6.069   3.835  11.354  2.9141  0.8556 -0.2791
11336TIP3   OH255422   2.393   2.184   2.318  0.0524 -0.6459  0.6520
11336TIP3    H155423   2.343   2.260   2.349 -0.6373 -1.7128  2.2530
11336TIP3    H255424   2.392   2.123   2.392  1.7355 -1.6667 -0.1373
11337TIP3   OH255425   0.175   1.924  11.746 -0.2996  0.0387 -0.1253
11337TIP3    H155426   0.172   2.019  11.737 -2.6083 -0.1160 -1.3843
11337TIP3    H255427   0.252   1.907  11.801 -0.8013  2.7134  1.4852
11338TIP3   OH255428   0.325   2.859  15.881 -0.2672 -0.7399  0.0705
11338TIP3    H155429   0.340   2.897  15.968 -1.1802 -1.8005  0.6983
11338TIP3    H255430   0.323   2.935  15.823 -1.6664  0.1644  1.2588
11339TIP3   OH255431   1.027   0.076   4.155  0.2584  0.3469  0.1336
11339TIP3    H155432   1.060   0.164   4.175 -0.1645  0.4460  0.3837
11339TIP3    H255433   1.066   0.020   4.222 -1.6703  0.7783  1.6363
11340TIP3   OH255434   5.493   3.503  14.606 -0.2642 -0.1379 -0.2302
11340TIP3    H155435   5.514   3.487  14.698 -1.4859  0.2242  0.1216
11340TIP3    H255436   5.399   3.483  14.599 -0.8800  2.7342 -0.7119
11341TIP3   OH255437   2.668   4.132   1.054  0.3862 -0.1954 -0.1707
11341TIP3    H155438   2.742   4.123   1.114  0.5290  2.4973  0.1262
11341TIP3    H255439   2.706   4.122   0.967  0.9577  0.3072  0.0186
11342TIP3   OH255440   4.580   4.965   5.298  0.9568 -1.0147  0.2041
11342TIP3    H155441   4.495   4.924   5.281 -0.9254  2.1022  1.7019
11342TIP3    H255442   4.635   4.893   5.327 -2.0742 -2.6649  2.1547
11343TIP3   OH255443   3.995   2.042   5.004 -0.0133  0.2758  0.3119
11343TIP3    H155444   4.061   2.006   4.945  0.1513  0.8897  0.1156
11343TIP3    H255445   4.030   2.127   5.030 -0.9065  0.7722 -0.0953
11344TIP3   OH255446   5.259   4.059   5.341  0.2114 -0.5685 -0.0991
11344TIP3    H155447   5.206   4.139   5.333  1.0551 -0.1461 -1.4718
11344TIP3    H255448   5.274   4.050   5.435 -0.5936  0.4284  0.1332
11345TIP3   OH255449   0.783   1.852   2.014  0.2875 -0.0559 -0.6035
11345TIP3    H155450   0.763   1.805   2.095  1.3499 -0.8446 -0.7840
11345TIP3    H255451   0.740   1.936   2.024 -0.3129 -0.4729  0.4174
11346TIP3   OH255452   2.899   5.137  15.218 -0.1142 -0.1813  0.0655
11346TIP3    H155453   2.860   5.094  15.294  2.2053 -0.3909  1.1795
11346TIP3    H255454   2.940   5.065  15.169  0.7606  0.2965  0.0847
11347TIP3   OH255455   2.052   0.460  15.452  0.0544 -0.3981  0.1882
11347TIP3    H155456   1.968   0.460  15.406  1.5772  1.0592 -2.7628
11347TIP3    H255457   2.050   0.541  15.504 -2.3015 -2.8100  4.0872
11348TIP3   OH255458   2.243   4.185   4.984 -0.2566 -0.2614  0.1869
11348TIP3    H155459   2.336   4.182   4.962  0.0241  0.2526  1.2382
11348TIP3    H255460   2.239   4.244   5.060 -1.6018  0.7726 -0.6688
11349TIP3   OH255461   1.801   0.768  15.368 -0.5298  0.0433 -0.5612
11349TIP3    H155462   1.844   0.746  15.285 -1.8822  2.7240 -2.0874
11349TIP3    H255463   1.714   0.728  15.361 -0.2749 -0.6161  0.0300
11350TIP3   OH255464   1.225   0.203   1.735 -0.0742 -0.7304  0.1866
11350TIP3    H155465   1.317   0.179   1.741  0.0343 -0.7403 -1.4625
11350TIP3    H255466   1.224   0.287   1.689 -0.8293 -0.1851  1.1594
11351TIP3   OH255467   4.077   5.012   4.393  0.4389 -0.4997 -0.1189
11351TIP3    H155468   4.103   4.945   4.456 -0.4025 -0.6738  0.0504
11351TIP3    H255469   4.142   5.081   4.403  0.8968 -0.9771  0.2189
11352TIP3   OH255470   2.509   6.357  14.625 -0.5469 -0.3030 -0.1361
11352TIP3    H155471   2.488   6.306  14.703 -1.7661  2.3086  1.2752
11352TIP3    H255472   2.424   6.374  14.584 -0.1390  0.4585 -0.6755
11353TIP3   OH255473   4.937   2.478  15.060  0.2475 -0.6669  0.4704
11353TIP3    H155474   4.918   2.485  14.966 -3.0984 -1.6552  1.0044
11353TIP3    H255475   4.925   2.566  15.094  1.6355 -0.2714 -0.0359
11354TIP3   OH255476   5.100   4.156   5.639  0.0098 -0.8348  0.3294
11354TIP3    H155477   5.100   4.169   5.734  0.4200 -0.0025  0.2257
11354TIP3    H255478   5.164   4.220   5.607  0.2282 -1.4471 -0.4598
11355TIP3   OH255479   3.350   5.652  13.368  0.7773  0.2694 -0.0060
11355TIP3    H155480   3.288   5.717  13.401  0.3121  0.1581 -0.6605
11355TIP3    H255481   3.353   5.667  13.274  0.8236 -0.5274 -0.1314
11356TIP3   OH255482   4.831   5.118   2.884  0.3459  0.1080  0.3993
11356TIP3    H155483   4.741   5.142   2.908  0.7726  0.7537  1.3815
11356TIP3    H255484   4.831   5.023   2.883 -0.9340  0.0823 -1.8257
11357TIP3   OH255485   3.837   4.036  11.722  0.3322  0.0557  0.6879
11357TIP3    H155486   3.799   4.053  11.809 -1.0992 -1.1684  0.3116
11357TIP3    H255487   3.926   4.007  11.741  0.4150  0.9183  1.6944
11358TIP3   OH255488   4.379   4.671  12.160 -0.0692 -0.1689 -0.4284
11358TIP3    H155489   4.459   4.622  12.179 -0.7812 -1.5275 -0.8158
11358TIP3    H255490   4.386   4.693  12.067 -0.9584 -1.9014 -0.9386
11359TIP3   OH255491   6.181   3.417   1.567  0.3799 -0.4699 -0.6706
11359TIP3    H155492   6.208   3.495   1.517  1.4614  0.2823  1.0616
11359TIP3    H255493   6.142   3.452   1.647  0.0768 -1.7022 -0.2745
11360TIP3   OH255494   3.146   3.259  16.427 -0.1566  0.4716 -0.2136
11360TIP3    H155495   3.094   3.334  16.400 -1.1609 -0.4148 -0.7917
11360TIP3    H255496   3.192   3.231  16.347  0.6760  0.8203  0.1315
11361TIP3   OH255497   3.563   0.833  15.428  0.0505 -0.0828  0.0599
11361TIP3    H155498   3.500   0.881  15.482 -0.9914 -1.2514 -0.0818
11361TIP3    H255499   3.519   0.824  15.344  0.5839 -0.5665 -0.1644
11362TIP3   OH255500   0.045   0.134   4.756 -0.1586 -0.3950 -0.3976
11362TIP3    H155501   0.062   0.140   4.850  3.2988  1.8360 -1.0882
11362TIP3    H255502   0.092   0.054   4.729 -1.5087 -1.2736 -0.1867
11363TIP3   OH255503   1.897   6.009  14.650 -0.2854 -0.6616  0.0053
11363TIP3    H155504   1.978   5.959  14.644  0.8540  1.1822 -0.0776
11363TIP3    H255505   1.911   6.085  14.595 -1.7670  0.0903  0.6457
11364TIP3   OH255506   5.868   0.924   3.500  0.7458 -0.1769 -0.4145
11364TIP3    H155507   5.862   0.994   3.565 -1.7860 -0.9942  0.3105
11364TIP3    H255508   5.928   0.860   3.538 -0.3927 -0.4496  0.9686
11365TIP3   OH255509   5.938   4.785  13.178 -0.6302  0.0581  0.3819
11365TIP3    H155510   5.919   4.875  13.150 -1.8730 -0.2700  0.1346
11365TIP3    H255511   5.864   4.762  13.235  0.1947 -0.4577  1.2607
11366TIP3   OH255512   0.213   3.483  16.028  0.1946  0.3541 -0.3387
11366TIP3    H155513   0.224   3.578  16.018 -0.3055  0.5508  0.8062
11366TIP3    H255514   0.290   3.446  15.986  0.5045  1.2852 -0.6205
11367TIP3   OH255515   5.013   5.672   1.517  0.1712  0.0763 -0.1956
11367TIP3    H155516   5.040   5.731   1.587 -0.7171  1.5903 -1.1170
11367TIP3    H255517   5.065   5.700   1.441  0.9412 -1.3887 -0.2299
11368TIP3   OH255518   1.815   4.420  15.850 -0.4813  0.0026  0.0879
11368TIP3    H155519   1.831   4.506  15.811  0.8140 -0.0086  0.5760
11368TIP3    H255520   1.821   4.434  15.944  0.6115 -0.7779  0.1485
11369TIP3   OH255521   2.662   3.120   0.024 -0.5702 -0.2083  0.1324
11369TIP3    H155522   2.653   3.184   0.094 -1.1297 -0.9157  0.7257
11369TIP3    H255523   2.613   3.043   0.055 -2.1035 -0.0082 -1.6599
11370TIP3   OH255524   6.649   2.968   1.348 -0.5504 -0.3083  0.0351
11370TIP3    H155525   6.592   3.017   1.407 -2.9492 -2.8514 -0.0756
11370TIP3    H255526   6.621   2.995   1.261 -0.0552  0.1041  0.0027
11371TIP3   OH255527   0.828   2.970   1.058  0.2130 -0.1133 -0.2441
11371TIP3    H155528   0.802   2.882   1.087 -2.1118  0.5071 -0.3126
11371TIP3    H255529   0.792   3.029   1.125  1.1407  0.8463 -0.5734
11372TIP3   OH255530   3.898   5.954   1.846 -0.3896 -0.2923 -0.1512
11372TIP3    H155531   3.872   5.995   1.763 -2.1773 -0.6098  0.2272
11372TIP3    H255532   3.840   5.994   1.911  1.5026  0.5073  1.0824
11373TIP3   OH255533   3.776   3.584  14.539 -1.0760  0.4648 -0.4374
11373TIP3    H155534   3.795   3.632  14.458  1.8634  0.4973  0.2239
11373TIP3    H255535   3.815   3.637  14.608 -0.5099 -1.3008  0.6399
11374TIP3   OH255536   0.800   6.723  16.238 -0.8303  0.2420 -0.0021
11374TIP3    H155537   0.741   6.718  16.312 -0.1846  1.2906  0.5929
11374TIP3    H255538   0.852   6.802  16.253  0.3335 -0.3480 -0.7988
11375TIP3   OH255539   2.717   3.916  10.740  0.0266  0.3639 -0.0075
11375TIP3    H155540   2.756   3.838  10.780 -0.1475  0.7259  0.8772
11375TIP3    H255541   2.624   3.909  10.759  0.0814  1.0654  0.5794
11376TIP3   OH255542   4.148   5.574   0.788 -0.0188 -0.3758  0.0846
11376TIP3    H155543   4.083   5.614   0.729 -0.0346 -0.2947  0.1580
11376TIP3    H255544   4.192   5.510   0.733  1.3174  1.0698 -0.5748
11377TIP3   OH255545   5.649   5.914   1.803 -0.5398 -0.2929 -0.7511
11377TIP3    H155546   5.641   5.927   1.708  1.2394 -0.5169 -0.9494
11377TIP3    H255547   5.678   5.823   1.811 -4.2076 -1.4493  0.1985
11378TIP3   OH255548   5.177   1.546  15.061 -0.2537  0.2903 -0.1320
11378TIP3    H155549   5.085   1.525  15.045 -0.6765  1.9534  0.0370
11378TIP3    H255550   5.197   1.503  15.144 -0.2160 -1.9578 -1.2578
11379TIP3   OH255551   6.163   5.979   2.475 -0.2877 -0.0492 -0.4437
11379TIP3    H155552   6.110   6.051   2.508 -0.8824 -1.0933  0.9512
11379TIP3    H255553   6.243   6.020   2.442 -0.4994  1.2081  0.5952
11380TIP3   OH255554   4.937   4.468   2.400  0.2468  0.1705 -0.1243
11380TIP3    H155555   4.859   4.489   2.452  0.3420 -0.6433  0.3549
11380TIP3    H255556   5.008   4.518   2.442  0.3860 -0.7388  0.7361
11381TIP3   OH255557   1.838   3.915  14.424  0.3586  0.1172 -0.0070
11381TIP3    H155558   1.760   3.936  14.476 -0.0921 -0.8991 -0.2622
11381TIP3    H255559   1.845   3.987  14.362  0.0601  0.6059  0.5190
11382TIP3   OH255560   1.354   6.462   2.007 -0.0647  0.2576  0.2529
11382TIP3    H155561   1.309   6.521   1.946  0.2733 -0.8583 -1.1172
11382TIP3    H255562   1.438   6.444   1.964 -0.4314 -1.7246  0.3226
11383TIP3   OH255563   0.244   2.666  12.519  0.4095 -0.0109 -0.2515
11383TIP3    H155564   0.286   2.747  12.549 -0.0568  0.7257 -1.5704
11383TIP3    H255565   0.285   2.647  12.435  0.1993 -0.8935 -0.1545
11384TIP3   OH255566   2.198   1.260   3.972  0.4657  0.0074 -0.2600
11384TIP3    H155567   2.232   1.227   4.055 -0.1051  0.7304  0.2732
11384TIP3    H255568   2.158   1.344   3.994 -0.9039 -0.4190 -1.0032
11385TIP3   OH255569   3.689   6.607  17.110  0.4201 -0.4598 -0.0971
11385TIP3    H155570   3.726   6.574  17.192  0.3367 -1.5944 -0.4992
11385TIP3    H255571   3.711   6.539  17.046 -0.2490  0.0196 -0.8404
11386TIP3   OH255572   1.936   6.487  17.237 -0.7176 -0.3514  0.7967
11386TIP3    H155573   1.915   6.466  17.146 -1.0075 -1.1097  1.0324
11386TIP3    H255574   1.983   6.570  17.233 -0.5144 -0.5094 -0.0661
11387TIP3   OH255575   2.037   4.538   0.683  1.2498  0.0213 -0.3742
11387TIP3    H155576   1.971   4.539   0.752  1.5292  0.0862 -0.1092
11387TIP3    H255577   2.069   4.447   0.682  1.4858  0.1008 -0.1883
11388TIP3   OH255578   6.727   1.339   5.258  0.3808 -0.3363 -0.2296
11388TIP3    H155579   6.638   1.374   5.246 -0.2429 -1.4999  0.9062
11388TIP3    H255580   6.716   1.264   5.317  2.3900  0.8421  1.7368
11389TIP3   OH255581   5.805   2.173   5.495  0.6001  0.2099 -0.1747
11389TIP3    H155582   5.891   2.216   5.490  0.0661  1.4578  0.8495
11389TIP3    H255583   5.806   2.128   5.580  0.8860 -1.2387 -0.9330
11390TIP3   OH255584   4.365   5.419  15.398 -0.2851 -0.0176  0.1215
11390TIP3    H155585   4.292   5.447  15.453 -1.6679 -0.9433 -1.1878
11390TIP3    H255586   4.338   5.442  15.309  2.2340  2.1256 -0.1487
11391TIP3   OH255587   4.551   0.169   3.845  0.4775 -0.0623 -0.1904
11391TIP3    H155588   4.586   0.238   3.901  1.5241 -0.1703 -0.7030
11391TIP3    H255589   4.620   0.103   3.843 -0.9326 -1.6375  1.1891
11392TIP3   OH255590   0.633   0.186  11.069 -0.1316 -0.0202 -0.0145
11392TIP3    H155591   0.671   0.247  11.006  0.0374  0.4115  0.5031
11392TIP3    H255592   0.695   0.185  11.142 -0.3022 -0.5524  0.1240
11393TIP3   OH255593   2.721   0.936   0.751 -0.0177 -0.2986 -0.3992
11393TIP3    H155594   2.767   0.906   0.673  2.1622 -4.1527  2.2256
11393TIP3    H255595   2.788   0.980   0.804 -1.3540  1.7987 -0.3796
11394TIP3   OH255596   5.742   4.782   5.940  0.0555 -0.2991  0.5212
11394TIP3    H155597   5.748   4.844   5.868  0.2369  1.0297  1.6467
11394TIP3    H255598   5.833   4.758   5.959 -0.1191 -2.1599 -0.9597
11395TIP3   OH255599   6.191   0.613   4.350  0.1649  0.2140  0.2192
11395TIP3    H155600   6.222   0.685   4.404  1.0220  0.4984 -0.6459
11395TIP3    H255601   6.112   0.582   4.394  1.3552 -0.1541  2.1374
11396TIP3   OH255602   6.662   4.304   4.256 -0.0072 -0.1219 -0.0564
11396TIP3    H155603   6.669   4.302   4.351 -0.8046 -2.9685 -0.0340
11396TIP3    H255604   6.573   4.333   4.239 -0.4247 -1.3280  0.0802
11397TIP3   OH255605   3.776   0.473  14.852 -0.3665 -0.3058  0.5965
11397TIP3    H155606   3.765   0.556  14.807  0.0166 -2.0020 -2.7847
11397TIP3    H255607   3.868   0.470  14.876 -0.3162  0.1223  0.4523
11398TIP3   OH255608   5.344   6.028   2.927 -0.5495 -0.1587  0.1935
11398TIP3    H155609   5.342   6.111   2.879 -2.4790 -1.2218 -1.6753
11398TIP3    H255610   5.285   6.041   3.001 -1.2394 -0.0061 -0.3758
11399TIP3   OH255611   1.706   4.016   5.174 -0.0095 -0.0043  0.4174
11399TIP3    H155612   1.646   4.070   5.226 -1.4759 -0.6261 -0.5683
11399TIP3    H255613   1.745   3.956   5.237 -0.1582  0.6606  1.1409
11400TIP3   OH255614   0.301   4.949  17.037 -0.1138  0.1776 -0.2107
11400TIP3    H155615   0.278   4.916  17.124 -1.8799  2.6408  0.3553
11400TIP3    H255616   0.245   4.900  16.977 -0.6376  0.1388  0.3079
11401TIP3   OH255617   0.244   4.120  17.117  0.3855  1.0695 -0.4254
11401TIP3    H155618   0.249   4.080  17.031 -1.7562 -1.4390  0.5472
11401TIP3    H255619   0.283   4.056  17.176 -3.6469  0.0076  1.2386
11402TIP3   OH255620   5.902   3.308   6.630 -0.4313  0.0301 -0.2006
11402TIP3    H155621   5.814   3.341   6.649 -0.1804  0.7885 -0.3566
11402TIP3    H255622   5.933   3.363   6.559  0.6320  0.5301  0.6482
11403TIP3   OH255623   6.561   0.884  12.000 -0.5278 -0.7567  0.1256
11403TIP3    H155624   6.612   0.959  12.031 -2.9386  1.0018  0.0569
11403TIP3    H255625   6.624   0.813  11.991  1.7668  1.1715  0.5531
11404TIP3   OH255626   5.306   0.993   3.749  0.2871  0.2374  0.2076
11404TIP3    H155627   5.366   0.929   3.710  1.0244  1.4509 -0.7007
11404TIP3    H255628   5.301   0.969   3.841 -0.4112 -1.8674 -0.3646
11405TIP3   OH255629   0.084   4.482  13.753 -0.3280 -0.0439 -0.6415
11405TIP3    H155630   0.012   4.499  13.692 -1.7705 -0.6476  0.8304
11405TIP3    H255631   0.091   4.386  13.754 -0.2301 -0.0315  0.0206
11406TIP3   OH255632   0.013   0.708   0.677  0.5243  0.5362  0.0071
11406TIP3    H155633   0.033   0.800   0.663  0.7450  0.4421 -0.3140
11406TIP3    H255634  -0.075   0.696   0.642  0.4670  0.6411  0.1146
11407TIP3   OH255635   6.751   2.293  14.147 -0.1078  0.0789 -0.1611
11407TIP3    H155636   6.752   2.383  14.178 -0.3679  0.5797 -1.5451
11407TIP3    H255637   6.659   2.267  14.151 -0.8971  1.6716 -4.5993
11408TIP3   OH255638   4.136   6.207  17.159  0.0997  0.5129  0.1093
11408TIP3    H155639   4.121   6.142  17.228  2.1713 -0.7576 -0.5728
11408TIP3    H255640   4.058   6.262  17.159 -1.9422 -2.2930  0.3769
11409TIP3   OH255641   3.908   6.261  12.480 -0.1876  0.1054  0.8528
11409TIP3    H155642   3.864   6.301  12.405  1.7700 -0.4033 -0.6293
11409TIP3    H255643   3.869   6.303  12.557 -0.8528  2.0840 -0.5243
11410TIP3   OH255644   6.230   6.202  12.870 -0.2753  0.7728 -0.4458
11410TIP3    H155645   6.263   6.269  12.930 -0.7503  1.2838 -0.7503
11410TIP3    H255646   6.164   6.247  12.818 -1.6867 -0.3387  0.3709
11411TIP3   OH255647   5.904   4.391   3.916 -0.1129  0.2461 -0.2225
11411TIP3    H155648   5.990   4.353   3.896  0.3426  1.9740 -1.6925
11411TIP3    H255649   5.867   4.334   3.983  0.9037 -2.2578 -1.7391
11412TIP3   OH255650   4.975   0.219  15.190 -0.5934  0.8933  0.0009
11412TIP3    H155651   4.938   0.306  15.178 -1.8270  0.6425  1.7221
11412TIP3    H255652   4.999   0.216  15.283  1.4310  0.1493 -0.5080
11413TIP3   OH255653   0.188   3.378  15.724 -0.5549  0.5512  0.2718
11413TIP3    H155654   0.106   3.405  15.682  0.3660 -0.6688 -2.4622
11413TIP3    H255655   0.169   3.292  15.762 -0.6343  0.4087 -0.0910
11414TIP3   OH255656   4.894   5.170   3.373  0.1244  0.5009  0.3679
11414TIP3    H155657   4.962   5.125   3.322 -0.1284 -0.7094  1.0767
11414TIP3    H255658   4.814   5.159   3.322 -0.0521 -0.3733  0.8232
11415TIP3   OH255659   1.873   5.293  13.921 -0.3606  0.1632 -0.4204
11415TIP3    H155660   1.864   5.198  13.918 -0.9366  0.1901  0.2763
11415TIP3    H255661   1.896   5.313  14.012 -0.1735  0.6853 -0.5760
11416TIP3   OH255662   5.253   1.979   4.334 -0.4359 -0.0685  0.0696
11416TIP3    H155663   5.338   1.939   4.315 -1.5805 -1.6219 -2.0747
11416TIP3    H255664   5.220   2.008   4.248 -1.5031  1.7085  1.0345
11417TIP3   OH255665   6.764   1.856   2.270 -0.1942 -0.3954  0.4640
11417TIP3    H155666   6.848   1.816   2.248 -0.7360 -0.4708 -1.6562
11417TIP3    H255667   6.772   1.883   2.361  1.6658 -1.5629  0.6608
11418TIP3   OH255668   1.542   1.991  16.920  0.6349  0.6525 -0.2710
11418TIP3    H155669   1.506   2.015  17.006 -1.7802  1.7355 -1.5350
11418TIP3    H255670   1.484   1.920  16.890  0.7018  1.1248 -1.5266
11419TIP3   OH255671   6.542   5.173   1.570  0.3928  0.1391 -0.3745
11419TIP3    H155672   6.605   5.204   1.505  2.7741 -0.5015  1.5423
11419TIP3    H255673   6.467   5.145   1.519  1.2607  1.7975 -2.6852
11420TIP3   OH255674   3.817   0.251   6.597 -0.3839  0.0210  0.1102
11420TIP3    H155675   3.802   0.293   6.513 -0.6571 -3.1369 -1.5160
11420TIP3    H255676   3.912   0.243   6.605 -0.3605  0.2618  0.0508
11421TIP3   OH255677   4.349   3.020  11.904 -0.1241  0.5295 -0.6490
11421TIP3    H155678   4.353   2.999  11.998 -0.1612  2.2653 -0.2313
11421TIP3    H255679   4.335   2.936  11.861 -0.1799 -0.2845  0.9117
11422TIP3   OH255680   0.577   3.966   5.066  0.3582 -0.7119 -0.2083
11422TIP3    H155681   0.632   4.000   4.995  1.4029  0.3100  1.0669
11422TIP3    H255682   0.639   3.930   5.129 -0.6196 -2.6565 -0.3088
11423TIP3   OH255683   6.697   0.224  15.436 -0.0161  0.4228  0.4697
11423TIP3    H155684   6.697   0.320  15.440  0.1163  0.4519 -0.1248
11423TIP3    H255685   6.655   0.204  15.353  2.1665  0.0382 -0.5811
11424TIP3   OH255686   0.717   0.792  14.507 -0.4725  0.2091  0.1165
11424TIP3    H155687   0.650   0.857  14.484 -1.3638 -1.0835 -0.9946
11424TIP3    H255688   0.717   0.730  14.434  1.6140 -0.0820  0.3241
11425TIP3   OH255689   4.286   6.232  13.382  0.3115  0.2036 -0.1908
11425TIP3    H155690   4.212   6.274  13.426 -0.3935 -1.2394  0.0688
11425TIP3    H255691   4.361   6.248  13.439 -0.1738  0.1550  0.4641
11426TIP3   OH255692   2.501   0.711  13.093  0.1759 -0.0727  0.2279
11426TIP3    H155693   2.470   0.667  13.172 -0.2826  1.3443  0.8579
11426TIP3    H255694   2.487   0.648  13.022 -0.1366 -1.0520  1.1612
11427TIP3   OH255695   4.466   0.807  10.790  0.2339 -0.2699  0.1145
11427TIP3    H155696   4.409   0.790  10.864 -0.8248  0.9466 -0.3993
11427TIP3    H255697   4.418   0.773  10.714 -0.1687  1.4737 -0.4216
11428TIP3   OH255698   5.774   3.409   6.009 -0.1836 -0.1382  0.4111
11428TIP3    H155699   5.806   3.429   6.097 -1.1270 -0.5550  0.8603
11428TIP3    H255700   5.842   3.353   5.971  0.9592  1.3179  0.3004
11429TIP3   OH255701   5.474   2.566   3.023  0.3088 -0.8100 -0.4589
11429TIP3    H155702   5.555   2.518   3.043 -0.2493 -1.5327  0.0845
11429TIP3    H255703   5.462   2.624   3.098  0.4302 -0.5597 -0.6332
11430TIP3   OH255704   5.835   2.793  15.829 -0.0605 -0.2655 -0.1414
11430TIP3    H155705   5.747   2.759  15.811  0.5621 -1.4808 -1.0301
11430TIP3    H255706   5.822   2.884  15.854 -1.8105 -1.1754  2.3680
11431TIP3   OH255707   6.736   5.183   3.276 -0.1992  0.2669  0.2457
11431TIP3    H155708   6.662   5.145   3.228  0.3748  0.1644 -0.5516
11431TIP3    H255709   6.766   5.256   3.222 -0.5290  1.1310  1.1947
11432TIP3   OH255710   2.806   5.993  16.898  0.2265  0.4133  0.5004
11432TIP3    H155711   2.719   6.009  16.862  0.3511  2.1217  0.9218
11432TIP3    H255712   2.859   6.066  16.866  0.7662  1.0181  2.6922
11433TIP3   OH255713   4.401   3.254   3.539  0.0422  0.2065 -0.3142
11433TIP3    H155714   4.402   3.279   3.631  0.5519  1.4901 -0.6647
11433TIP3    H255715   4.342   3.316   3.497  0.8681  0.4779 -1.0880
11434TIP3   OH255716   2.770   4.503   2.261  0.5285  0.4059 -0.1919
11434TIP3    H155717   2.844   4.499   2.201  0.8415 -0.8609  0.2679
11434TIP3    H255718   2.723   4.420   2.247  0.1988  0.4191  0.7880
11435TIP3   OH255719   6.070   4.058  16.268  0.0393 -0.1916 -0.0719
11435TIP3    H155720   6.117   4.141  16.278 -0.9373  0.1376  2.1183
11435TIP3    H255721   6.014   4.053  16.345 -2.7876 -1.0660 -2.1149
11436TIP3   OH255722   4.312   1.550  15.533  0.0943  0.3446  0.3558
11436TIP3    H155723   4.361   1.514  15.460 -0.9067 -0.7887  0.2274
11436TIP3    H255724   4.320   1.645  15.523  0.7913  0.1848 -0.6459
11437TIP3   OH255725   6.034   5.245   1.659  0.4220  0.0518 -0.1952
11437TIP3    H155726   6.071   5.233   1.571 -1.1783 -4.3540 -0.4046
11437TIP3    H255727   6.103   5.218   1.718  0.4776  0.1058 -0.2362
11438TIP3   OH255728   5.355   6.200  11.653  0.1372  0.0394  0.1442
11438TIP3    H155729   5.349   6.266  11.584 -1.6370  1.1180  1.2962
11438TIP3    H255730   5.444   6.210  11.688 -0.2291  2.0848  0.5487
11439TIP3   OH255731   6.422   4.596   2.225  1.1625 -0.0932 -0.0509
11439TIP3    H155732   6.509   4.610   2.261  1.1333  0.3833 -0.1632
11439TIP3    H255733   6.424   4.506   2.190  1.1473 -0.6108  1.2569
11440TIP3   OH255734   0.243   2.227   4.924 -0.2662 -0.7551  0.7398
11440TIP3    H155735   0.262   2.268   5.009 -0.8975  3.3682 -0.9500
11440TIP3    H255736   0.329   2.200   4.891  0.1820 -0.8659  1.9655
11441TIP3   OH255737   2.673   6.409  13.322  0.6286  0.3883 -0.5547
11441TIP3    H155738   2.609   6.478  13.339 -0.0898 -0.3498 -0.2061
11441TIP3    H255739   2.638   6.362  13.246  0.2978 -0.5395  0.1485
11442TIP3   OH255740   3.358   2.228   5.102  0.6430 -0.2742  0.3823
11442TIP3    H155741   3.297   2.209   5.173  2.3261 -0.2494  1.8810
11442TIP3    H255742   3.333   2.169   5.031 -0.3860 -1.0575  1.3844
11443TIP3   OH255743   2.246   3.754   4.845 -0.6876 -0.2227 -0.4202
11443TIP3    H155744   2.255   3.733   4.752  1.0363 -0.3406 -0.2529
11443TIP3    H255745   2.337   3.764   4.875 -1.2913  2.4022  0.6500
11444TIP3   OH255746   2.337   5.251  13.731 -0.5250  0.2143  0.3506
11444TIP3    H155747   2.331   5.269  13.825 -4.3770  1.3019 -0.0061
11444TIP3    H255748   2.389   5.323  13.696  1.2235 -0.3813  1.6661
11445TIP3   OH255749   4.172   2.419  16.395 -0.1923  0.4912  0.6387
11445TIP3    H155750   4.254   2.409  16.347  0.0152  2.3451  0.5803
11445TIP3    H255751   4.154   2.513  16.394 -1.4584  0.2923  2.0836
11446TIP3   OH255752   2.774   5.402   6.100 -0.1534  0.1545 -0.1833
11446TIP3    H155753   2.814   5.448   6.174 -0.3629  0.7012 -0.4007
11446TIP3    H255754   2.829   5.427   6.025 -1.0247  1.0993 -0.5260
11447TIP3   OH255755   5.699   2.113  15.780 -0.4147 -0.3803 -0.0288
11447TIP3    H155756   5.652   2.166  15.715  2.0129 -0.0264 -1.5418
11447TIP3    H255757   5.720   2.032  15.734  2.4256  0.3740 -0.1484
11448TIP3   OH255758   4.092   6.684  11.529 -0.4193 -0.1385  0.3360
11448TIP3    H155759   4.090   6.774  11.495  0.4601  0.1028  0.9017
11448TIP3    H255760   4.142   6.691  11.611  1.3381 -1.4896 -0.5971
11449TIP3   OH255761   6.015   2.126  16.953  0.0466 -0.3331  0.0984
11449TIP3    H155762   5.982   2.126  17.043 -0.1525 -1.9399  0.0383
11449TIP3    H255763   6.009   2.035  16.925 -0.8618  0.3142 -1.9139
11450TIP3   OH255764   1.089   0.356  12.945 -0.8274 -0.1121  0.8008
11450TIP3    H155765   1.024   0.308  12.894  0.7591  0.0417 -1.4298
11450TIP3    H255766   1.129   0.416  12.882  1.0793  0.1874  2.2702
11451TIP3   OH255767   4.572   5.467  13.698 -0.4506 -0.0917 -0.4189
11451TIP3    H155768   4.637   5.429  13.639 -0.0653  0.6300 -0.4638
11451TIP3    H255769   4.616   5.543  13.736 -1.1683  0.2282 -0.2231
11452TIP3   OH255770   6.553   6.446   3.599 -0.4047 -0.8357 -0.1946
11452TIP3    H155771   6.525   6.489   3.680  2.8240  1.4794 -0.2139
11452TIP3    H255772   6.537   6.353   3.615  1.3711 -0.5810  3.6406
11453TIP3   OH255773   3.511   5.611  16.584  0.0847 -0.2109  0.4149
11453TIP3    H155774   3.586   5.657  16.546  0.1890 -0.6561  0.0777
11453TIP3    H255775   3.526   5.520  16.562 -0.5593 -0.2994  0.3566
11454TIP3   OH255776   2.337   1.736  14.044 -0.0115  0.5922  0.4370
11454TIP3    H155777   2.332   1.827  14.074 -0.6852  0.5489  0.4606
11454TIP3    H255778   2.371   1.687  14.119  1.3891  0.9841  0.0813
11455TIP3   OH255779   2.854   2.737  13.673 -0.1238 -0.1298  0.4178
11455TIP3    H155780   2.948   2.727  13.688 -0.1493 -0.0700  0.6254
11455TIP3    H255781   2.845   2.825  13.637 -0.1845  0.1923  1.1998
11456TIP3   OH255782   2.007   0.080   0.173  0.0152  0.3777  0.3269
11456TIP3    H155783   2.003   0.100   0.079 -0.8060  0.3620  0.3548
11456TIP3    H255784   2.064   0.003   0.178  1.1067  1.1457 -0.0234
11457TIP3   OH255785   3.359   6.378  14.062 -0.2209  0.5539  0.2858
11457TIP3    H155786   3.282   6.331  14.032 -0.1712  0.0116  1.0075
11457TIP3    H255787   3.406   6.316  14.118 -1.0913  2.0009  2.7471
11458TIP3   OH255788   4.676   0.144   2.205 -0.1209  0.5604  0.6025
11458TIP3    H155789   4.651   0.194   2.127  0.5875  0.0398  0.0443
11458TIP3    H255790   4.636   0.058   2.192  2.5342 -0.5343 -0.6499
11459TIP3   OH255791   4.536   1.683   3.999  0.4669  0.0376  0.6540
11459TIP3    H155792   4.583   1.661   3.918 -0.4362  2.0651 -0.4462
11459TIP3    H255793   4.452   1.639   3.991  1.8543 -3.0355  2.3196
11460TIP3   OH255794   5.628   1.910  14.424 -0.5969 -0.0952 -0.6417
11460TIP3    H155795   5.535   1.896  14.404 -0.0614 -1.0431 -2.5613
11460TIP3    H255796   5.663   1.822  14.436  0.1482  0.2443 -0.3147
11461TIP3   OH255797   0.839   4.428  14.022 -0.9667 -0.4460 -0.2448
11461TIP3    H155798   0.821   4.334  14.023 -0.7458 -0.4877  0.6591
11461TIP3    H255799   0.877   4.445  13.936  0.5978 -1.4970  0.2266
11462TIP3   OH255800   5.249   1.414   0.359 -0.3629 -0.0323 -0.4813
11462TIP3    H155801   5.285   1.479   0.420  1.3436 -0.2697 -1.2078
11462TIP3    H255802   5.289   1.332   0.385 -0.4466 -0.3187 -1.2610
11463TIP3   OH255803   3.255   2.235  16.426 -0.2478  0.4658 -0.3920
11463TIP3    H155804   3.195   2.178  16.475  0.2645 -0.2659 -0.5995
11463TIP3    H255805   3.277   2.185  16.348 -0.0989  1.1233 -0.7705
11464TIP3   OH255806   2.684   6.458  12.153  0.2662  0.2614 -0.3861
11464TIP3    H155807   2.605   6.485  12.202 -0.9053 -0.5100 -1.8249
11464TIP3    H255808   2.669   6.366  12.133  1.4042  0.2006 -0.9606
11465TIP3   OH255809   0.401   5.138   3.525 -0.0600  0.2813 -0.0706
11465TIP3    H155810   0.380   5.209   3.585  0.9068  0.5880 -0.0818
11465TIP3    H255811   0.432   5.068   3.581  0.2346  0.3398 -0.1590
11466TIP3   OH255812   2.520   5.225   2.477  0.2972 -0.6944 -0.3470
11466TIP3    H155813   2.590   5.170   2.513  0.5244 -0.1055  0.1155
11466TIP3    H255814   2.560   5.267   2.401  2.2671  3.9431  3.0405
11467TIP3   OH255815   6.620   1.232  13.136 -0.2312 -0.0098 -0.4262
11467TIP3    H155816   6.687   1.180  13.181  0.4469 -0.1255 -1.5417
11467TIP3    H255817   6.630   1.320  13.173  0.5781 -0.0141 -0.6170
11468TIP3   OH255818   6.706   2.538  12.849 -0.1260 -0.8266 -0.4700
11468TIP3    H155819   6.690   2.502  12.937  1.6789  0.0441  0.2379
11468TIP3    H255820   6.679   2.467  12.790 -3.8175 -0.4860  0.6578
11469TIP3   OH255821   1.506   5.912   2.730 -0.3500 -0.1096 -0.4015
11469TIP3    H155822   1.546   5.827   2.715  0.2828  0.3655 -1.4841
11469TIP3    H255823   1.573   5.975   2.702 -0.3409  0.7620  1.5216
11470TIP3   OH255824   6.655   0.078   5.864  0.0631  0.2865 -0.3194
11470TIP3    H155825   6.593   0.098   5.934 -1.6331  0.4783 -1.8392
11470TIP3    H255826   6.666  -0.017   5.867  1.5761  0.4877  1.4754
11471TIP3   OH255827   5.487   3.398  12.237  0.1674 -0.4467 -0.7266
11471TIP3    H155828   5.411   3.352  12.202 -0.9166 -0.1543  1.1678
11471TIP3    H255829   5.465   3.491  12.230  0.1005 -0.3796  0.3830
11472TIP3   OH255830   0.986   0.995   0.092  0.1381  0.1251  0.1435
11472TIP3    H155831   0.963   1.083   0.121 -0.1950  0.5878 -1.4977
11472TIP3    H255832   1.066   0.974   0.141  1.2429  2.0599 -0.8053
11473TIP3   OH255833   3.809   4.056   6.715 -0.4537 -0.4956 -0.2370
11473TIP3    H155834   3.739   4.084   6.657  1.5067  1.4704 -1.7413
11473TIP3    H255835   3.818   4.127   6.779 -0.9330 -1.5053  0.9748
11474TIP3   OH255836   5.624   4.075   5.374  0.2784 -0.2519  0.2630
11474TIP3    H155837   5.618   4.170   5.376  0.0376 -0.2543 -0.2243
11474TIP3    H255838   5.630   4.049   5.466  0.5649  0.2442  0.3872
11475TIP3   OH255839   6.729   3.733  16.999 -0.0839 -0.3455 -0.1049
11475TIP3    H155840   6.823   3.717  17.004 -0.4063 -2.1735  0.2360
11475TIP3    H255841   6.703   3.752  17.089 -0.0005  0.4495 -0.2456
11476TIP3   OH255842   0.454   3.838   0.900  0.0674  0.2530  0.0606
11476TIP3    H155843   0.444   3.823   0.994  2.3532  1.6735  0.5763
11476TIP3    H255844   0.403   3.768   0.859 -1.2766 -0.1538  2.3459
11477TIP3   OH255845   0.963   1.906  12.553 -0.1289  0.0417  0.2623
11477TIP3    H155846   0.926   1.960  12.483  1.2705  1.1056  0.3318
11477TIP3    H255847   1.008   1.835  12.507 -0.7993 -0.3219  0.1457
11478TIP3   OH255848   3.517   5.963  12.142 -0.1089  0.5594  0.0704
11478TIP3    H155849   3.510   5.868  12.152 -0.6065  0.5084 -0.7444
11478TIP3    H255850   3.526   5.996  12.232  0.2473 -0.2667  0.3400
11479TIP3   OH255851   3.019   2.587   1.733 -0.3990  0.3724 -0.1553
11479TIP3    H155852   2.948   2.649   1.753  0.1968  1.3996 -1.2165
11479TIP3    H255853   3.065   2.577   1.816 -0.0454  1.9484 -0.1362
11480TIP3   OH255854   6.512   2.244   0.436 -0.0249  1.1469  0.0447
11480TIP3    H155855   6.530   2.338   0.443 -0.9235  1.3833 -0.6859
11480TIP3    H255856   6.584   2.202   0.483  1.2545  2.1498 -0.9548
11481TIP3   OH255857   3.061   4.463   0.872  0.3104 -0.0317 -0.4062
11481TIP3    H155858   3.073   4.548   0.828 -0.0051  0.7019  0.8938
11481TIP3    H255859   3.145   4.445   0.913  1.1755 -1.5918 -2.7603
11482TIP3   OH255860   5.257   2.239   3.429 -0.9246  0.1250 -0.1577
11482TIP3    H155861   5.256   2.321   3.380 -1.5957  0.5615  0.5803
11482TIP3    H255862   5.336   2.244   3.483 -1.8738  1.0780  1.1909
11483TIP3   OH255863   0.264   3.971  15.379 -0.1291  0.0309  0.5870
11483TIP3    H155864   0.291   4.060  15.403 -0.7505  1.0879 -2.3979
11483TIP3    H255865   0.169   3.970  15.396 -0.1915  0.0849  0.2520
11484TIP3   OH255866   2.496   6.234  10.666  0.0083  0.0353  0.0120
11484TIP3    H155867   2.583   6.273  10.671  0.1324 -0.2703  0.2272
11484TIP3    H255868   2.445   6.297  10.614 -0.0751  0.9948  1.2297
11485TIP3   OH255869   0.243   4.782  11.067  0.6769 -0.0382  0.0128
11485TIP3    H155870   0.241   4.854  11.004 -0.0908  0.8112  0.9772
11485TIP3    H255871   0.218   4.823  11.150 -0.8295 -1.6141  0.3723
11486TIP3   OH255872   4.266   2.875  12.165  0.1229 -0.9021 -0.2259
11486TIP3    H155873   4.321   2.883  12.243 -1.0553 -0.1633  0.5493
11486TIP3    H255874   4.251   2.781  12.155 -1.7664 -0.8463  1.9028
11487TIP3   OH255875   6.334   3.680  13.871  0.0547 -0.2796  0.7096
11487TIP3    H155876   6.280   3.759  13.872  1.4333  0.7299 -0.9270
11487TIP3    H255877   6.403   3.697  13.934  1.4263  0.6257 -1.0181
11488TIP3   OH255878   5.234   1.584  13.995  0.3232  0.2519 -0.3159
11488TIP3    H155879   5.148   1.556  14.027  0.2729 -0.6977 -1.2545
11488TIP3    H255880   5.215   1.626  13.910  0.8001 -0.0991 -0.5973
11489TIP3   OH255881   0.528   2.278  12.858  0.0063  0.3150 -0.7353
11489TIP3    H155882   0.607   2.296  12.807 -0.6536 -1.2193 -2.3663
11489TIP3    H255883   0.484   2.362  12.867  1.5223  1.0673 -0.3271
11490TIP3   OH255884   1.849   6.758  12.599  0.1740  0.1803  0.0738
11490TIP3    H155885   1.860   6.701  12.523 -0.4971 -0.7937  0.6897
11490TIP3    H255886   1.779   6.818  12.573  0.4167  0.2857 -0.3356
11491TIP3   OH255887   0.867   0.173   2.567  0.7053 -0.0643  0.2036
11491TIP3    H155888   0.786   0.197   2.522 -0.5527  0.3868  2.6324
11491TIP3    H255889   0.934   0.226   2.525 -0.5606  0.9816 -0.5494
11492TIP3   OH255890   1.425   6.525   5.251 -0.5642 -0.4872  0.4346
11492TIP3    H155891   1.401   6.563   5.335  0.6774  0.6254  0.2953
11492TIP3    H255892   1.513   6.558   5.233 -1.0720 -0.1481 -1.6097
11493TIP3   OH255893   2.156   4.516  15.164 -0.2316  0.3391  0.3558
11493TIP3    H155894   2.199   4.497  15.247  0.9744 -0.0262 -0.3412
11493TIP3    H255895   2.069   4.478  15.172 -0.4829  1.2021  1.8260
11494TIP3   OH255896   1.111   5.257  11.642  0.3504  0.3902 -0.1212
11494TIP3    H155897   1.161   5.260  11.561  2.0317 -2.0006  0.7533
11494TIP3    H255898   1.026   5.221  11.617  0.4601  0.7539 -1.0132
11495TIP3   OH255899   1.434   6.215  15.629 -0.1201 -0.6845  0.0290
11495TIP3    H155900   1.410   6.135  15.582  0.3721 -0.8086 -0.0142
11495TIP3    H255901   1.386   6.284  15.583  0.0614 -0.8551 -0.4235
11496TIP3   OH255902   6.232   4.406   2.464 -0.7314  0.5702 -0.4068
11496TIP3    H155903   6.200   4.356   2.390  0.9723  0.0505 -0.8151
11496TIP3    H255904   6.220   4.349   2.540 -2.6286  1.1662 -0.2327
11497TIP3   OH255905   3.084   4.181  17.156 -0.3171  0.4952 -0.1688
11497TIP3    H155906   3.153   4.118  17.136  1.1887  2.0178  0.1091
11497TIP3    H255907   3.049   4.152  17.240 -0.3648 -0.5660 -0.5466
11498TIP3   OH255908   6.446   1.395   5.793 -0.4859  0.2460 -0.0513
11498TIP3    H155909   6.520   1.436   5.838 -1.7922  1.2755  1.1886
11498TIP3    H255910   6.379   1.463   5.788 -1.0921 -0.4484 -1.8346
11499TIP3   OH255911   5.518   5.246   4.021 -0.2881  0.3819 -0.5160
11499TIP3    H155912   5.435   5.252   3.974  0.0799 -1.1102 -1.3880
11499TIP3    H255913   5.576   5.308   3.976 -0.3055 -0.1366 -1.2626
11500TIP3   OH255914   0.103   1.011  16.141 -0.1124 -0.4498  0.4091
11500TIP3    H155915   0.100   0.921  16.106  1.5866 -0.3449 -0.0551
11500TIP3    H255916   0.194   1.024  16.165 -0.3151  1.2258  0.3113
11501TIP3   OH255917   5.632   3.302  13.354 -0.4739 -0.3270  0.8275
11501TIP3    H155918   5.723   3.327  13.336 -1.5349  1.7926 -2.0445
11501TIP3    H255919   5.628   3.210  13.330  0.6367 -0.1079 -0.3089
11502TIP3   OH255920   4.736   2.109  15.349 -0.3313 -0.2862 -0.7773
11502TIP3    H155921   4.737   2.200  15.320 -2.3211  0.3594  1.0216
11502TIP3    H255922   4.647   2.078  15.332  0.5334 -2.1705 -2.0938
11503TIP3   OH255923   4.845   0.746  10.728 -0.7917  0.4057 -0.0234
11503TIP3    H155924   4.931   0.756  10.769 -1.5593 -0.3275  1.8006
11503TIP3    H255925   4.817   0.836  10.710 -1.5055  0.9214  3.3399
11504TIP3   OH255926   0.455   0.029   1.648  0.6340 -0.3339  0.8502
11504TIP3    H155927   0.478   0.065   1.734  0.3373 -1.0693  1.2348
11504TIP3    H255928   0.537   0.033   1.598 -0.0091  3.5249 -0.0691
11505TIP3   OH255929   5.913   5.064  16.256 -0.7641 -0.1872  0.3948
11505TIP3    H155930   5.850   5.013  16.205 -0.7929  0.3954 -0.1518
11505TIP3    H255931   5.920   5.017  16.339 -2.0637 -0.1477  0.5291
11506TIP3   OH255932   0.550   3.489  12.182 -0.8015  0.2490  0.4565
11506TIP3    H155933   0.501   3.412  12.156  1.5125 -1.0871 -0.1380
11506TIP3    H255934   0.506   3.520  12.262 -1.1278 -2.3311  1.3378
11507TIP3   OH255935   6.457   4.519   0.548  0.4793  0.1778  0.0103
11507TIP3    H155936   6.474   4.594   0.490  1.3060 -0.0451 -0.0354
11507TIP3    H255937   6.522   4.454   0.523 -1.3136 -1.2403 -1.1241
11508TIP3   OH255938   5.828   0.107  13.194  0.8218  0.2153  0.1450
11508TIP3    H155939   5.855   0.125  13.285 -1.0915  0.1932  0.7489
11508TIP3    H255940   5.858   0.018  13.177  3.4621  1.1401 -0.1406
11509TIP3   OH255941   3.583   5.583   4.637  0.0902  0.3582  0.4427
11509TIP3    H155942   3.591   5.501   4.590  0.7389  0.6593  0.0296
11509TIP3    H255943   3.583   5.558   4.729 -0.1707 -0.1414  0.3089
11510TIP3   OH255944   6.062   3.223   1.916 -0.5226 -0.4076 -0.2306
11510TIP3    H155945   6.059   3.301   1.861  0.0224  0.4933  0.9978
11510TIP3    H255946   5.987   3.232   1.975  0.1308 -0.3157  0.5832
11511TIP3   OH255947   1.502   6.685  15.878  0.1445 -0.1549  0.0203
11511TIP3    H155948   1.543   6.681  15.792 -1.9591 -1.9311 -0.9775
11511TIP3    H255949   1.439   6.757  15.872 -0.4760 -0.7042 -0.1748
11512TIP3   OH255950   2.480   5.334  14.475  0.3338 -0.3161 -0.2077
11512TIP3    H155951   2.434   5.388  14.412  0.8279 -1.6738 -1.7544
11512TIP3    H255952   2.573   5.349  14.457  0.4729 -1.6544 -0.6301
11513TIP3   OH255953   6.142   5.794  13.138  0.5148  0.5204  0.9207
11513TIP3    H155954   6.109   5.879  13.109 -0.2986 -0.5860 -1.5294
11513TIP3    H255955   6.222   5.781  13.086 -0.0983 -0.8122  0.3102
11514TIP3   OH255956   5.414   2.225   5.961  0.2676 -0.3844  0.2386
11514TIP3    H155957   5.424   2.135   5.993 -1.9214 -1.2064 -1.2548
11514TIP3    H255958   5.428   2.280   6.039 -0.0545 -2.0828  1.5315
11515TIP3   OH255959   3.544   3.978   2.492  0.6224  0.7538 -0.4341
11515TIP3    H155960   3.589   3.901   2.527 -0.8561 -0.1033 -0.3809
11515TIP3    H255961   3.453   3.950   2.481  0.0347  2.5266 -0.3031
11516TIP3   OH255962   1.837   4.223   4.592 -0.0831 -0.2406 -0.3966
11516TIP3    H155963   1.827   4.310   4.631 -2.9994 -1.7927  2.6515
11516TIP3    H255964   1.919   4.190   4.629 -0.3105  0.2289  0.5518
11517TIP3   OH255965   4.259   5.508   2.164  0.0815 -0.3946 -0.2877
11517TIP3    H155966   4.312   5.544   2.235 -1.1009  0.2705  0.2784
11517TIP3    H255967   4.191   5.574   2.149 -0.4920 -1.1581 -1.0987
11518TIP3   OH255968   3.418   0.980  15.610  0.2193 -0.1128  0.2634
11518TIP3    H155969   3.436   0.981  15.704  0.7825  0.4350  0.1540
11518TIP3    H255970   3.328   1.011  15.602  1.3100  3.3543  0.4057
11519TIP3   OH255971   3.778   3.346   3.099  0.0710  0.6551 -0.0081
11519TIP3    H155972   3.748   3.291   3.027  0.6743  0.0951  0.1711
11519TIP3    H255973   3.737   3.431   3.082  0.1616  0.5156 -0.9781
11520TIP3   OH255974   1.004   4.118  16.289  0.4975  0.3354  0.1232
11520TIP3    H155975   1.024   4.027  16.311  1.2316  1.1156  2.9009
11520TIP3    H255976   0.943   4.147  16.358 -2.9385  0.8032 -2.9409
11521TIP3   OH255977   3.769   5.329  15.083 -0.4057  0.2185  0.0934
11521TIP3    H155978   3.794   5.265  15.150  1.2433  0.4135 -0.2993
11521TIP3    H255979   3.674   5.333  15.087 -0.4490 -1.3628  0.9486
11522TIP3   OH255980   0.689   4.934   4.748 -0.3123  0.1648  0.4000
11522TIP3    H155981   0.676   4.939   4.843  1.6705 -0.0143  0.7090
11522TIP3    H255982   0.700   5.025   4.721  0.9470  0.1080  0.6532
11523TIP3   OH255983   2.699   6.064  13.846 -0.5848  0.1444 -0.5186
11523TIP3    H155984   2.631   6.057  13.913 -1.0251 -0.6005 -1.0274
11523TIP3    H255985   2.698   5.978  13.803 -1.3164  1.0725 -2.4218
11524TIP3   OH255986   3.953   1.377   1.935  0.0248  0.2075  0.1447
11524TIP3    H155987   3.917   1.290   1.919 -0.2330  0.4141 -0.4153
11524TIP3    H255988   4.039   1.360   1.975  0.1672 -0.3083 -0.3650
11525TIP3   OH255989   4.519   3.704  13.212 -0.0889 -0.4320 -0.6602
11525TIP3    H155990   4.484   3.692  13.301 -1.1879 -0.3432 -1.0677
11525TIP3    H255991   4.445   3.684  13.155  0.3074  0.5817 -1.5375
11526TIP3   OH255992   4.065   5.566  14.062 -0.5126  0.8445 -0.2522
11526TIP3    H155993   3.971   5.575  14.075 -0.9582 -1.7310 -1.4271
11526TIP3    H255994   4.093   5.507  14.131  0.3971  2.1771  0.5425
11527TIP3   OH255995   5.443   1.821   0.691  0.4151 -0.3636 -0.1682
11527TIP3    H155996   5.357   1.805   0.651  0.9448 -0.3804 -1.3182
11527TIP3    H255997   5.425   1.827   0.785 -0.7479 -1.0314 -0.3392
11528TIP3   OH255998   4.317   3.223  14.996 -0.1753 -0.4816 -0.3211
11528TIP3    H155999   4.223   3.243  14.995  0.4092  2.5154  0.0415
11528TIP3    H256000   4.326   3.152  15.059 -2.3797 -1.9190 -1.5545
11529TIP3   OH256001   1.794   1.481   0.761 -0.5251  0.6557 -0.4194
11529TIP3    H156002   1.701   1.461   0.770 -0.3416 -0.3795 -0.6773
11529TIP3    H256003   1.832   1.399   0.728  0.8653  0.2884  1.9804
11530TIP3   OH256004   3.990   3.748  14.188  0.2074 -0.2219  0.8685
11530TIP3    H156005   3.996   3.660  14.151  0.4015  0.1267  0.0490
11530TIP3    H256006   3.899   3.757  14.217 -0.6697  0.4391 -1.9455
11531TIP3   OH256007   0.868   3.388  11.793 -0.2861  0.1364 -0.1998
11531TIP3    H156008   0.879   3.377  11.888 -1.0649  2.7810  0.2245
11531TIP3    H256009   0.936   3.332  11.755 -0.9726 -2.2059  1.8582
11532TIP3   OH256010   1.863   6.515  12.166  0.0769  0.1726 -0.3224
11532TIP3    H156011   1.902   6.452  12.105 -4.3328 -1.7970 -1.3278
11532TIP3    H256012   1.879   6.478  12.253 -1.0498 -1.5319 -0.8226
11533TIP3   OH256013   5.220   1.705   3.039  0.2724 -0.6172  0.4853
11533TIP3    H156014   5.284   1.698   3.109  1.7443 -4.4164 -1.1111
11533TIP3    H256015   5.163   1.629   3.049 -0.1498 -0.6628 -1.8053
11534TIP3   OH256016   0.794   0.845  15.370 -0.0661  0.7740  0.0754
11534TIP3    H156017   0.819   0.774  15.311 -0.6485  0.5388  0.1007
11534TIP3    H256018   0.743   0.802  15.439 -2.1747  1.4658 -0.9835
11535TIP3   OH256019   0.868   5.032   6.384 -0.6269  0.1776 -0.2733
11535TIP3    H156020   0.874   4.965   6.317 -1.1671  1.0813 -1.2428
11535TIP3    H256021   0.855   5.114   6.335 -1.5374  0.7778  0.9463
11536TIP3   OH256022   5.950   1.641  16.551  0.4544  0.0679 -0.3073
11536TIP3    H156023   5.914   1.719  16.508  0.9494 -0.7723 -2.3233
11536TIP3    H256024   5.875   1.582  16.560  0.3830  0.1740 -0.2186
11537TIP3   OH256025   0.088   1.495  12.358 -0.3235 -0.4398 -0.2907
11537TIP3    H156026   0.030   1.485  12.434 -0.1810  1.0362  0.0278
11537TIP3    H256027   0.038   1.459  12.285 -0.2213 -2.4454  0.5956
11538TIP3   OH256028   4.748   5.779   2.627 -0.1544 -0.3651  0.2668
11538TIP3    H156029   4.749   5.865   2.585  1.1494 -1.0124 -1.0698
11538TIP3    H256030   4.783   5.795   2.715  1.5371  0.2295 -0.4923
11539TIP3   OH256031   3.560   3.645   0.884  0.3928 -0.6602  0.2662
11539TIP3    H156032   3.466   3.657   0.871  0.7609  0.9292 -1.2167
11539TIP3    H256033   3.568   3.601   0.969 -1.5812  0.8866  1.2801
11540TIP3   OH256034   0.695   4.230  13.069  0.1162 -0.0452 -0.6530
11540TIP3    H156035   0.699   4.326  13.068  2.0900 -0.0648  1.2139
11540TIP3    H256036   0.783   4.202  13.042 -0.1174 -1.3286 -0.1256
11541TIP3   OH256037   2.472   4.593  15.445  0.0547 -0.9296 -0.1690
11541TIP3    H156038   2.380   4.584  15.472  0.3022 -1.3622  0.5370
11541TIP3    H256039   2.521   4.599  15.527  0.6454 -0.5719 -0.5471
11542TIP3   OH256040   5.824   2.540  13.408 -0.1151  0.3927  0.6272
11542TIP3    H156041   5.799   2.570  13.320 -0.4807  0.3489  0.7148
11542TIP3    H256042   5.914   2.569  13.418 -0.1262  0.5506  0.3030
11543TIP3   OH256043   6.676   0.119  11.613 -0.2389 -0.7248 -0.2969
11543TIP3    H156044   6.693   0.092  11.523 -0.1692 -2.7241  0.2940
11543TIP3    H256045   6.742   0.186  11.630 -2.4143  2.2295 -2.8299
11544TIP3   OH256046   0.177   1.378  14.943 -0.3454 -0.0750  0.7548
11544TIP3    H156047   0.246   1.338  14.889 -0.5316  0.5924 -0.0009
11544TIP3    H256048   0.211   1.466  14.962 -1.7007  0.8877 -1.0653
11545TIP3   OH256049   0.678   4.483  13.572 -0.4886  0.4127  0.3632
11545TIP3    H156050   0.617   4.555  13.589  0.0725  0.7724  0.8438
11545TIP3    H256051   0.630   4.405  13.598 -2.1053  0.3360 -2.6093
11546TIP3   OH256052   3.283   3.183  13.958  0.6252  0.7600  0.1324
11546TIP3    H156053   3.192   3.195  13.929  1.1760  4.4892 -0.2463
11546TIP3    H256054   3.274   3.147  14.047 -1.1644 -0.1857 -0.3849
11547TIP3   OH256055   0.358   5.251  11.132  0.2134  0.3697 -0.3515
11547TIP3    H156056   0.280   5.212  11.172  1.6132 -0.4446  1.6701
11547TIP3    H256057   0.379   5.193  11.059  0.6633 -1.1068  0.9377
11548TIP3   OH256058   6.094   1.214  14.073 -0.1794 -0.2941  0.5319
11548TIP3    H156059   6.108   1.196  14.165  0.2684  1.2812  0.7861
11548TIP3    H256060   6.160   1.281  14.051  0.1835 -1.1536 -1.0893
11549TIP3   OH256061   5.916   1.712   2.403  0.3370 -0.4393 -1.0336
11549TIP3    H156062   5.825   1.729   2.381  0.7476 -0.9860 -3.2816
11549TIP3    H256063   5.967   1.759   2.337  1.6712 -0.5887 -0.1391
11550TIP3   OH256064   4.348   2.518   0.105  0.3766  0.0218  0.8144
11550TIP3    H156065   4.290   2.443   0.088 -0.5782  0.6530  1.2513
11550TIP3    H256066   4.373   2.549   0.018 -0.6662  0.2943  0.6044
11551TIP3   OH256067   6.373   6.705   3.027 -0.0345 -0.1748  0.4960
11551TIP3    H156068   6.327   6.647   2.966  0.6784 -0.8598  0.5990
11551TIP3    H256069   6.455   6.660   3.045  0.2900  0.6136  1.0100
11552TIP3   OH256070   3.275   3.758  11.381  0.0367  0.0198  0.1408
11552TIP3    H156071   3.369   3.770  11.393  0.1932 -1.3333  0.2926
11552TIP3    H256072   3.267   3.681  11.325 -0.9338  1.3779 -1.6461
11553TIP3   OH256073   5.550   1.039  13.161  0.1084  0.2321 -0.0088
11553TIP3    H156074   5.560   1.077  13.073 -0.4298  1.6541  0.5293
11553TIP3    H256075   5.524   1.113  13.216  1.8522 -0.3582  1.6463
11554TIP3   OH256076   6.525   4.966   4.704 -0.3374 -0.5984 -0.2159
11554TIP3    H156077   6.483   4.889   4.664 -2.1564  0.2365  0.0394
11554TIP3    H256078   6.500   5.038   4.646  2.2416 -0.3347 -1.0463
11555TIP3   OH256079   3.412   5.507  14.831 -0.3375  0.4323 -0.6737
11555TIP3    H156080   3.351   5.443  14.869 -0.4000 -0.2907 -1.9655
11555TIP3    H256081   3.356   5.573  14.790 -0.2606 -0.0107 -1.4989
11556TIP3   OH256082   2.935   6.723  17.189  0.0915 -0.0101 -0.2971
11556TIP3    H156083   2.946   6.672  17.269  1.0772  1.6885  0.6551
11556TIP3    H256084   2.936   6.657  17.119 -0.7877 -1.4972  1.0647
11557TIP3   OH256085   4.973   2.991  17.107  0.1105  0.6526 -0.1264
11557TIP3    H156086   4.946   3.064  17.163  1.0192  0.0933  1.0589
11557TIP3    H256087   4.891   2.959  17.068 -0.3109  2.1728 -0.5119
11558TIP3   OH256088   0.065   2.533   0.623  0.5894 -0.9673 -0.1803
11558TIP3    H156089   0.068   2.619   0.581 -1.7222 -1.1091 -0.6939
11558TIP3    H256090   0.067   2.470   0.551  1.3936 -1.3236  0.1485
11559TIP3   OH256091   3.245   2.536  15.185 -0.0490  0.2908 -0.0047
11559TIP3    H156092   3.316   2.483  15.148 -0.0022  0.1795  0.2467
11559TIP3    H256093   3.288   2.615  15.217 -0.0154  0.1472  0.3017
11560TIP3   OH256094   4.827   1.874  11.778  0.2960 -0.3790  0.0458
11560TIP3    H156095   4.917   1.847  11.759 -0.5898 -2.5280 -1.2059
11560TIP3    H256096   4.774   1.795  11.764 -2.3568  1.8762 -3.3580
11561TIP3   OH256097   1.692   2.546  12.525 -0.3796  0.0393  0.1769
11561TIP3    H156098   1.644   2.580  12.450  2.0705 -0.2175 -1.5554
11561TIP3    H256099   1.639   2.471  12.555 -1.3173  0.0705 -1.3548
11562TIP3   OH256100   2.610   0.558  14.318  0.0224 -0.2355  0.2845
11562TIP3    H156101   2.611   0.473  14.275 -0.2324 -0.8606  1.4722
11562TIP3    H256102   2.517   0.580  14.325  0.1076  0.4059 -0.5133
11563TIP3   OH256103   0.071   5.341  15.687 -0.2169  0.2879  0.5954
11563TIP3    H156104   0.164   5.332  15.708 -0.3821 -1.0522  0.8076
11563TIP3    H256105   0.025   5.301  15.761 -0.8395 -2.5124 -1.2025
11564TIP3   OH256106   0.244   5.302  16.744 -0.0936  0.3721 -0.5918
11564TIP3    H156107   0.267   5.270  16.657  1.4128  0.2672 -0.1695
11564TIP3    H256108   0.320   5.353  16.772  1.4621 -3.3571  2.5097
11565TIP3   OH256109   1.220   0.463   2.788  0.4244  0.3844 -0.3950
11565TIP3    H156110   1.312   0.470   2.815  0.1433  0.6936  0.5244
11565TIP3    H256111   1.173   0.454   2.871 -0.3451 -0.0955 -0.8845
11566TIP3   OH256112   0.686   0.904   2.804 -0.2343 -0.4074  0.0086
11566TIP3    H156113   0.605   0.879   2.848 -1.2424  2.4251 -0.1296
11566TIP3    H256114   0.746   0.831   2.820 -2.5296 -2.1662  0.8282
11567TIP3   OH256115   6.072   5.974   6.015  0.5131 -0.5948  0.0925
11567TIP3    H156116   6.151   6.021   6.042 -0.6866  1.1130  0.6903
11567TIP3    H256117   6.036   5.938   6.096 -0.9151  1.1610  0.2819
11568TIP3   OH256118   0.131   6.444   2.985 -0.2763 -0.0694 -0.9378
11568TIP3    H156119   0.136   6.539   3.001  0.1233 -0.1786 -0.3984
11568TIP3    H256120   0.092   6.437   2.898 -2.9821  0.5328  0.1842
11569TIP3   OH256121   3.647   6.636   6.363 -0.3998 -0.1690 -0.0666
11569TIP3    H156122   3.712   6.698   6.398 -2.3945  1.4605  0.8571
11569TIP3    H256123   3.692   6.552   6.364  1.6328  0.8849  0.7704
11570TIP3   OH256124   2.673   0.959   3.322 -0.4621 -0.0206 -0.4824
11570TIP3    H156125   2.628   0.876   3.305 -0.2811 -0.2680  0.2157
11570TIP3    H256126   2.603   1.025   3.323 -0.8665 -0.4514  0.9411
11571TIP3   OH256127   4.592   5.660  14.571 -0.2711 -0.0569 -0.6724
11571TIP3    H156128   4.559   5.580  14.612 -0.1342  0.8608  1.2359
11571TIP3    H256129   4.513   5.711  14.554 -0.0216  1.5749  2.7178
11572TIP3   OH256130   3.600   0.133  17.127  0.4130 -0.1899  0.6815
11572TIP3    H156131   3.661   0.060  17.115  0.4706  0.1236 -1.1882
11572TIP3    H256132   3.629   0.198  17.062 -1.1733  0.4663  0.6258
11573TIP3   OH256133   2.039   0.501   0.062  0.9094  0.1265 -0.1384
11573TIP3    H156134   2.086   0.456  -0.009 -1.5668 -1.1809 -0.9867
11573TIP3    H256135   1.992   0.572   0.017  0.6066  0.2797  0.4242
11574TIP3   OH256136   6.575   3.128  16.351 -0.3832 -0.5699 -0.0964
11574TIP3    H156137   6.506   3.171  16.402  1.5541  0.9288  1.3479
11574TIP3    H256138   6.653   3.182  16.366  0.9360 -1.7818 -2.3159
11575TIP3   OH256139   1.060   6.182   2.920 -0.2263 -0.2549  0.2248
11575TIP3    H156140   1.039   6.273   2.941 -0.6422 -0.5222  0.9726
11575TIP3    H256141   1.155   6.179   2.915 -0.1618 -0.0223  1.3075
11576TIP3   OH256142   2.813   3.137  11.468 -0.3952  0.2675  0.0062
11576TIP3    H156143   2.903   3.137  11.499  0.4698 -0.3363 -2.3710
11576TIP3    H256144   2.820   3.156  11.374 -2.8947  2.3860  0.1896
11577TIP3   OH256145   0.161   2.156  13.686  0.0165 -0.3687 -0.1737
11577TIP3    H156146   0.249   2.160  13.722 -0.1335 -1.3422  0.3107
11577TIP3    H256147   0.149   2.065  13.661 -1.8980 -0.8683  2.4145
11578TIP3   OH256148   5.222   5.885   2.092  0.2983 -0.1397  0.3419
11578TIP3    H156149   5.310   5.911   2.066 -0.3412  0.3826 -1.3842
11578TIP3    H256150   5.164   5.947   2.048 -0.9776 -0.9602  0.8125
11579TIP3   OH256151   5.633   1.622   5.139  0.2171  0.0636 -0.8151
11579TIP3    H156152   5.655   1.627   5.232 -0.3764 -2.4762 -0.4912
11579TIP3    H256153   5.538   1.628   5.137  0.1246 -1.2502 -1.1034
11580TIP3   OH256154   6.683   6.340   1.137 -0.3177 -0.2180  0.6521
11580TIP3    H156155   6.649   6.257   1.103 -1.9180 -0.5820  2.9792
11580TIP3    H256156   6.761   6.315   1.187  0.9097  0.0739 -1.0849
11581TIP3   OH256157   5.698   0.330   5.390  0.0532  0.2738  0.3414
11581TIP3    H156158   5.708   0.235   5.376 -1.2656  0.4456 -2.1435
11581TIP3    H256159   5.605   0.341   5.410  0.2473  1.0387  0.8266
11582TIP3   OH256160   4.099   4.067   2.824 -0.0786  0.1043 -0.4767
11582TIP3    H156161   4.171   4.008   2.845 -0.3732 -0.1246 -0.1182
11582TIP3    H256162   4.053   4.024   2.752  0.0609  0.1876 -0.6167
11583TIP3   OH256163   5.548   0.975   2.347 -0.2534  0.4143 -0.4235
11583TIP3    H156164   5.570   1.014   2.431 -0.1974 -2.0409  0.7350
11583TIP3    H256165   5.630   0.939   2.314 -0.5253  0.2588 -0.9544
11584TIP3   OH256166   5.916   6.722   3.947 -0.7228  0.0523  0.0624
11584TIP3    H156167   5.823   6.700   3.960 -0.3648 -0.8700  1.1577
11584TIP3    H256168   5.959   6.638   3.938  0.3975  0.3536  2.3024
11585TIP3   OH256169   1.635   1.079  13.695  0.3284  0.0544  0.7601
11585TIP3    H156170   1.669   1.146  13.755  1.3087 -0.7166  1.0734
11585TIP3    H256171   1.713   1.038  13.658 -0.2715  0.4691 -0.9922
11586TIP3   OH256172   4.632   5.995  15.486 -0.1830  0.0257  0.4823
11586TIP3    H156173   4.638   5.933  15.414 -0.5030  1.4857 -0.8212
11586TIP3    H256174   4.540   6.022  15.487  0.2552  1.5918  0.0759
11587TIP3   OH256175   3.046   6.396   3.722 -0.0518 -0.1969  0.8146
11587TIP3    H156176   2.984   6.386   3.650 -2.1368 -1.5945  2.7214
11587TIP3    H256177   2.992   6.389   3.801  2.0498  2.1164  2.5232
11588TIP3   OH256178   3.758   6.775   0.762  0.1245 -0.6749 -0.6440
11588TIP3    H156179   3.800   6.827   0.830 -1.2387 -1.9078  1.1820
11588TIP3    H256180   3.736   6.838   0.693  0.5150  0.7792  0.5481
11589TIP3   OH256181   5.800   1.285  13.183 -0.1188 -0.6783  0.7060
11589TIP3    H156182   5.878   1.320  13.227 -1.3635  0.8552  1.7119
11589TIP3    H256183   5.805   1.191  13.199  0.6885 -0.4107  2.1621
11590TIP3   OH256184   6.334   4.608   3.548 -0.5368 -0.1335  0.5583
11590TIP3    H156185   6.315   4.699   3.525  0.4222  0.1075  0.6834
11590TIP3    H256186   6.251   4.563   3.537 -0.6506  0.4477 -1.0725
11591TIP3   OH256187   2.695   5.115  16.434 -0.2771 -0.1000  0.0009
11591TIP3    H156188   2.663   5.059  16.363  0.7429 -1.9226  0.9225
11591TIP3    H256189   2.791   5.106  16.430 -0.1891  0.0948  1.3389
11592TIP3   OH256190   0.170   5.660  11.162 -0.2542 -0.1241 -0.0561
11592TIP3    H156191   0.261   5.633  11.149  0.1866  1.4645 -0.3201
11592TIP3    H256192   0.175   5.739  11.216 -1.5814 -1.0856  1.5207
11593TIP3   OH256193   0.946   0.671  15.190 -0.2762 -0.1025  0.1282
11593TIP3    H156194   0.993   0.680  15.107  0.5289 -2.3049  0.3306
11593TIP3    H256195   0.899   0.588  15.183 -2.0258  0.7770  1.0013
11594TIP3   OH256196   2.644   5.905   6.335  0.2526 -0.9407  0.4845
11594TIP3    H156197   2.611   5.993   6.355  3.1437  0.6138 -1.2127
11594TIP3    H256198   2.578   5.846   6.372 -2.6406  1.9321  0.1737
11595TIP3   OH256199   4.990   5.581   0.739  0.2594  0.3909 -0.2720
11595TIP3    H156200   5.011   5.509   0.680  4.9623  0.1443  1.4921
11595TIP3    H256201   4.913   5.551   0.788 -0.4943 -1.5304 -2.5272
11596TIP3   OH256202   0.660   0.779  13.682 -0.5471  0.2721 -0.4430
11596TIP3    H156203   0.717   0.856  13.691  0.2859 -0.3713 -0.1092
11596TIP3    H256204   0.721   0.706  13.671 -1.2980 -0.5196  0.5678
11597TIP3   OH256205   5.408   6.005  14.389 -0.0479  0.2043 -0.1406
11597TIP3    H156206   5.390   6.091  14.353  1.0876 -0.1989 -1.7130
11597TIP3    H256207   5.322   5.968  14.409 -0.6089  1.0411 -1.0184
11598TIP3   OH256208   0.014   4.326  13.358 -0.2398  0.0343  0.5111
11598TIP3    H156209  -0.071   4.283  13.368 -1.0828  1.2619 -0.9968
11598TIP3    H256210   0.050   4.290  13.276  0.1550  0.3903  0.5259
11599TIP3   OH256211   1.633   6.732   5.671 -0.4190 -0.0767  0.0901
11599TIP3    H156212   1.612   6.784   5.594 -2.0824  0.2952  0.7489
11599TIP3    H256213   1.724   6.752   5.691 -0.4645  1.0588 -0.8249
11600TIP3   OH256214   1.302   6.156  15.321 -0.6241  0.1152  0.3898
11600TIP3    H156215   1.260   6.073  15.298  0.2568 -0.0661 -0.5982
11600TIP3    H256216   1.381   6.159  15.267  1.6484 -0.4129  3.5297
11601TIP3   OH256217   0.224   2.976  15.150 -0.2392 -0.4765  0.1377
11601TIP3    H156218   0.269   3.000  15.069 -0.6456  0.4976  0.1985
11601TIP3    H256219   0.238   2.881  15.157 -0.8069 -0.7111 -1.4639
11602TIP3   OH256220   3.225   2.385   1.620 -0.2968 -0.2624 -0.4970
11602TIP3    H156221   3.229   2.457   1.557  0.6997  0.5827  0.4930
11602TIP3    H256222   3.317   2.359   1.632 -0.7670 -2.6843 -1.9239
11603TIP3   OH256223   4.564   6.608  11.688 -0.2153 -0.9607  0.5320
11603TIP3    H156224   4.643   6.578  11.644  0.5685  1.0590  0.4948
11603TIP3    H256225   4.508   6.641  11.618  0.6348  1.3632  0.8856
11604TIP3   OH256226   4.371   0.245   0.813 -0.5558 -0.0465  0.3477
11604TIP3    H156227   4.392   0.168   0.760  1.1014  0.2263  0.6072
11604TIP3    H256228   4.316   0.210   0.884  1.7882 -1.3507  1.5899
11605TIP3   OH256229   4.408   4.139   0.263 -0.1091  0.4783 -0.8385
11605TIP3    H156230   4.323   4.183   0.271 -0.7184 -0.5775 -1.3575
11605TIP3    H256231   4.465   4.186   0.323 -0.9140  1.5726 -0.9202
11606TIP3   OH256232   3.942   0.405   5.138  0.6581  0.4086 -0.4186
11606TIP3    H156233   4.033   0.383   5.117  0.7264  1.6486 -1.4713
11606TIP3    H256234   3.942   0.499   5.151  0.0288  0.0723  2.3421
11607TIP3   OH256235   2.701   4.386  14.269  0.0743 -0.1467  0.3378
11607TIP3    H156236   2.773   4.327  14.291 -0.2599 -0.6674  0.0590
11607TIP3    H256237   2.740   4.450  14.210  0.2489 -0.5941 -0.0374
11608TIP3   OH256238   2.097   1.866  13.915 -0.1756 -0.2387 -0.0678
11608TIP3    H156239   2.125   1.785  13.958  1.5066  0.5108  0.3030
11608TIP3    H256240   2.144   1.865  13.831  0.7747  0.8940  0.4345
11609TIP3   OH256241   4.754   0.868  16.732  0.4285 -0.1389 -0.2600
11609TIP3    H156242   4.794   0.896  16.815  0.0898  0.9323 -0.4435
11609TIP3    H256243   4.667   0.907  16.733  1.2427  1.8400 -2.1286
11610TIP3   OH256244   3.331   0.968  15.230  0.6205 -0.4465  0.5985
11610TIP3    H156245   3.402   0.945  15.171 -0.8647 -2.0629 -0.6353
11610TIP3    H256246   3.320   1.062  15.221  2.2646 -0.2705  0.4432
11611TIP3   OH256247   1.676   2.207   4.280  0.2817  0.3626  0.2178
11611TIP3    H156248   1.602   2.182   4.224  0.6019  1.0463 -0.5146
11611TIP3    H256249   1.737   2.133   4.273  0.2699  0.3948 -0.2437
11612TIP3   OH256250   6.623   1.094  16.199 -0.1986 -0.3886  0.2148
11612TIP3    H156251   6.615   1.121  16.291 -1.1048 -1.2799  0.4094
11612TIP3    H256252   6.717   1.097  16.181 -0.1044  0.8673  0.8370
11613TIP3   OH256253   3.531   6.584   3.437 -0.0161  0.1403 -0.2372
11613TIP3    H156254   3.587   6.652   3.475  0.1148  0.4274 -0.9419
11613TIP3    H256255   3.442   6.618   3.447 -0.1503 -0.6935  1.6548
11614TIP3   OH256256   4.660   2.967  15.003  0.5640  0.6218  0.0170
11614TIP3    H156257   4.656   3.060  14.979  0.6805  0.8679  0.9250
11614TIP3    H256258   4.671   2.967  15.098  2.7211 -0.3043 -0.1948
11615TIP3   OH256259   1.804   1.154  16.246  0.4871  0.7100 -0.1372
11615TIP3    H156260   1.807   1.179  16.339  1.7118 -0.2125  0.0875
11615TIP3    H256261   1.788   1.237  16.200 -2.0146  0.9168  0.9907
11616TIP3   OH256262   1.663   4.811  16.318 -0.2748 -0.2238  0.5160
11616TIP3    H156263   1.736   4.785  16.374  0.0083 -2.8437 -1.0011
11616TIP3    H256264   1.586   4.805  16.374  0.2121 -1.2150  1.0854
11617TIP3   OH256265   4.712   0.803  15.234 -0.0795  0.0311 -0.0527
11617TIP3    H156266   4.695   0.898  15.234 -1.5508 -0.1986 -1.8903
11617TIP3    H256267   4.644   0.767  15.177 -0.9215 -2.4043  2.3966
11618TIP3   OH256268   2.329   1.211  16.398  0.0077  0.1827  0.4825
11618TIP3    H156269   2.267   1.249  16.336 -2.8880 -2.8336  1.3705
11618TIP3    H256270   2.362   1.132  16.354  0.3938 -0.2190  1.4811
11619TIP3   OH256271   3.120   1.335   4.291 -0.0392  0.4283  0.3604
11619TIP3    H156272   3.181   1.272   4.253 -1.5503 -0.5020 -0.5763
11619TIP3    H256273   3.070   1.284   4.356 -0.9716  0.7517 -0.0872
11620TIP3   OH256274   1.317   5.492   5.985  0.3656  0.1397  0.0522
11620TIP3    H156275   1.387   5.548   6.020  0.0967  1.2919 -1.2162
11620TIP3    H256276   1.243   5.551   5.973  0.0868 -0.4823 -1.3577
11621TIP3   OH256277   3.408   5.656   4.053 -0.0350  0.4252 -0.2587
11621TIP3    H156278   3.370   5.569   4.069  0.0017  0.5217  0.3737
11621TIP3    H256279   3.444   5.682   4.137  0.7256  0.6877 -0.6629
11622TIP3   OH256280   1.032   4.386   5.570 -0.1475  0.5368  0.0195
11622TIP3    H156281   1.107   4.426   5.613  0.1877  2.4382 -2.1952
11622TIP3    H256282   0.957   4.415   5.622  0.4907  0.3213  1.0616
11623TIP3   OH256283   4.229   2.689   0.623  0.0435  0.3320 -0.0289
11623TIP3    H156284   4.214   2.781   0.603 -1.4300  0.5574  2.0189
11623TIP3    H256285   4.275   2.655   0.546 -1.8497  2.0975 -2.0011
11624TIP3   OH256286   2.775   4.762  12.218 -0.0065 -0.1307  0.1652
11624TIP3    H156287   2.727   4.837  12.184  1.0839 -0.1393 -1.4713
11624TIP3    H256288   2.735   4.686  12.176 -0.6087 -0.4058  1.2254
11625TIP3   OH256289   6.277   6.482   1.309  0.1410 -0.0802  0.0788
11625TIP3    H156290   6.297   6.564   1.354  1.0453  0.9544 -2.1845
11625TIP3    H256291   6.229   6.508   1.231  0.8549 -1.6844 -0.9071
11626TIP3   OH256292   1.867   2.040   6.758  0.0558 -0.1714  0.3273
11626TIP3    H156293   1.901   1.953   6.739  0.1485  0.2283 -1.4208
11626TIP3    H256294   1.933   2.100   6.724 -1.1071  0.5903 -0.6293
11627TIP3   OH256295   6.709   3.390   4.606 -0.2318 -0.3149  0.6087
11627TIP3    H156296   6.642   3.324   4.590  0.3715 -0.1412 -3.0194
11627TIP3    H256297   6.668   3.473   4.583  0.9839 -0.1522 -1.1079
11628TIP3   OH256298   6.089   0.286   3.456  0.0748 -0.1926 -0.1675
11628TIP3    H156299   6.063   0.377   3.466 -0.0715 -0.1242 -1.1430
11628TIP3    H256300   6.174   0.280   3.499  0.1066  0.4085 -0.1468
11629TIP3   OH256301   2.738   1.834  16.571  0.2248  0.5864 -0.2558
11629TIP3    H156302   2.763   1.899  16.506 -0.5277  2.0796  0.9088
11629TIP3    H256303   2.644   1.821  16.557  0.0994  0.7741  0.4024
11630TIP3   OH256304   0.955   5.469   5.320  0.1614  0.0740  0.3043
11630TIP3    H156305   1.017   5.423   5.263  2.4281  0.7832  2.1025
11630TIP3    H256306   0.904   5.400   5.362  0.8910 -0.5994  0.0841
11631TIP3   OH256307   1.631   3.094  16.865 -0.6664  0.3716  0.4762
11631TIP3    H156308   1.605   3.183  16.887 -1.4050  0.4770 -0.8061
11631TIP3    H256309   1.627   3.090  16.770 -0.1291 -0.8824  0.4904
11632TIP3   OH256310   4.201   0.621   1.700 -0.3560 -0.8601 -0.2855
11632TIP3    H156311   4.294   0.597   1.699 -0.3150 -0.7398  0.3626
11632TIP3    H256312   4.199   0.713   1.675 -0.0561 -0.1094  2.3071
11633TIP3   OH256313   2.263   5.189  15.345 -0.0237 -0.2887  0.4520
11633TIP3    H156314   2.180   5.172  15.390 -0.3123 -1.0382 -0.3630
11633TIP3    H256315   2.272   5.117  15.283  1.5242 -0.5266  0.9345
11634TIP3   OH256316   0.734   6.713  15.981  0.1428 -0.1838  0.5115
11634TIP3    H156317   0.644   6.745  15.974  0.1623 -0.1715  0.3300
11634TIP3    H256318   0.752   6.714  16.075  0.5959  1.5693  0.4228
11635TIP3   OH256319   5.978   3.770   2.723 -0.2309  0.1668  0.6971
11635TIP3    H156320   5.991   3.715   2.646  1.1910  0.9241  0.3763
11635TIP3    H256321   6.006   3.716   2.797  1.2868  0.5061  0.3706
11636TIP3   OH256322   5.061   4.931   6.326 -0.3132  0.5332  0.3091
11636TIP3    H156323   5.117   4.944   6.402 -1.0669  0.1955  0.9279
11636TIP3    H256324   4.977   4.969   6.350 -0.0284  2.1009 -1.0654
11637TIP3   OH256325   6.691   2.919  10.911  0.4103 -0.1785  0.0693
11637TIP3    H156326   6.678   2.825  10.897  0.6062 -0.1874 -0.0515
11637TIP3    H256327   6.679   2.958  10.825  1.3579 -0.2059 -0.0795
11638TIP3   OH256328   4.363   4.003   1.180  0.3031 -0.5279  0.3043
11638TIP3    H156329   4.317   3.940   1.124  2.1427 -2.0610  0.4461
11638TIP3    H256330   4.401   3.949   1.250  1.5012  0.8163  0.7131
11639TIP3   OH256331   5.852   6.653   1.240 -0.7224 -0.1424  0.7036
11639TIP3    H156332   5.865   6.568   1.197  0.2050 -0.0819  0.8557
11639TIP3    H256333   5.834   6.714   1.168  0.3083 -0.1419  0.4323
11640TIP3   OH256334   4.627   6.784  16.046  0.2608 -0.0162  0.1737
11640TIP3    H156335   4.636   6.861  16.103 -3.1934  1.5540 -1.1925
11640TIP3    H256336   4.569   6.726  16.095 -0.5197  0.1416 -0.5503
11641TIP3   OH256337   4.239   3.684   3.744  0.6005  0.0690 -0.7694
11641TIP3    H156338   4.259   3.671   3.651  0.5372 -0.2586 -0.7366
11641TIP3    H256339   4.232   3.779   3.754 -0.1475  0.0695 -1.2545
11642TIP3   OH256340   2.866   5.630   3.886  0.5744  0.2099  0.1681
11642TIP3    H156341   2.959   5.640   3.869  0.3735 -0.2060 -1.2299
11642TIP3    H256342   2.853   5.536   3.897  0.6164  0.4203  2.2272
11643TIP3   OH256343   5.265   2.565  12.669 -0.1289 -0.5971 -0.2795
11643TIP3    H156344   5.287   2.653  12.639 -1.6793  1.0605  3.1781
11643TIP3    H256345   5.186   2.542  12.619 -0.0108  0.1830 -0.8320
11644TIP3   OH256346   3.118   2.310  14.843 -0.5368  0.1194 -0.4001
11644TIP3    H156347   3.062   2.264  14.781 -1.3991 -1.0931  1.2580
11644TIP3    H256348   3.070   2.390  14.865 -0.0494  0.7526 -1.5612
11645TIP3   OH256349   1.534   1.553  15.728 -0.0241  0.5414  0.4397
11645TIP3    H156350   1.514   1.488  15.795 -0.2743  0.0029 -0.1601
11645TIP3    H256351   1.567   1.502  15.654 -0.0085  1.1146  0.0523
11646TIP3   OH256352   1.358   2.333  11.498  0.2141  0.2628  0.2050
11646TIP3    H156353   1.364   2.401  11.431 -0.9747  0.2450  0.0608
11646TIP3    H256354   1.320   2.258  11.452  0.9615 -0.3039  0.5071
11647TIP3   OH256355   4.424   1.515  11.790 -0.2540 -0.1539 -0.0634
11647TIP3    H156356   4.520   1.516  11.787 -0.1980 -2.6098 -0.3177
11647TIP3    H256357   4.398   1.569  11.715  0.9255  0.0798 -0.3238
11648TIP3   OH256358   4.572   6.675  16.581 -0.1929 -0.1251  0.3199
11648TIP3    H156359   4.548   6.661  16.672 -1.0875 -0.4679  0.0313
11648TIP3    H256360   4.583   6.587  16.545  1.1977  0.0080  0.3605
11649TIP3   OH256361   1.115   0.883  13.130  0.8487 -0.3412  0.1561
11649TIP3    H156362   1.076   0.808  13.175  0.6072 -1.4222 -1.8165
11649TIP3    H256363   1.203   0.854  13.107  1.1077  0.3516  0.2663
11650TIP3   OH256364   0.645   2.637  10.570  0.2406  0.2464 -0.5754
11650TIP3    H156365   0.570   2.690  10.595  2.0963  2.9520 -0.5033
11650TIP3    H256366   0.696   2.628  10.651  1.0787  0.2994 -1.0865
11651TIP3   OH256367   5.221   6.073   3.161 -0.1651  0.3453 -0.1816
11651TIP3    H156368   5.245   6.073   3.254  0.6721  0.9838 -0.3947
11651TIP3    H256369   5.140   6.023   3.157  0.2931 -0.4808  0.7709
11652TIP3   OH256370   0.574   1.128   1.078  0.2356 -0.5460  0.4075
11652TIP3    H156371   0.526   1.124   0.996  1.7289  0.2453 -0.5359
11652TIP3    H256372   0.594   1.037   1.099  1.7295 -0.6333 -1.2665
11653TIP3   OH256373   2.936   0.527   1.962 -0.1984 -0.3848  0.1989
11653TIP3    H156374   3.003   0.476   1.916 -0.8625  0.1309 -1.3679
11653TIP3    H256375   2.981   0.606   1.991  0.1837 -0.6306  0.2733
11654TIP3   OH256376   5.520   3.875   6.017  0.3946  0.0620 -0.1469
11654TIP3    H156377   5.585   3.815   5.980  1.2278  0.7310  0.2021
11654TIP3    H256378   5.531   3.866   6.112 -0.0050  0.1904 -0.0908
11655TIP3   OH256379   3.333   2.684  15.755 -0.1808 -0.4485 -0.1322
11655TIP3    H156380   3.275   2.742  15.804 -0.0861 -0.3754 -0.1080
11655TIP3    H256381   3.419   2.726  15.759 -0.3948  0.1222 -1.3056
11656TIP3   OH256382   6.489   5.425  15.778  0.1895 -0.3234 -0.1650
11656TIP3    H156383   6.434   5.407  15.855 -0.5381 -0.1580 -0.6481
11656TIP3    H256384   6.579   5.411  15.810 -0.1387 -0.8245  0.5608
11657TIP3   OH256385   0.473   6.472   5.940  0.5889  0.2077 -0.4965
11657TIP3    H156386   0.561   6.505   5.926  0.6669 -0.2111 -0.9813
11657TIP3    H256387   0.479   6.378   5.923  0.1526  0.0961 -0.0739
11658TIP3   OH256388   2.929   0.375  12.251 -0.5014  0.2783  0.1631
11658TIP3    H156389   2.924   0.394  12.345 -1.8302  1.0270 -0.0333
11658TIP3    H256390   3.012   0.329  12.240  1.0362  2.6449  1.2903
11659TIP3   OH256391   3.544   5.862  14.783  0.3765 -0.5753  0.5347
11659TIP3    H156392   3.544   5.938  14.842 -1.2451 -0.7086  0.7272
11659TIP3    H256393   3.602   5.888  14.712  2.0331 -0.2565  1.9778
11660TIP3   OH256394   5.481   5.601   5.118  0.5795  0.1507 -0.0679
11660TIP3    H156395   5.421   5.584   5.046 -0.0451 -1.5426  0.8199
11660TIP3    H256396   5.479   5.696   5.130  0.5090  0.4137 -2.1144
11661TIP3   OH256397   3.524   4.011   1.559  0.1437  0.3644 -0.0553
11661TIP3    H156398   3.544   4.044   1.471  0.4556  1.4156  0.4033
11661TIP3    H256399   3.429   3.995   1.557  0.3607 -0.9612 -1.0104
11662TIP3   OH256400   1.708   0.540   2.256  0.5439  0.6900 -0.0013
11662TIP3    H156401   1.712   0.632   2.283  4.4552  1.2106 -2.0560
11662TIP3    H256402   1.712   0.543   2.161  1.9993 -1.6507 -0.0369
11663TIP3   OH256403   2.422   0.363   3.683 -0.4535  0.0390  0.2554
11663TIP3    H156404   2.387   0.452   3.677 -0.5677  0.1010  1.6795
11663TIP3    H256405   2.486   0.358   3.613 -1.2458  0.8841 -0.5472
11664TIP3   OH256406   1.404   4.972   1.942 -0.1042 -0.6088  0.4440
11664TIP3    H156407   1.329   5.010   1.988 -2.3943 -1.4889 -2.4101
11664TIP3    H256408   1.376   4.883   1.919  2.0724 -1.1850 -0.1066
11665TIP3   OH256409   0.307   2.559   0.021  0.6659  0.3240  0.2732
11665TIP3    H156410   0.245   2.492   0.048  1.5926 -0.5138  0.3397
11665TIP3    H256411   0.253   2.636   0.005 -0.2673 -0.0886  1.3552
11666TIP3   OH256412   5.971   4.467   5.064  0.4697  0.3982 -0.3251
11666TIP3    H156413   6.020   4.462   5.146 -0.1602  0.8889  0.0881
11666TIP3    H256414   5.891   4.417   5.080  0.3750  0.4379 -0.6615
11667TIP3   OH256415   0.731   2.659  12.858 -0.1708 -0.5458  0.1989
11667TIP3    H156416   0.691   2.675  12.944 -0.1344  0.8700 -0.0336
11667TIP3    H256417   0.672   2.597  12.816 -0.3821 -0.9738  1.1138
11668TIP3   OH256418   1.773   2.901  12.985 -0.4155  0.1806 -0.3790
11668TIP3    H156419   1.839   2.832  12.990 -0.2089  0.4787  1.2936
11668TIP3    H256420   1.740   2.897  12.895  1.5100 -0.3112 -1.0720
11669TIP3   OH256421   0.132   0.103   4.441  0.3251  0.1741  0.0152
11669TIP3    H156422   0.109   0.195   4.434  0.3274  0.2813  1.2994
11669TIP3    H256423   0.153   0.076   4.351 -0.0911  1.3038 -0.4251
11670TIP3   OH256424   1.849   4.356   0.481 -0.2050 -0.1539 -0.3564
11670TIP3    H156425   1.755   4.364   0.498 -0.4387 -0.5184 -1.4158
11670TIP3    H256426   1.877   4.445   0.459  0.0375  0.2616  1.5155
11671TIP3   OH256427   0.558   5.961  12.172  0.3670  0.3008 -0.3494
11671TIP3    H156428   0.591   6.032  12.118  0.8009 -1.6672 -2.7746
11671TIP3    H256429   0.465   5.980  12.182  0.3170  0.8178 -1.6698
11672TIP3   OH256430   2.788   1.868  10.652  0.4758  0.1878  0.1942
11672TIP3    H156431   2.861   1.888  10.594 -0.4433  1.7969 -0.4396
11672TIP3    H256432   2.713   1.858  10.593 -0.2411  0.6993  0.9979
11673TIP3   OH256433   5.887   6.399  17.184  0.5455 -0.3547 -0.4976
11673TIP3    H156434   5.846   6.316  17.160  0.0368 -0.1298 -0.4112
11673TIP3    H256435   5.859   6.414  17.274 -1.4183  1.1627 -1.3327
11674TIP3   OH256436   2.708   6.296  15.889 -0.8521  0.2568  0.6921
11674TIP3    H156437   2.747   6.241  15.821 -2.5625 -0.1873  0.0289
11674TIP3    H256438   2.773   6.298  15.959  0.3772 -0.3693 -0.4147
11675TIP3   OH256439   3.282   3.017  12.618  0.3148  0.0726  0.3386
11675TIP3    H156440   3.304   3.103  12.652  0.8300  0.2105 -0.3218
11675TIP3    H256441   3.334   3.009  12.538  1.9669 -1.7464  1.5388
11676TIP3   OH256442   3.926   6.262   2.327 -0.0828  0.1185 -0.3067
11676TIP3    H156443   3.923   6.353   2.358  0.2267  1.3589 -3.7287
11676TIP3    H256444   3.842   6.225   2.354 -0.3268  1.4981  0.8912
11677TIP3   OH256445   5.430   4.386  12.109 -0.4851 -0.5701  0.2401
11677TIP3    H156446   5.517   4.418  12.132 -1.0957  1.7982 -0.6167
11677TIP3    H256447   5.442   4.335  12.029  0.0895 -0.1457  0.0632
11678TIP3   OH256448   5.347   3.514   1.805  0.4376 -0.0443 -0.2274
11678TIP3    H156449   5.299   3.595   1.792 -2.0411 -1.3533  0.3410
11678TIP3    H256450   5.387   3.522   1.891  0.8256  0.8628 -0.4923
11679TIP3   OH256451   0.583   6.150  16.751  0.1822  0.2101  0.6306
11679TIP3    H156452   0.628   6.076  16.711  0.7519  1.8359 -1.8324
11679TIP3    H256453   0.544   6.114  16.831  0.5274 -2.7101 -0.4546
11680TIP3   OH256454   0.639   4.134  14.373 -0.2395  0.2416  0.3604
11680TIP3    H156455   0.679   4.221  14.365  0.6954 -0.1445  0.8029
11680TIP3    H256456   0.687   4.079  14.311 -2.5647  0.6333 -1.8502
11681TIP3   OH256457   2.086   6.368   0.244  0.5393  0.0988  0.1503
11681TIP3    H156458   2.003   6.330   0.215 -0.0729  0.9052  0.8276
11681TIP3    H256459   2.128   6.397   0.163  0.0525 -0.0824 -0.1711
11682TIP3   OH256460   5.858   6.624   2.596  0.0157  0.2772 -0.0581
11682TIP3    H156461   5.782   6.608   2.651 -1.6019  1.5322 -1.8560
11682TIP3    H256462   5.926   6.654   2.657 -0.8455 -1.0378  1.5858
11683TIP3   OH256463   1.953   5.284   1.053 -0.4371  0.1436  0.4566
11683TIP3    H156464   2.014   5.213   1.073 -1.1242 -0.6483 -0.2232
11683TIP3    H256465   1.974   5.353   1.116  2.0441  0.3970 -0.5811
11684TIP3   OH256466   0.810   5.311   1.425  0.4938  0.0938  0.0438
11684TIP3    H156467   0.794   5.314   1.520 -1.8224 -0.9286 -0.2865
11684TIP3    H256468   0.880   5.247   1.414 -0.6118 -1.2778  0.9079
11685TIP3   OH256469   5.250   5.661  14.231 -0.4472 -0.0340 -0.7691
11685TIP3    H156470   5.241   5.582  14.178 -0.9024  0.8558 -2.0346
11685TIP3    H256471   5.341   5.660  14.262 -0.6117 -1.3261 -0.3195
11686TIP3   OH256472   4.787   5.533   5.285 -0.3593  0.2165  0.6849
11686TIP3    H156473   4.765   5.488   5.204 -1.6668  1.4602  0.3295
11686TIP3    H256474   4.768   5.470   5.354  1.2965 -1.0507  0.0220
11687TIP3   OH256475   5.112   1.111  14.985  0.4795 -0.2592  0.2039
11687TIP3    H156476   5.114   1.134  14.892  0.7481 -0.5620  0.1359
11687TIP3    H256477   5.142   1.020  14.989 -1.1633 -0.8201  0.4101
11688TIP3   OH256478   2.356   2.847  14.445 -0.5899 -0.1278 -0.1621
11688TIP3    H156479   2.368   2.844  14.540 -0.1558  1.4607 -0.1646
11688TIP3    H256480   2.267   2.880  14.433 -0.0304  1.3844 -0.3091
11689TIP3   OH256481   3.171   5.136  16.128  0.0855  0.4300 -0.1452
11689TIP3    H156482   3.242   5.077  16.152 -1.9174 -1.7646  0.5614
11689TIP3    H256483   3.110   5.082  16.079 -0.0690  2.8292 -2.7360
11690TIP3   OH256484   4.615   1.428   2.918 -0.0104  0.4786  0.1896
11690TIP3    H156485   4.625   1.357   2.982  0.6311 -0.7823 -1.2888
11690TIP3    H256486   4.531   1.468   2.941 -1.7107 -2.4931 -0.6125
11691TIP3   OH256487   0.276   1.113   0.528 -0.0255 -0.8744 -0.3121
11691TIP3    H156488   0.316   1.200   0.523 -0.7740 -0.6193 -1.8752
11691TIP3    H256489   0.349   1.053   0.514  0.4747 -0.5157  0.6653
11692TIP3   OH256490   6.566   2.188   1.671  0.6761 -0.2971 -0.0238
11692TIP3    H156491   6.594   2.207   1.761 -0.5693 -0.7758  0.4796
11692TIP3    H256492   6.493   2.127   1.681  2.4448 -2.7635 -1.4814
11693TIP3   OH256493   4.247   6.761  15.233  0.0416  0.1058  0.1783
11693TIP3    H156494   4.160   6.733  15.263  0.1694  0.2760  0.7231
11693TIP3    H256495   4.307   6.696  15.270  0.2711  0.7180  0.8948
11694TIP3   OH256496   1.393   1.564   1.277  0.1005 -0.1953 -0.1961
11694TIP3    H156497   1.348   1.644   1.249 -1.1365 -1.5072 -1.9891
11694TIP3    H256498   1.397   1.510   1.199  0.5461 -2.0921  1.1154
11695TIP3   OH256499   1.873   2.425  13.093 -0.3045  0.3697  0.3671
11695TIP3    H156500   1.871   2.512  13.133 -1.4241  0.1830  0.7394
11695TIP3    H256501   1.946   2.380  13.136 -1.9556 -0.0767  2.7369
11696TIP3   OH256502   1.174   0.435   1.938 -0.3292 -0.0945  0.1084
11696TIP3    H156503   1.132   0.350   1.945 -0.6734  0.1368  0.9139
11696TIP3    H256504   1.268   0.417   1.943 -0.3945 -0.4489  0.0204
11697TIP3   OH256505   5.230   0.165   1.586  0.3937  0.4941 -0.0016
11697TIP3    H156506   5.197   0.110   1.516 -0.7061  0.3227  0.6402
11697TIP3    H256507   5.280   0.105   1.642  3.0870  1.0175 -1.7461
11698TIP3   OH256508   0.667   4.291   4.048 -0.2631 -0.0833  0.0458
11698TIP3    H156509   0.639   4.199   4.051  0.3522 -0.2444  1.2712
11698TIP3    H256510   0.594   4.340   4.085 -0.3236 -0.1411  0.0036
11699TIP3   OH256511   2.544   6.078  14.062 -0.0260 -0.6184 -0.0298
11699TIP3    H156512   2.608   6.061  14.131 -0.1115 -0.6121  0.0510
11699TIP3    H256513   2.480   6.007  14.071 -0.1332 -0.5169  0.0115
11700TIP3   OH256514   1.694   1.463  15.523  0.2342 -0.0323  0.2665
11700TIP3    H156515   1.739   1.544  15.549  0.4285 -0.1981  0.4443
11700TIP3    H256516   1.731   1.442  15.437 -2.4810  2.1091 -1.5343
11701TIP3   OH256517   5.164   6.023  17.144  0.2144  0.2071 -0.3689
11701TIP3    H156518   5.237   6.034  17.082  0.4149 -0.4694 -0.2523
11701TIP3    H256519   5.186   6.081  17.217  0.9957 -0.5223 -0.0130
11702TIP3   OH256520   4.495   4.224  13.325  0.2498 -0.0714  0.4844
11702TIP3    H156521   4.481   4.279  13.247 -2.5606  0.5206  1.3797
11702TIP3    H256522   4.503   4.286  13.397  0.9737 -0.6996  0.9535
11703TIP3   OH256523   4.156   4.208  16.492 -0.3404  0.4456 -0.3725
11703TIP3    H156524   4.219   4.153  16.538  0.2324  0.2835 -1.3184
11703TIP3    H256525   4.079   4.209  16.547 -0.2936 -1.1653 -0.2658
11704TIP3   OH256526   5.857   3.268  12.685 -0.4485 -0.1218  0.5240
11704TIP3    H156527   5.871   3.300  12.596 -3.0512 -1.1159 -0.3010
11704TIP3    H256528   5.891   3.178  12.684 -0.2656 -0.0537  0.5978
11705TIP3   OH256529   6.571   1.187  16.885  0.1462  0.1038 -0.3064
11705TIP3    H156530   6.634   1.136  16.835  0.3729  0.7674 -0.7090
11705TIP3    H256531   6.624   1.252  16.932  0.2432 -2.3428  3.1087
11706TIP3   OH256532   1.743   5.616  12.760  0.0703 -0.4581  0.0404
11706TIP3    H156533   1.707   5.661  12.837 -1.0121 -0.7181 -0.3030
11706TIP3    H256534   1.687   5.539  12.750  1.5467 -1.5715  0.2797
11707TIP3   OH256535   5.599   2.067   4.485  0.2582  0.3013  0.0141
11707TIP3    H156536   5.550   2.037   4.561  0.4947 -0.2891 -0.0688
11707TIP3    H256537   5.570   2.158   4.473  0.3399  0.4483  0.8964
11708TIP3   OH256538   3.869   1.522  14.650  0.3988 -0.3451  0.7336
11708TIP3    H156539   3.932   1.564  14.708 -0.7560  1.1617  0.9109
11708TIP3    H256540   3.907   1.435  14.632  1.2933 -0.4030  2.8326
11709TIP3   OH256541   1.957   6.208  10.720  0.0429  0.1553 -0.0927
11709TIP3    H156542   1.986   6.276  10.659  0.0689 -0.9079 -1.2925
11709TIP3    H256543   2.038   6.171  10.755  0.0836 -0.8184 -1.2013
11710TIP3   OH256544   3.014   4.688   2.636  0.3374 -0.2850 -0.5610
11710TIP3    H156545   3.017   4.779   2.665 -0.8371 -0.7311  1.0407
11710TIP3    H256546   2.942   4.685   2.574  0.2836 -0.1427 -0.5057
11711TIP3   OH256547   6.548   5.994   1.095  0.1555  0.0239 -0.0377
11711TIP3    H156548   6.512   5.923   1.042 -0.6487 -0.5935  1.3148
11711TIP3    H256549   6.590   6.052   1.032  1.3544 -1.9485 -1.1039
11712TIP3   OH256550   0.865   1.680   1.826  0.1188  0.3351 -0.4156
11712TIP3    H156551   0.849   1.750   1.889  0.4738 -0.1386  0.1996
11712TIP3    H256552   0.922   1.720   1.760  1.8370  0.1367  0.8888
11713TIP3   OH256553   0.438   3.864   1.225  0.0296  0.0295 -0.0308
11713TIP3    H156554   0.455   3.887   1.316 -1.2360 -1.8164  0.6955
11713TIP3    H256555   0.366   3.802   1.229  0.0942 -0.2292 -2.2844
11714TIP3   OH256556   2.449   1.386   0.973  0.0614  0.3340  0.1126
11714TIP3    H156557   2.363   1.421   0.993  0.1779 -0.1873  1.5943
11714TIP3    H256558   2.448   1.370   0.878 -2.2168 -1.7178  0.4452
11715TIP3   OH256559   4.377   5.957  11.160  0.8709 -0.0467 -0.5654
11715TIP3    H156560   4.427   6.033  11.188  0.8617  0.3195 -1.5478
11715TIP3    H256561   4.317   5.990  11.094 -1.1880 -0.3459  1.1124
11716TIP3   OH256562   6.553   3.021  14.077  0.2667  0.3701  0.6619
11716TIP3    H156563   6.554   3.089  14.144  1.1304  0.8059  0.2196
11716TIP3    H256564   6.640   2.982  14.080 -0.3705 -1.0356  1.2175
11717TIP3   OH256565   0.371   5.324   5.656  0.1819  0.0342 -0.3093
11717TIP3    H156566   0.374   5.347   5.563  0.8182  1.3207  0.0097
11717TIP3    H256567   0.438   5.256   5.667 -0.3703 -0.6052 -0.9185
11718TIP3   OH256568   6.027   4.007   3.785  0.6781 -0.5952  0.1748
11718TIP3    H156569   5.996   4.006   3.695  1.4703 -1.1949 -0.1024
11718TIP3    H256570   6.071   4.092   3.795 -1.6022  0.5488  0.7793
11719TIP3   OH256571   6.201   1.020   3.444 -0.0153 -0.1763  0.3118
11719TIP3    H156572   6.285   1.010   3.488  0.4453  0.3127 -0.4539
11719TIP3    H256573   6.152   0.942   3.468  0.2217  0.0854  1.7109
11720TIP3   OH256574   0.643   0.505  13.950  0.0619 -0.2860 -0.0313
11720TIP3    H156575   0.596   0.567  14.005  0.1076 -0.1520 -0.1462
11720TIP3    H256576   0.589   0.496  13.872  0.3857  0.1106 -0.3020
11721TIP3   OH256577   2.752   2.755   0.754  0.1003  0.6336 -0.1343
11721TIP3    H156578   2.660   2.775   0.771  0.2030  1.4497 -0.5064
11721TIP3    H256579   2.792   2.746   0.841 -0.4527 -0.2949  0.0238
11722TIP3   OH256580   6.248   1.874   1.476  0.1909 -0.3132  0.0009
11722TIP3    H156581   6.203   1.928   1.412  0.3722 -0.3886 -0.1890
11722TIP3    H256582   6.328   1.847   1.433 -0.9991 -2.7137 -0.8098
11723TIP3   OH256583   0.909   0.895   1.039 -0.5461 -1.0281 -0.2723
11723TIP3    H156584   0.944   0.878   0.952 -0.1519  1.1393 -0.5591
11723TIP3    H256585   0.816   0.877   1.031 -0.7181  0.2992 -1.4770
11724TIP3   OH256586   3.223   6.290   4.338 -0.4698  0.3536 -0.4539
11724TIP3    H156587   3.166   6.226   4.380 -0.7149 -0.2190 -1.6415
11724TIP3    H256588   3.256   6.246   4.260  2.2769  0.3740  0.6360
11725TIP3   OH256589   1.462   5.698   5.453 -0.1049  0.0478 -0.9388
11725TIP3    H156590   1.398   5.751   5.500  0.8350  1.0387 -0.7738
11725TIP3    H256591   1.420   5.680   5.368 -1.3961 -0.9332 -0.1276
11726TIP3   OH256592   4.329   2.895   2.738 -0.0271  0.0719  0.3082
11726TIP3    H156593   4.418   2.860   2.746  0.4024  1.4676  2.0481
11726TIP3    H256594   4.290   2.881   2.825 -1.9397 -1.6053 -0.7788
11727TIP3   OH256595   3.691   1.969   3.786 -0.4081  0.7114 -0.2825
11727TIP3    H156596   3.682   2.009   3.700  1.6869 -0.7308 -1.2005
11727TIP3    H256597   3.671   1.877   3.773 -1.2241  0.6903  1.0154
11728TIP3   OH256598   1.260   5.714  13.914 -0.0123  0.0043 -0.3195
11728TIP3    H156599   1.204   5.723  13.837 -0.3440  0.3870 -0.0371
11728TIP3    H256600   1.236   5.789  13.970  1.1235  0.4499 -0.4189
11729TIP3   OH256601   0.540   2.835  15.396  0.2878 -0.1104  0.1269
11729TIP3    H156602   0.502   2.916  15.430  0.7154 -0.8054  2.3672
11729TIP3    H256603   0.543   2.848  15.302 -1.0340  1.8811  0.3185
11730TIP3   OH256604   1.709   4.845  14.651  0.5609  0.4460 -0.1254
11730TIP3    H156605   1.686   4.753  14.642 -2.8947  1.3142 -0.6134
11730TIP3    H256606   1.755   4.866  14.569  0.9877 -0.6951 -0.1878
11731TIP3   OH256607   0.014   5.067   4.682  0.1688 -0.5224 -0.0329
11731TIP3    H156608   0.027   5.149   4.634  1.7221  0.1820  1.5402
11731TIP3    H256609  -0.079   5.067   4.705  0.2739  1.0831  0.4474
11732TIP3   OH256610   1.581   5.430   1.805  0.2604 -0.5888  0.1719
11732TIP3    H156611   1.527   5.501   1.772  2.2315  1.9310  2.0913
11732TIP3    H256612   1.619   5.389   1.727  1.4367  2.4116 -0.8845
11733TIP3   OH256613   5.024   4.527   2.832  0.4269 -0.1863  0.2295
11733TIP3    H156614   4.939   4.552   2.867  1.2890  1.1454  1.3789
11733TIP3    H256615   5.053   4.455   2.888  0.6527  0.2427  0.6650
11734TIP3   OH256616   3.945   2.739   1.152  0.4351 -0.8805 -0.2252
11734TIP3    H156617   3.892   2.695   1.085 -1.7063  0.0640  0.8158
11734TIP3    H256618   3.970   2.669   1.212  0.3545 -1.3319 -0.7111
11735TIP3   OH256619   0.306   1.158  13.516  0.2098  0.5652 -0.0597
11735TIP3    H156620   0.398   1.178  13.500  0.5090 -0.6570  0.1078
11735TIP3    H256621   0.291   1.185  13.607  0.1011  1.7782 -0.4193
11736TIP3   OH256622   5.833   1.983  13.904  0.0660  0.3878 -0.0400
11736TIP3    H156623   5.770   1.911  13.896 -1.0698  1.4651 -1.1437
11736TIP3    H256624   5.780   2.057  13.933  1.1685  0.8525  0.7622
11737TIP3   OH256625   0.670   5.851  11.734 -0.3625  0.5058 -0.2156
11737TIP3    H156626   0.579   5.851  11.702  0.0246  0.6838 -1.3675
11737TIP3    H256627   0.688   5.943  11.753 -0.0794  0.6276 -1.0386
11738TIP3   OH256628   4.337   4.443   4.797 -0.0337  0.0644  0.0589
11738TIP3    H156629   4.429   4.457   4.777 -0.4488  0.3341 -1.7287
11738TIP3    H256630   4.332   4.351   4.825  1.0230  0.5067  1.7814
11739TIP3   OH256631   4.869   1.311  15.857  0.1976  0.5930 -0.2117
11739TIP3    H156632   4.862   1.340  15.948  2.3018  2.0398 -0.4799
11739TIP3    H256633   4.952   1.264  15.854 -0.5902 -0.7762 -1.0609
11740TIP3   OH256634   5.162   4.304   4.110  0.1270  0.2104 -0.1503
11740TIP3    H156635   5.184   4.274   4.021  0.1750 -0.2338  0.0133
11740TIP3    H256636   5.079   4.261   4.130 -0.2686  0.9063 -0.2741
11741TIP3   OH256637   3.738   4.522  12.958  0.1708 -0.1215 -0.6860
11741TIP3    H156638   3.813   4.464  12.945  0.2026 -0.5108  1.1571
11741TIP3    H256639   3.673   4.492  12.894 -0.7145 -3.7227  1.7478
11742TIP3   OH256640   2.615   4.339  11.103  0.3336 -0.2535  0.3477
11742TIP3    H156641   2.614   4.276  11.030 -2.4772 -0.0611  0.1585
11742TIP3    H256642   2.619   4.285  11.181 -1.1976 -0.6968  0.1526
11743TIP3   OH256643   5.868   3.396   0.728  0.4551 -0.1776  0.2934
11743TIP3    H156644   5.903   3.386   0.640  0.6212 -1.8589  0.5391
11743TIP3    H256645   5.811   3.473   0.723  2.4878  1.3003 -0.6299
11744TIP3   OH256646   1.857   5.497  14.600  0.9045 -0.0860  0.1623
11744TIP3    H156647   1.815   5.581  14.619 -1.5323 -1.2562  0.1732
11744TIP3    H256648   1.856   5.491  14.505  0.1291 -0.5501  0.1953
11745TIP3   OH256649   6.409   4.292  15.711 -0.3166  0.7351  0.4452
11745TIP3    H156650   6.434   4.380  15.738  1.6914  0.4901 -0.5057
11745TIP3    H256651   6.413   4.294  15.616 -1.3438 -0.0755  0.3822
11746TIP3   OH256652   2.384   0.218  16.721  0.4343  0.7114 -0.0861
11746TIP3    H156653   2.307   0.170  16.753  1.6928 -0.7423  0.8724
11746TIP3    H256654   2.385   0.299  16.772 -1.5522  1.6436 -1.4991
11747TIP3   OH256655   1.456   0.468  14.179  0.2273  0.1580  0.3601
11747TIP3    H156656   1.397   0.500  14.248  1.2483 -1.5732  2.0713
11747TIP3    H256657   1.475   0.545  14.126 -1.4725  1.2875  1.3547
11748TIP3   OH256658   2.918   6.132  15.967 -0.0912  0.2009  0.7380
11748TIP3    H156659   3.002   6.110  16.007 -0.5180 -0.2760  1.3779
11748TIP3    H256660   2.919   6.086  15.883 -0.1612 -0.6904  1.2198
11749TIP3   OH256661   6.632   0.343   4.708  0.4889  0.4701  0.0252
11749TIP3    H156662   6.718   0.304   4.722  0.3449 -0.3416 -1.3258
11749TIP3    H256663   6.570   0.271   4.721  0.0937  0.7470 -0.3181
11750TIP3   OH256664   2.358   4.714  11.268  0.3377 -0.6715 -0.2961
11750TIP3    H156665   2.396   4.802  11.267  0.4038 -0.7048 -0.7502
11750TIP3    H256666   2.347   4.692  11.175  0.9653 -1.4196 -0.1906
11751TIP3   OH256667   3.698   4.820   3.650  0.0175 -0.1122  0.2992
11751TIP3    H156668   3.627   4.768   3.612 -0.4896  1.0100 -0.3372
11751TIP3    H256669   3.663   4.852   3.733  0.2835 -0.6750  0.6308
11752TIP3   OH256670   2.522   6.252   0.518  0.0674 -0.3938 -0.0383
11752TIP3    H156671   2.566   6.312   0.578  0.6090  0.7406 -1.5576
11752TIP3    H256672   2.449   6.303   0.483 -0.8279 -1.3721  0.3728
11753TIP3   OH256673   4.477   2.671   0.821  0.2275 -0.5397  0.3787
11753TIP3    H156674   4.391   2.671   0.779 -0.0464  0.7092  0.9033
11753TIP3    H256675   4.470   2.738   0.889  2.0079  0.4534 -0.3987
11754TIP3   OH256676   4.623   0.823   5.691  0.3188 -0.1865  0.4038
11754TIP3    H156677   4.713   0.796   5.707  1.0321  1.1452 -1.2048
11754TIP3    H256678   4.581   0.820   5.777  2.6235  1.8564  1.6286
11755TIP3   OH256679   5.686   2.229   5.795  0.2808  0.0517  0.0562
11755TIP3    H156680   5.626   2.168   5.839  0.8516 -1.4599 -1.2181
11755TIP3    H256681   5.773   2.201   5.822  0.4893  1.2761  0.6759
11756TIP3   OH256682   1.086   5.420   3.826 -0.1632 -0.6352  0.5262
11756TIP3    H156683   1.089   5.338   3.777 -0.0391 -0.3501  0.0510
11756TIP3    H256684   1.097   5.394   3.917  0.0296 -1.1342  0.3632
11757TIP3   OH256685   4.454   6.395   6.178  0.0592  0.5501  0.4812
11757TIP3    H156686   4.413   6.312   6.157  0.5912  0.8406 -1.8029
11757TIP3    H256687   4.381   6.457   6.181 -0.0568  0.4558 -0.2939
11758TIP3   OH256688   1.949   0.287   2.919  0.8241  0.5270  0.4122
11758TIP3    H156689   2.031   0.321   2.884  1.8354 -0.1826  2.0210
11758TIP3    H256690   1.956   0.192   2.910  0.7390  0.3892  1.7423
11759TIP3   OH256691   0.256   6.382   0.412  0.5912  0.4608  0.2097
11759TIP3    H156692   0.238   6.464   0.457 -0.3197  0.5197 -0.2607
11759TIP3    H256693   0.350   6.370   0.421  0.2891 -0.0964  3.1454
11760TIP3   OH256694   5.986   3.263  15.110 -0.0119  0.1110 -0.1478
11760TIP3    H156695   6.035   3.215  15.177 -0.1905 -1.1370 -0.9070
11760TIP3    H256696   5.985   3.354  15.142  0.2078 -0.3989  1.3633
11761TIP3   OH256697   5.070   6.292  16.727 -0.5214 -0.1757  0.2230
11761TIP3    H156698   5.156   6.308  16.689 -1.2022  0.4825 -1.0756
11761TIP3    H256699   5.088   6.264  16.816  0.9666  1.7542  0.5516
11762TIP3   OH256700   6.088   0.804   3.596  0.9427 -0.1095 -0.0004
11762TIP3    H156701   6.142   0.743   3.545  0.5431 -0.2208 -0.2891
11762TIP3    H256702   6.130   0.806   3.682  0.3584 -1.6193  0.3496
11763TIP3   OH256703   2.714   5.495  11.048  0.4138  0.1990 -0.1796
11763TIP3    H156704   2.653   5.498  11.121  2.0879 -0.5705  1.3079
11763TIP3    H256705   2.697   5.575  10.998 -2.5082 -0.5236 -0.4492
11764TIP3   OH256706   5.347   6.499   2.662 -0.8885 -0.2665 -0.0414
11764TIP3    H156707   5.406   6.523   2.590 -0.1952 -3.7808 -0.7188
11764TIP3    H256708   5.291   6.576   2.673  2.7841  2.6279 -0.3810
11765TIP3   OH256709   3.244   3.662   6.060 -0.2591  0.2880 -0.0582
11765TIP3    H156710   3.167   3.696   6.105  0.2971  1.8047 -0.2206
11765TIP3    H256711   3.262   3.577   6.101 -1.7402  0.1403  0.2759
11766TIP3   OH256712   5.697   0.603   1.964 -0.0730 -0.2501  0.2060
11766TIP3    H156713   5.652   0.520   1.946  2.5321 -1.4216 -1.1716
11766TIP3    H256714   5.690   0.614   2.058 -0.3286 -2.1282  0.4317
11767TIP3   OH256715   3.932   4.727   2.848  0.2250 -0.4131  0.2174
11767TIP3    H156716   3.867   4.656   2.844  0.8484 -1.0110  0.4881
11767TIP3    H256717   3.970   4.718   2.935  0.3264  0.2449  0.2380
11768TIP3   OH256718   2.630   3.514  17.148 -0.1374 -0.4171 -0.2608
11768TIP3    H156719   2.706   3.502  17.205 -0.3736 -1.6859 -0.2124
11768TIP3    H256720   2.664   3.500  17.060 -0.6895 -2.8276 -0.1088
11769TIP3   OH256721   1.167   2.539   5.846 -0.3809 -0.0748  0.3070
11769TIP3    H156722   1.176   2.623   5.802 -1.3959 -1.2393 -2.2244
11769TIP3    H256723   1.250   2.494   5.831  0.3549  0.6490  2.0991
11770TIP3   OH256724   2.118   0.516   3.428  0.3688 -0.2323  0.0983
11770TIP3    H156725   2.031   0.518   3.388  1.0888  2.2975 -1.4765
11770TIP3    H256726   2.111   0.576   3.502  0.7640 -0.0081 -0.0449
11771TIP3   OH256727   6.473   1.932  16.822  0.1140  0.4479  0.0679
11771TIP3    H156728   6.420   1.974  16.754 -0.0284  0.8295  0.4127
11771TIP3    H256729   6.520   2.004  16.864 -1.3770  0.4731  1.7562
11772TIP3   OH256730   1.417   5.998   4.335 -0.7568 -0.3604 -0.0076
11772TIP3    H156731   1.463   5.914   4.331 -0.3877 -0.1429 -0.3667
11772TIP3    H256732   1.444   6.035   4.419  0.5181  0.2103 -0.6510
11773TIP3   OH256733   5.403   6.678   4.736 -0.3828  0.0459  0.2954
11773TIP3    H156734   5.434   6.769   4.742 -0.9908  0.3598 -1.2430
11773TIP3    H256735   5.308   6.684   4.747 -0.3544 -0.4684  0.8075
11774TIP3   OH256736   0.801   1.448   4.155 -0.6064 -0.8270  0.3963
11774TIP3    H156737   0.830   1.366   4.115 -0.1358 -0.8525  0.7850
11774TIP3    H256738   0.849   1.516   4.108  1.0265 -0.9410  1.8439
11775TIP3   OH256739   1.139   1.803  14.746 -0.2899  0.2933  0.3494
11775TIP3    H156740   1.197   1.875  14.767 -0.3561  0.2645  0.6250
11775TIP3    H256741   1.117   1.763  14.830 -0.5611  0.1903  0.2317
11776TIP3   OH256742   6.517   4.249  16.537  0.1501 -0.4815  0.1304
11776TIP3    H156743   6.444   4.311  16.541  0.3734 -0.3155  3.1730
11776TIP3    H256744   6.581   4.285  16.598  0.4587 -3.4584  1.6449
11777TIP3   OH256745   2.205   2.576   0.783 -0.3680  0.6421 -0.2858
11777TIP3    H156746   2.192   2.626   0.864 -0.5765 -1.2263  0.8552
11777TIP3    H256747   2.118   2.550   0.756  0.0664 -4.2036  2.4555
11778TIP3   OH256748   5.066   3.078   4.152  0.8275  0.2189 -0.1390
11778TIP3    H156749   5.040   3.112   4.066 -1.5043  0.0208  0.4605
11778TIP3    H256750   5.002   3.010   4.171  0.2140  1.4888  2.5642
11779TIP3   OH256751   6.568   1.254  15.778 -0.2557 -0.1152 -0.1929
11779TIP3    H156752   6.542   1.230  15.689  0.0555 -0.0061 -0.3143
11779TIP3    H256753   6.550   1.347  15.785 -1.0344 -0.2851  0.1274
11780TIP3   OH256754   6.752   2.695   0.214 -0.4800  0.2627  0.0962
11780TIP3    H156755   6.659   2.698   0.195 -0.2832  0.4621 -0.8561
11780TIP3    H256756   6.761   2.736   0.300 -1.6062 -2.3113  1.4859
11781TIP3   OH256757   1.859   6.213   0.137 -0.3366  0.2235  0.2040
11781TIP3    H156758   1.838   6.119   0.139 -0.3942  0.2086 -0.6953
11781TIP3    H256759   1.779   6.254   0.104 -0.4984  0.6520  1.1071
11782TIP3   OH256760   0.223   5.235  12.441  1.0801  0.0136  0.2399
11782TIP3    H156761   0.283   5.241  12.366 -0.1977 -1.4272 -0.9087
11782TIP3    H256762   0.143   5.279  12.411  0.7682 -0.0582  0.9741
11783TIP3   OH256763   5.928   3.092  11.055  0.7091 -0.3297  0.4584
11783TIP3    H156764   5.875   3.015  11.035 -1.4707  0.7304  1.9523
11783TIP3    H256765   5.975   3.111  10.973  0.0509 -2.2611 -0.3994
11784TIP3   OH256766   6.333   1.843  15.588  0.4538  0.4249 -0.0090
11784TIP3    H156767   6.351   1.924  15.540 -0.5746 -0.0307 -1.1993
11784TIP3    H256768   6.416   1.794  15.584  0.1770  0.0621 -2.0067
11785TIP3   OH256769   0.273   2.504  14.020 -0.1224 -0.2980  0.1964
11785TIP3    H156770   0.298   2.577  14.076 -0.3884 -1.6158  2.0803
11785TIP3    H256771   0.270   2.428  14.079 -0.2855 -1.7471 -1.6190
11786TIP3   OH256772   3.931   0.568  11.521 -0.3686 -0.4081 -0.3012
11786TIP3    H156773   4.022   0.596  11.526 -0.6930  0.9108 -1.1592
11786TIP3    H256774   3.917   0.513  11.597  1.2639 -0.9705 -0.3997
11787TIP3   OH256775   3.377   0.048  15.594 -0.4790  0.2646  0.1781
11787TIP3    H156776   3.382   0.019  15.686  0.5985 -1.1420 -0.3036
11787TIP3    H256777   3.342  -0.028  15.547 -3.2158  1.7560 -0.2569
11788TIP3   OH256778   5.293   4.009   2.194  0.5879  0.1646  0.1740
11788TIP3    H156779   5.323   4.096   2.170  0.5586  0.3830  0.9315
11788TIP3    H256780   5.235   4.023   2.269  0.5644 -0.5035  0.2823
11789TIP3   OH256781   1.501   5.569   5.017  0.3506 -0.6411 -0.2282
11789TIP3    H156782   1.513   5.520   4.936 -0.9975  0.7121 -1.2891
11789TIP3    H256783   1.489   5.502   5.085  0.1127 -1.7816 -1.3810
11790TIP3   OH256784   4.097   1.479   6.661  0.1202 -0.1442 -0.0552
11790TIP3    H156785   4.073   1.402   6.609 -1.4679  0.0285  0.3939
11790TIP3    H256786   4.154   1.530   6.603 -1.5212 -0.0228 -1.6280
11791TIP3   OH256787   4.138   2.891  13.405 -0.1546 -0.3198 -0.1931
11791TIP3    H156788   4.216   2.945  13.418 -0.3864  0.0034 -0.1450
11791TIP3    H256789   4.064   2.951  13.414 -0.4619 -0.8449  0.9068
11792TIP3   OH256790   4.611   1.894  17.032 -0.4398 -0.5712  0.6001
11792TIP3    H156791   4.540   1.912  17.094 -1.4838  0.1191 -0.7570
11792TIP3    H256792   4.689   1.930  17.073 -1.1685  0.1342  1.3787
11793TIP3   OH256793   1.171   2.560  13.541 -0.1997 -0.7959 -0.1297
11793TIP3    H156794   1.229   2.623  13.497 -2.3366  0.7838 -0.7631
11793TIP3    H256795   1.195   2.476  13.503  0.9878 -0.0416 -1.1278
11794TIP3   OH256796   5.896   1.225   5.109 -0.0786 -0.0941  0.0608
11794TIP3    H156797   5.874   1.137   5.140  0.6400 -0.3930 -0.2663
11794TIP3    H256798   5.974   1.213   5.055  1.2906  1.0250  1.7408
11795TIP3   OH256799   4.429   2.654  15.247  0.1933 -0.0113 -0.2989
11795TIP3    H156800   4.502   2.716  15.244 -0.2300  0.5671  0.8600
11795TIP3    H256801   4.351   2.709  15.253 -0.1235 -0.6350  1.7325
11796TIP3   OH256802   0.119   6.557  10.715  0.3421  0.1544  0.3642
11796TIP3    H156803   0.026   6.552  10.737 -0.1943  0.2424 -1.7314
11796TIP3    H256804   0.133   6.486  10.652  1.7302  0.0424  0.7896
11797TIP3   OH256805   4.291   0.335   5.702  0.0491 -0.0391 -0.1028
11797TIP3    H156806   4.347   0.411   5.720  0.5595  0.0352 -1.9028
11797TIP3    H256807   4.243   0.359   5.622  1.2377 -2.1460 -1.4912
11798TIP3   OH256808   0.357   0.025   4.609  0.2647 -0.0097  0.0179
11798TIP3    H156809   0.293   0.053   4.543  0.6953  0.5737 -0.1623
11798TIP3    H256810   0.378  -0.065   4.586  0.9502  0.4255 -1.0702
11799TIP3   OH256811   4.570   0.782  16.502  0.6823 -0.1037  0.6498
11799TIP3    H156812   4.641   0.825  16.549  1.9639  1.0929 -2.2826
11799TIP3    H256813   4.516   0.853  16.469 -0.8362 -0.9628  1.2434
11800TIP3   OH256814   1.870   4.845  11.875 -0.1744 -0.7132 -0.2167
11800TIP3    H156815   1.797   4.837  11.815 -2.4668  0.4167  2.3123
11800TIP3    H256816   1.943   4.800  11.832 -1.9138 -0.5340 -3.4581
11801TIP3   OH256817   3.902   1.245  13.284  0.1963  0.4205  0.1617
11801TIP3    H156818   3.924   1.332  13.316  0.3798  0.0946  0.9385
11801TIP3    H256819   3.971   1.188  13.319  0.5332  0.0932 -1.0084
11802TIP3   OH256820   2.036   6.507  11.305 -0.6983 -0.2145  0.7253
11802TIP3    H156821   2.051   6.600  11.286 -0.4114 -0.6895 -1.5205
11802TIP3    H256822   1.941   6.498  11.306 -0.7567 -0.4707 -2.2991
11803TIP3   OH256823   6.096   6.131   3.278  0.3339  0.2306  0.2874
11803TIP3    H156824   6.136   6.080   3.207 -0.3461  0.4565 -0.2627
11803TIP3    H256825   6.153   6.207   3.288  0.3543  0.2696 -0.1141
11804TIP3   OH256826   2.912   5.715   1.572 -0.0631 -0.1484 -0.3358
11804TIP3    H156827   2.859   5.645   1.611 -0.0156  0.7310  1.3312
11804TIP3    H256828   2.965   5.748   1.644  0.5321  1.0485 -1.3119
11805TIP3   OH256829   2.679   2.716  16.851 -0.5358 -0.0796 -0.3089
11805TIP3    H156830   2.592   2.674  16.850 -0.7390  0.3364 -0.1180
11805TIP3    H256831   2.669   2.789  16.911  0.3336 -0.8637  0.8068
11806TIP3   OH256832   4.807   2.800   2.391 -0.4235 -0.3220 -0.5238
11806TIP3    H156833   4.782   2.720   2.343 -0.4390  0.2342 -1.4609
11806TIP3    H256834   4.867   2.769   2.459 -0.4553 -1.1399 -0.8594
11807TIP3   OH256835   4.377   2.731  12.838 -0.3954 -0.6440  0.1404
11807TIP3    H156836   4.295   2.699  12.799  0.3393 -1.0916 -1.0821
11807TIP3    H256837   4.416   2.785  12.769 -0.4026  0.8389  1.2742
11808TIP3   OH256838   5.542   1.318   5.388  0.0581 -0.2857 -0.3913
11808TIP3    H156839   5.473   1.385   5.388  0.5219  0.1876 -0.5061
11808TIP3    H256840   5.532   1.275   5.473 -1.1796 -1.0467 -0.8977
11809TIP3   OH256841   3.739   6.376   4.979  0.7964 -0.5526 -0.5411
11809TIP3    H156842   3.754   6.426   5.059  0.5019 -2.0424  0.4744
11809TIP3    H256843   3.644   6.363   4.977  0.5529  1.2937 -2.2706
11810TIP3   OH256844   1.278   0.301  15.626 -0.4847  0.2342  0.1967
11810TIP3    H156845   1.283   0.349  15.544 -1.1195  0.6310  0.3859
11810TIP3    H256846   1.191   0.321  15.661  0.2822  1.2025  1.6368
11811TIP3   OH256847   4.459   6.547  13.430  0.6987  0.1292  0.1647
11811TIP3    H156848   4.486   6.457  13.447 -0.9715 -0.1525  1.4316
11811TIP3    H256849   4.367   6.541  13.406  0.3736  1.5439  0.9576
11812TIP3   OH256850   4.791   0.974  14.131  0.4836 -0.3385 -0.5750
11812TIP3    H156851   4.780   0.890  14.175  1.8102 -0.1941  0.0459
11812TIP3    H256852   4.767   0.956  14.040 -1.1074 -0.9166 -0.0612
11813TIP3   OH256853   3.844   3.343  12.569  0.5407  0.1805 -0.2797
11813TIP3    H156854   3.836   3.252  12.541  0.1557  0.1617 -0.1125
11813TIP3    H256855   3.869   3.390  12.490  0.1284  0.0224 -0.5042
11814TIP3   OH256856   4.080   3.461  14.365  0.4262  0.0246 -0.4411
11814TIP3    H156857   4.014   3.455  14.296  1.0591  1.7561 -1.2375
11814TIP3    H256858   4.060   3.542  14.410  1.8629  0.4543 -0.5481
11815TIP3   OH256859   6.727   5.381  12.911 -0.0153  0.2872  0.3201
11815TIP3    H156860   6.751   5.295  12.877  0.3746  0.5389 -0.0402
11815TIP3    H256861   6.806   5.413  12.955 -0.5149 -0.0393  1.4933
11816TIP3   OH256862   2.784   4.663   0.306  0.5941 -0.2148 -0.4090
11816TIP3    H156863   2.767   4.655   0.400 -1.5562 -0.5553 -0.7949
11816TIP3    H256864   2.798   4.573   0.276 -0.2814 -0.2683 -0.6751
11817TIP3   OH256865   2.159   1.356  14.806  0.0512 -0.3178 -0.7576
11817TIP3    H156866   2.193   1.423  14.866 -0.1676 -1.7607  1.0062
11817TIP3    H256867   2.080   1.323  14.849 -0.1198 -1.3681 -1.8623
11818TIP3   OH256868   5.419   1.220  11.402 -0.2352 -0.4156 -0.5778
11818TIP3    H156869   5.366   1.202  11.325 -0.0386  2.0326 -1.3420
11818TIP3    H256870   5.360   1.266  11.462 -0.5832 -2.9144  1.0514
11819TIP3   OH256871   1.112   5.143   3.697  0.0485  0.0745  0.0539
11819TIP3    H156872   1.092   5.053   3.673 -2.1573  0.2661  1.0881
11819TIP3    H256873   1.140   5.184   3.615  1.1657 -1.5405 -0.4132
11820TIP3   OH256874   0.632   4.971  15.772 -0.4228 -0.0218  0.3456
11820TIP3    H156875   0.562   4.958  15.835 -1.4270  0.1848 -0.7071
11820TIP3    H256876   0.689   5.037  15.812  0.3485 -1.7728  2.1589
11821TIP3   OH256877   3.854   3.556   1.449 -0.3788 -0.2009 -0.1825
11821TIP3    H156878   3.917   3.541   1.379 -0.2374 -0.1295 -0.0690
11821TIP3    H256879   3.907   3.580   1.525 -0.5583  0.1237 -0.1601
11822TIP3   OH256880   0.029   4.180   2.011  0.4605 -0.2933 -0.4061
11822TIP3    H156881   0.002   4.255   2.064 -0.7860 -0.1504 -1.2419
11822TIP3    H256882   0.098   4.215   1.953  3.9973 -1.1123  3.0697
11823TIP3   OH256883   0.106   6.456   2.717  0.0352 -0.2335  0.9777
11823TIP3    H156884   0.022   6.476   2.675  0.0111  0.7436  1.4740
11823TIP3    H256885   0.126   6.366   2.690 -0.1188  0.2823 -0.8790
11824TIP3   OH256886   1.590   3.184   4.517 -0.2566 -0.0176 -0.2121
11824TIP3    H156887   1.570   3.275   4.540  1.7105  0.3094  0.2168
11824TIP3    H256888   1.622   3.145   4.598 -0.4211 -0.9082 -0.5689
11825TIP3   OH256889   1.303   5.995   2.520  0.2531  0.3273  0.4475
11825TIP3    H156890   1.209   6.015   2.514 -0.1472 -1.0985  1.5093
11825TIP3    H256891   1.339   6.063   2.576 -0.2102  0.6873  0.3092
11826TIP3   OH256892   1.936   2.053  11.464  0.4954 -0.0623 -0.2554
11826TIP3    H156893   1.873   2.114  11.504  0.2780 -0.6261  0.2627
11826TIP3    H256894   2.006   2.110  11.431 -0.9503  0.7234 -2.1093
11827TIP3   OH256895   3.776   0.751  17.106  0.0515  0.1737 -0.2442
11827TIP3    H156896   3.744   0.663  17.125 -0.4350  0.1244 -1.2692
11827TIP3    H256897   3.719   0.783  17.036 -0.0642  1.4778  0.4292
11828TIP3   OH256898   2.797   4.709   0.579 -0.3012  0.3868 -0.0106
11828TIP3    H156899   2.721   4.762   0.557  0.9133  1.8246 -0.8779
11828TIP3    H256900   2.866   4.773   0.598  0.7060 -0.8834  0.6857
11829TIP3   OH256901   5.678   1.362   0.204  0.2309  0.3803 -0.3639
11829TIP3    H156902   5.620   1.404   0.267 -1.4316 -0.4925 -1.2633
11829TIP3    H256903   5.646   1.272   0.199  2.4170 -0.4337 -0.0171
11830TIP3   OH256904   1.105   1.439   5.219 -0.2506  0.5461 -0.7318
11830TIP3    H156905   1.093   1.443   5.314  0.4159  2.4597 -0.7136
11830TIP3    H256906   1.104   1.530   5.191 -0.7896 -0.0180 -2.6185
11831TIP3   OH256907   2.752   4.188   0.789 -0.1439 -0.3012  0.0903
11831TIP3    H156908   2.706   4.142   0.719  0.3564 -1.7787  0.7158
11831TIP3    H256909   2.842   4.197   0.756 -0.3471  0.6230 -0.2142
11832TIP3   OH256910   4.503   2.345  11.656  0.0272  0.6619  0.0302
11832TIP3    H156911   4.531   2.422  11.606 -0.5548  0.7142 -0.2282
11832TIP3    H256912   4.569   2.279  11.637  0.7891  1.2325  0.6227
11833TIP3   OH256913   4.591   1.808  15.028 -0.0736  0.6341  0.2298
11833TIP3    H156914   4.616   1.742  15.092  0.1412  0.5019  0.0089
11833TIP3    H256915   4.672   1.828  14.981 -0.4726 -0.1513 -0.8130
11834TIP3   OH256916   3.847   3.752  16.081  0.3066 -0.3034 -0.0588
11834TIP3    H156917   3.815   3.775  15.993  0.0595 -0.8975 -0.1226
11834TIP3    H256918   3.934   3.714  16.065 -0.3562 -1.7801 -0.1759
11835TIP3   OH256919   5.431   4.511  11.553 -0.2181  0.4823 -0.4763
11835TIP3    H156920   5.510   4.548  11.591 -0.3028  2.7773 -2.4119
11835TIP3    H256921   5.443   4.518  11.458 -2.0057 -0.7363 -0.8360
11836TIP3   OH256922   2.783   2.500  14.006 -0.8029 -0.1147 -0.5608
11836TIP3    H156923   2.775   2.595  14.018  0.4106  0.0480 -0.9625
11836TIP3    H256924   2.825   2.490  13.921  0.2964 -0.9672  0.0647
11837TIP3   OH256925   6.601   4.915   2.112  0.4474 -0.0435  0.0088
11837TIP3    H156926   6.673   4.971   2.083 -0.0931  0.9116  0.4810
11837TIP3    H256927   6.534   4.926   2.045  0.7399 -0.9277 -0.4279
11838TIP3   OH256928   0.755   1.982  14.536 -0.7188 -0.1365 -0.0874
11838TIP3    H156929   0.701   2.032  14.597 -0.9135 -2.1581  1.4478
11838TIP3    H256930   0.839   1.971  14.581 -0.3331 -0.2938 -0.8374
11839TIP3   OH256931   0.354   1.238   1.203 -0.2296 -0.2928 -0.4728
11839TIP3    H156932   0.312   1.277   1.126 -0.3800  1.2817  0.3951
11839TIP3    H256933   0.439   1.207   1.170 -1.0162 -1.2487 -1.6624
11840TIP3   OH256934   6.554   0.715   2.031 -0.0551  0.5022 -0.3323
11840TIP3    H156935   6.520   0.689   1.945  2.6383  1.1561 -1.6499
11840TIP3    H256936   6.526   0.806   2.041 -0.2668  0.4647 -0.5667
11841TIP3   OH256937   0.570   1.608  15.080 -0.2636  0.0908  0.2031
11841TIP3    H156938   0.652   1.657  15.080  0.0174 -0.3264  2.8607
11841TIP3    H256939   0.507   1.668  15.120 -1.4264  0.5952 -2.2570
11842TIP3   OH256940   6.681   5.084  11.131 -0.1366  0.4684 -0.0822
11842TIP3    H156941   6.663   4.992  11.110 -0.3440  0.2448  1.0324
11842TIP3    H256942   6.700   5.124  11.047 -1.3096 -0.3165 -0.7442
11843TIP3   OH256943   2.991   2.337  14.605 -0.3833 -0.4081 -0.3653
11843TIP3    H156944   3.035   2.277  14.545 -0.2634  0.2558 -0.9443
11843TIP3    H256945   3.013   2.424  14.572 -0.0227 -0.0260  0.8408
11844TIP3   OH256946   3.548   6.406   2.638 -0.0996 -0.5490 -0.1049
11844TIP3    H156947   3.595   6.442   2.564  0.2608 -1.2936 -0.2479
11844TIP3    H256948   3.609   6.415   2.712 -1.2941  2.2444  0.6109
11845TIP3   OH256949   4.157   2.549   5.075 -0.2574 -0.9770 -0.6051
11845TIP3    H156950   4.155   2.642   5.055  0.8466 -1.0274 -0.9731
11845TIP3    H256951   4.223   2.513   5.016 -1.1586 -2.1069 -0.9409
11846TIP3   OH256952   6.405   6.598   5.442  0.6190  0.1035  0.0893
11846TIP3    H156953   6.465   6.553   5.502  0.2873  0.5445  0.7570
11846TIP3    H256954   6.446   6.683   5.426  0.8892 -0.1545 -0.6049
11847TIP3   OH256955   6.397   6.428  15.577 -0.1582  0.4071  0.3313
11847TIP3    H156956   6.392   6.501  15.639  1.6477  1.5207 -0.7997
11847TIP3    H256957   6.381   6.468  15.491 -0.1203 -0.6802 -0.1902
11848TIP3   OH256958   4.513   3.515   3.215 -0.1644  0.3455 -0.3930
11848TIP3    H156959   4.491   3.427   3.184 -0.9414  0.2783  0.3234
11848TIP3    H256960   4.583   3.545   3.156  1.0199 -1.2571  0.1555
11849TIP3   OH256961   5.232   0.128   4.230  0.1653  0.1209 -0.3622
11849TIP3    H156962   5.172   0.072   4.279 -1.2895  0.3473 -1.8617
11849TIP3    H256963   5.319   0.089   4.246 -0.6991 -1.9763 -0.5308
11850TIP3   OH256964   1.193   1.169   6.520  0.3855  0.1200 -0.1842
11850TIP3    H156965   1.161   1.126   6.599  0.1834 -0.4695 -0.5895
11850TIP3    H256966   1.134   1.244   6.508  0.1712 -0.0208 -0.0079
11851TIP3   OH256967   6.780   3.480  13.645 -0.4983  0.0596 -0.5396
11851TIP3    H156968   6.750   3.435  13.566 -0.0834  0.2601 -0.8157
11851TIP3    H256969   6.788   3.572  13.618 -2.2634  0.4616  0.2803
11852TIP3   OH256970   4.200   0.819  12.462 -0.3256 -0.4492 -0.8971
11852TIP3    H156971   4.164   0.842  12.377  1.2070  2.2167 -0.8748
11852TIP3    H256972   4.188   0.897  12.516 -0.2340 -1.7012  0.9982
11853TIP3   OH256973   4.972   1.447   0.195  0.3535  0.1643 -0.3329
11853TIP3    H156974   5.008   1.491   0.117  0.9160 -0.0713 -0.2094
11853TIP3    H256975   4.889   1.409   0.165  1.2015 -1.0544 -1.1646
11854TIP3   OH256976   2.738   2.229   3.652  0.4399  0.1564 -0.3028
11854TIP3    H156977   2.752   2.305   3.708  2.2561 -1.5180  1.6365
11854TIP3    H256978   2.643   2.217   3.651  0.3822 -0.2023  3.1136
11855TIP3   OH256979   6.493   0.324  11.377  0.0761  0.1698 -0.5043
11855TIP3    H156980   6.426   0.271  11.335 -0.8406 -1.1285  2.4690
11855TIP3    H256981   6.576   0.285  11.349 -0.5700 -2.4221  1.0555
11856TIP3   OH256982   5.688   3.015  15.360 -0.5986 -0.6943 -0.1627
11856TIP3    H156983   5.641   2.935  15.335 -1.5531  0.1338 -1.0488
11856TIP3    H256984   5.669   3.077  15.290 -0.8533  0.7078  1.1076
11857TIP3   OH256985   1.369   0.363  12.707 -0.1837 -0.5275 -0.4706
11857TIP3    H156986   1.312   0.435  12.735  1.9793  0.3896  1.7334
11857TIP3    H256987   1.424   0.402  12.639  0.8930 -0.1158  0.6247
11858TIP3   OH256988   6.570   5.980   5.104 -0.2123  0.4539 -0.4887
11858TIP3    H156989   6.604   5.957   5.017  0.6813  1.3541 -0.3824
11858TIP3    H256990   6.594   5.906   5.159  0.6759  0.6111 -0.6511
11859TIP3   OH256991   2.493   0.968  12.974 -0.0268 -0.7978 -0.2240
11859TIP3    H156992   2.435   0.968  12.898  1.3402 -0.8346 -1.2803
11859TIP3    H256993   2.492   0.877  13.005  2.1767 -1.6039 -2.3673
11860TIP3   OH256994   6.218   2.053   0.534 -0.4480 -0.1498 -0.0604
11860TIP3    H156995   6.146   2.097   0.579  0.2666  1.3204 -0.3143
11860TIP3    H256996   6.205   2.074   0.442  0.8584  1.0049 -0.0065
11861TIP3   OH256997   2.753   2.802  13.921  0.0583 -0.0222 -0.0437
11861TIP3    H156998   2.799   2.778  13.841 -0.1929  0.9590 -0.4899
11861TIP3    H256999   2.713   2.887  13.901  1.5854  1.1611  1.7632
11862TIP3   OH257000   2.878   1.731   3.708 -0.0659  0.6909 -0.3971
11862TIP3    H157001   2.906   1.783   3.783  1.7152  0.8914 -1.1853
11862TIP3    H257002   2.947   1.666   3.696  0.1339  1.2142 -2.3992
11863TIP3   OH257003   0.180   6.125   5.335  0.0502  0.0434  0.6063
11863TIP3    H157004   0.117   6.171   5.279  0.2503 -1.0301 -0.5362
11863TIP3    H257005   0.133   6.048   5.366  0.2417  0.1523  1.1658
11864TIP3   OH257006   1.236   6.752   4.318 -0.2936 -0.3660 -0.3768
11864TIP3    H157007   1.300   6.765   4.388 -0.8274 -0.0375  0.0595
11864TIP3    H257008   1.253   6.664   4.285 -0.1492 -0.5808  0.2768
11865TIP3   OH257009   3.740   6.754  11.837  0.5706  0.8761 -0.1280
11865TIP3    H157010   3.784   6.674  11.807  0.2569 -0.5870  3.1179
11865TIP3    H257011   3.705   6.794  11.757  3.4207 -0.5690 -2.1837
11866TIP3   OH257012   5.314   0.825  14.803  0.2281  0.1797 -0.2021
11866TIP3    H157013   5.305   0.839  14.897  0.1521 -0.6589 -0.0837
11866TIP3    H257014   5.405   0.847  14.784  0.7275 -1.3291  0.3738
11867TIP3   OH257015   4.734   3.491   3.717  0.1733  0.4345  0.1787
11867TIP3    H157016   4.721   3.473   3.623  0.0716  0.8541  0.1098
11867TIP3    H257017   4.674   3.564   3.735  0.1844  0.3425  0.5735
11868TIP3   OH257018   5.828   0.339  12.546 -0.6472  0.0045  0.4118
11868TIP3    H157019   5.859   0.249  12.546  0.4335  0.3649 -1.2215
11868TIP3    H257020   5.895   0.388  12.593 -1.1495 -0.0109  1.1488
11869TIP3   OH257021   6.585   4.202   3.709  0.2121 -0.7898 -0.2008
11869TIP3    H157022   6.589   4.277   3.650 -1.0847  0.5515  1.3753
11869TIP3    H257023   6.530   4.139   3.664  0.1126 -0.2063 -0.9047
11870TIP3   OH257024   4.693   3.131   0.740  0.2911  0.3860  0.1075
11870TIP3    H157025   4.787   3.137   0.758  0.1857  0.4376  0.6385
11870TIP3    H257026   4.652   3.140   0.826 -0.1980  0.3176 -0.1219
11871TIP3   OH257027   2.069   3.744   6.365  0.2139  0.6396  0.0513
11871TIP3    H157028   2.021   3.764   6.445 -0.4372  0.7876 -0.3690
11871TIP3    H257029   2.096   3.829   6.331  1.1184  0.5305  0.4945
11872TIP3   OH257030   5.900   0.468   0.423 -0.3922 -0.6084  0.4909
11872TIP3    H157031   5.964   0.518   0.475  0.2085  0.2819 -1.0848
11872TIP3    H257032   5.922   0.377   0.440  1.2348 -0.3152  0.0740
11873TIP3   OH257033   6.685   2.193  14.655  0.5303 -0.2254 -0.2356
11873TIP3    H157034   6.768   2.216  14.614  0.4007  0.8905  0.0985
11873TIP3    H257035   6.623   2.190  14.583  0.3567  1.4738 -0.1822
11874TIP3   OH257036   3.067   4.867   3.538 -0.0661 -0.7118  0.1983
11874TIP3    H157037   3.157   4.900   3.537 -0.2618 -0.1355  1.1181
11874TIP3    H257038   3.021   4.917   3.471  0.0779 -0.3548  0.3658
11875TIP3   OH257039   6.785   3.774   6.015 -0.0473  0.7090  0.0102
11875TIP3    H157040   6.708   3.742   5.968 -1.3418  0.7287  2.0819
11875TIP3    H257041   6.782   3.730   6.100  2.8937 -0.1997 -0.3043
11876TIP3   OH257042   1.094   2.849   3.249 -0.0011 -0.2561 -0.1762
11876TIP3    H157043   1.087   2.921   3.311 -0.4428  1.4715 -2.1906
11876TIP3    H257044   1.013   2.852   3.199 -0.1794 -2.3820 -0.0751
11877TIP3   OH257045   0.795   2.292  13.008  0.2928 -0.0601  0.0537
11877TIP3    H157046   0.791   2.355  13.080  1.5294  0.4590 -0.3224
11877TIP3    H257047   0.705   2.286  12.977 -0.7703 -2.1261  3.2159
11878TIP3   OH257048   6.381   1.136   0.058 -1.4656 -0.1250  0.0749
11878TIP3    H157049   6.331   1.178  -0.012 -0.4766 -0.7492 -1.0247
11878TIP3    H257050   6.472   1.158   0.040 -1.1266 -0.9810  0.6851
11879TIP3   OH257051   1.807   6.457   5.207 -0.0491  0.5209 -0.3807
11879TIP3    H157052   1.881   6.518   5.209  1.4721 -1.3013  1.0462
11879TIP3    H257053   1.741   6.498   5.263  1.3758  0.4225  1.4369
11880TIP3   OH257054   3.336   6.161   3.649  0.2558 -0.0692 -0.1301
11880TIP3    H157055   3.392   6.084   3.642  1.7172  1.0044 -0.4135
11880TIP3    H257056   3.265   6.145   3.586  1.3027 -0.5550 -1.2059
11881TIP3   OH257057   4.277   0.834  12.782  0.4033  0.4861  0.0949
11881TIP3    H157058   4.202   0.842  12.842 -0.1579  1.9874 -0.7586
11881TIP3    H257059   4.283   0.920  12.741  0.9328 -0.4505 -1.8267
11882TIP3   OH257060   2.622   5.362  13.611  0.1394  0.2177 -0.6971
11882TIP3    H157061   2.717   5.374  13.609 -0.0767  2.8117  1.7494
11882TIP3    H257062   2.589   5.423  13.545  0.0964  0.3722 -0.5350
11883TIP3   OH257063   1.557   0.390   2.619  0.0190 -0.0381 -1.0325
11883TIP3    H157064   1.568   0.478   2.656  0.3465  0.0322 -1.3025
11883TIP3    H257065   1.639   0.346   2.638 -1.5946 -1.6337  2.7826
11884TIP3   OH257066   4.838   0.284  13.033  0.2411  0.3722 -0.0336
11884TIP3    H157067   4.900   0.219  13.067 -0.5235 -0.1828  0.3202
11884TIP3    H257068   4.766   0.282  13.096  0.4576  1.9645  0.2804
11885TIP3   OH257069   2.832   3.949   3.152  0.4148 -0.5785 -0.9102
11885TIP3    H157070   2.827   3.857   3.126  1.6320 -0.4477 -1.6405
11885TIP3    H257071   2.895   3.950   3.225 -2.2863 -0.8129  1.5053
11886TIP3   OH257072   3.263   6.348   2.605 -0.4718  0.1357 -0.3245
11886TIP3    H157073   3.350   6.383   2.624  0.2452 -2.1423  0.8343
11886TIP3    H257074   3.224   6.411   2.545  1.9369  1.2614 -0.7670
11887TIP3   OH257075   1.418   6.471   0.974 -0.2840 -0.3453 -0.7447
11887TIP3    H157076   1.488   6.405   0.983  0.7164  0.4007 -2.7201
11887TIP3    H257077   1.435   6.511   0.889 -0.6727  2.7461  0.5989
11888TIP3   OH257078   2.070   5.261  15.682  0.2939  0.1918  0.0483
11888TIP3    H157079   2.009   5.309  15.626 -0.1155  0.4454  0.7133
11888TIP3    H257080   2.048   5.287  15.771  0.2950 -0.9596  0.4015
11889TIP3   OH257081   1.257   1.335  13.320 -0.5039 -0.1351  0.0451
11889TIP3    H157082   1.343   1.378  13.311 -0.2487 -0.3004  1.5532
11889TIP3    H257083   1.236   1.343  13.413 -2.6328  0.8441 -0.5054
11890TIP3   OH257084   2.388   4.877   0.167  0.0169  0.4293 -0.2396
11890TIP3    H157085   2.309   4.887   0.220 -0.6922  1.0062 -1.3874
11890TIP3    H257086   2.414   4.786   0.179 -0.6150  0.3295  0.4197
11891TIP3   OH257087   6.015   0.652   5.601  0.2940  0.2290  0.1578
11891TIP3    H157088   6.059   0.732   5.572 -0.5282  0.9412  0.8013
11891TIP3    H257089   5.972   0.619   5.522 -1.1813  1.6531  0.3181
11892TIP3   OH257090   0.751   2.422   6.033 -0.4582 -0.0770 -0.2385
11892TIP3    H157091   0.823   2.485   6.026  0.7803 -1.2648  1.3573
11892TIP3    H257092   0.780   2.346   5.983 -1.6824  0.3487 -1.6390
11893TIP3   OH257093   4.262   2.402  11.046 -0.0557 -0.1894  0.2990
11893TIP3    H157094   4.253   2.307  11.055  2.1773 -0.5426 -0.5876
11893TIP3    H257095   4.332   2.425  11.107 -1.1024  1.0100  1.0542
11894TIP3   OH257096   4.510   2.121   4.944  0.2786  0.0075  0.0675
11894TIP3    H157097   4.540   2.106   5.034  0.6833  1.0343  0.1140
11894TIP3    H257098   4.589   2.144   4.896 -0.0017 -0.1081 -0.4528
11895TIP3   OH257099   0.991   3.671   5.013 -0.2084 -0.1659  0.2473
11895TIP3    H157100   1.003   3.730   5.087  0.6552  1.9138 -1.4537
11895TIP3    H257101   0.901   3.640   5.020 -0.4423  0.7834  1.6083
11896TIP3   OH257102   1.526   0.751  11.143  0.1666 -0.0392 -0.1626
11896TIP3    H157103   1.472   0.826  11.118  1.9772  1.7553  1.1505
11896TIP3    H257104   1.463   0.680  11.159 -1.6894  1.6201  0.0435
11897TIP3   OH257105   6.675   2.416  16.298  1.3096  0.1967 -0.1590
11897TIP3    H157106   6.581   2.405  16.286  0.5392  2.5240  2.8774
11897TIP3    H257107   6.698   2.490  16.242  1.2038  0.0447 -0.4041
11898TIP3   OH257108   4.599   2.215  13.575 -0.0917 -0.0130  0.0849
11898TIP3    H157109   4.542   2.158  13.523 -0.2369  0.1658  0.0493
11898TIP3    H257110   4.659   2.155  13.618 -0.0599 -0.1745 -0.1796
11899TIP3   OH257111   6.573   0.694  10.507 -0.0483 -0.3837  0.0825
11899TIP3    H157112   6.662   0.713  10.535 -0.5207  1.8518  0.1429
11899TIP3    H257113   6.583   0.625  10.441  1.5607 -1.3946  1.3647
11900TIP3   OH257114   4.152   5.221   3.046  0.6030  0.3284  0.1451
11900TIP3    H157115   4.191   5.138   3.019  0.0363 -0.2758  1.1617
11900TIP3    H257116   4.064   5.198   3.075 -0.1928  1.5376 -1.2275
11901TIP3   OH257117   2.565   2.128  16.608  0.1449  0.4455 -0.1419
11901TIP3    H157118   2.643   2.113  16.662  0.8985  2.1560 -0.7105
11901TIP3    H257119   2.596   2.117  16.518 -0.5751 -0.1188 -0.3278
11902TIP3   OH257120   6.427   6.477   5.092  0.7090 -0.1861 -0.3249
11902TIP3    H157121   6.475   6.479   5.175  0.0751 -0.5457  0.0539
11902TIP3    H257122   6.491   6.448   5.028  0.8578 -1.2188  0.2786
11903TIP3   OH257123   5.288   2.214   4.132 -0.1393  0.0028  0.0823
11903TIP3    H157124   5.314   2.258   4.213 -0.3230  1.0528 -0.4194
11903TIP3    H257125   5.200   2.248   4.113  0.6359  1.1879 -1.5345
11904TIP3   OH257126   1.529   0.828  11.883 -0.0979  0.0680 -0.0461
11904TIP3    H157127   1.564   0.903  11.834  0.5693  0.3761  0.8879
11904TIP3    H257128   1.601   0.801  11.939 -0.6354 -0.7238  0.2611
11905TIP3   OH257129   6.433   5.975   4.049 -0.7041 -0.7434  0.4034
11905TIP3    H157130   6.452   5.898   3.995  1.2415 -0.3465  0.4891
11905TIP3    H257131   6.508   6.033   4.035 -0.6170 -0.2350  2.7860
11906TIP3   OH257132   5.923   1.327  14.845 -0.4788 -0.1335 -0.0481
11906TIP3    H157133   5.984   1.315  14.917 -0.6414 -0.0442  0.1046
11906TIP3    H257134   5.956   1.269  14.776 -0.2744 -0.1534  0.0655
11907TIP3   OH257135   3.854   2.854   5.590  0.6590  0.6689 -0.0982
11907TIP3    H157136   3.829   2.806   5.512  0.0075  2.9654 -1.3467
11907TIP3    H257137   3.889   2.937   5.557 -1.1901  2.3810  2.0529
11908TIP3   OH257138   1.470   4.809  16.762  0.2701  0.0846  0.4326
11908TIP3    H157139   1.413   4.734  16.744 -0.4862  1.0505 -1.3323
11908TIP3    H257140   1.445   4.874  16.697  2.1629  1.2076  0.7944
11909TIP3   OH257141   0.885   0.535  12.704 -0.6369  0.2964  0.2726
11909TIP3    H157142   0.851   0.617  12.741 -0.2156 -0.4753  2.4618
11909TIP3    H257143   0.811   0.475  12.707 -0.3097 -0.0797  0.8736
11910TIP3   OH257144   4.864   2.806   5.617 -0.6578 -0.0265 -0.2033
11910TIP3    H157145   4.884   2.753   5.694  0.4135  0.6384 -0.0123
11910TIP3    H257146   4.793   2.864   5.646 -0.7137 -0.2342  0.0815
11911TIP3   OH257147   2.578   4.281  11.740  0.6236  0.6547  0.2384
11911TIP3    H157148   2.644   4.225  11.699  0.1462  0.3533 -0.1350
11911TIP3    H257149   2.576   4.254  11.831  1.0017  0.6492  0.2443
11912TIP3   OH257150   3.374   2.980  10.389 -0.6201  0.0300  0.0656
11912TIP3    H157151   3.316   2.972  10.465 -0.7777 -1.5372 -0.2054
11912TIP3    H257152   3.452   3.024  10.422 -1.4713  1.1059  0.6895
11913TIP3   OH257153   0.036   0.701  12.291  0.2832  0.0794  0.1414
11913TIP3    H157154  -0.035   0.765  12.293  0.3616  0.2469 -1.6873
11913TIP3    H257155   0.031   0.657  12.376 -2.1340 -0.0474 -0.0365
11914TIP3   OH257156   0.098   2.052   0.085 -0.5269 -0.1934  0.0037
11914TIP3    H157157   0.080   2.000   0.163  0.2447 -0.9300 -0.3135
11914TIP3    H257158   0.181   2.095   0.103  0.8163 -2.1592 -1.3356
11915TIP3   OH257159   5.867   1.379  14.532  0.2651 -0.4090 -0.1105
11915TIP3    H157160   5.774   1.373  14.509  0.1322 -1.1586  0.6167
11915TIP3    H257161   5.904   1.296  14.502  0.8133  0.1023 -0.8775
11916TIP3   OH257162   3.921   0.592  15.311 -0.5157  0.1626  0.0174
11916TIP3    H157163   3.915   0.506  15.352  1.5008 -0.4692 -0.9708
11916TIP3    H257164   3.861   0.586  15.236 -1.2557  0.0303  0.6078
11917TIP3   OH257165   0.060   1.382  15.745 -0.4148  0.2819  0.1692
11917TIP3    H157166   0.083   1.289  15.739 -0.1904  0.3324  0.2475
11917TIP3    H257167  -0.036   1.383  15.746 -0.4164 -0.1126  2.6445
11918TIP3   OH257168   5.454   0.954  11.080 -0.8423  0.4176  0.2062
11918TIP3    H157169   5.413   0.868  11.080 -0.5216  0.2487  1.9262
11918TIP3    H257170   5.394   1.009  11.131 -0.8262  1.1154 -0.5118
11919TIP3   OH257171   2.184   4.723  12.257  0.2483  0.0103  0.1158
11919TIP3    H157172   2.153   4.756  12.342  0.3470 -1.3206  0.6696
11919TIP3    H257173   2.104   4.701  12.210  0.2521 -1.0547  0.5963
11920TIP3   OH257174   2.285   6.203   1.776 -0.7011  0.0177 -0.1959
11920TIP3    H157175   2.342   6.128   1.758 -1.4882 -0.8016  0.6585
11920TIP3    H257176   2.299   6.221   1.869 -2.2337 -0.5268  0.1454
11921TIP3   OH257177   0.115   3.372   1.922  0.5436 -0.2202 -0.4240
11921TIP3    H157178   0.122   3.345   2.013 -0.7285 -0.2522 -0.3217
11921TIP3    H257179   0.055   3.447   1.924 -1.3941 -1.6862 -1.4781
11922TIP3   OH257180   1.098   2.224  13.737 -0.0687  0.1818 -0.4751
11922TIP3    H157181   1.170   2.167  13.708  0.2856 -0.1613  1.0236
11922TIP3    H257182   1.139   2.310  13.748 -0.0137  0.1219 -0.2022
11923TIP3   OH257183   1.867   6.214   5.572  0.0151 -0.6157 -0.4062
11923TIP3    H157184   1.791   6.233   5.627  2.2481 -0.2622  2.6415
11923TIP3    H257185   1.891   6.124   5.594  2.3957  0.3415  1.0864
11924TIP3   OH257186   3.194   3.580  14.609  0.6263 -0.2086 -0.2472
11924TIP3    H157187   3.177   3.491  14.641  1.8471 -0.5245 -0.4215
11924TIP3    H257188   3.284   3.576  14.574  0.5285  0.9763 -0.6692
11925TIP3   OH257189   3.035   4.581   3.840  0.2447  0.4618 -0.0727
11925TIP3    H157190   2.978   4.548   3.910 -0.1273 -0.7253 -0.9259
11925TIP3    H257191   2.975   4.622   3.778  0.3919 -0.1838 -0.6376
11926TIP3   OH257192   2.105   5.111  12.365 -0.2308  0.0195 -0.6787
11926TIP3    H157193   2.087   5.144  12.277  0.5653 -0.5148 -1.0400
11926TIP3    H257194   2.023   5.069  12.392 -0.6011  0.5170 -1.0015
11927TIP3   OH257195   3.794   6.616   1.557  0.3951 -0.1366 -0.2693
11927TIP3    H157196   3.800   6.693   1.613 -0.6418 -1.2432  1.4504
11927TIP3    H257197   3.863   6.558   1.589  1.6261  0.3480 -2.0110
11928TIP3   OH257198   6.658   1.631   4.369  0.4466 -0.1265  0.5588
11928TIP3    H157199   6.613   1.699   4.319 -0.9549 -2.0103 -0.7984
11928TIP3    H257200   6.689   1.569   4.302  0.4313 -1.5711  1.8618
11929TIP3   OH257201   5.134   6.428  11.788 -0.2498  0.9150  0.6836
11929TIP3    H157202   5.058   6.454  11.840 -1.8048  0.5369 -1.3885
11929TIP3    H257203   5.147   6.501  11.727 -1.6291 -0.9449 -1.8703
11930TIP3   OH257204   4.778   5.319  11.929 -0.6079 -0.0082 -0.0350
11930TIP3    H157205   4.749   5.238  11.887  0.9066 -1.0134  0.7735
11930TIP3    H257206   4.789   5.295  12.022 -1.1522  1.3986  0.3963
11931TIP3   OH257207   4.075   1.826  15.354 -0.0527  0.3211  0.0649
11931TIP3    H157208   4.010   1.758  15.341  0.7168 -0.1096 -1.7890
11931TIP3    H257209   4.045   1.875  15.430 -1.6831 -0.8408  0.1848
11932TIP3   OH257210   4.495   6.396   1.603  0.8712 -0.5335 -0.3381
11932TIP3    H157211   4.536   6.315   1.573  0.4671 -1.1053  0.6303
11932TIP3    H257212   4.414   6.367   1.645 -0.3031  0.5323 -1.8180
11933TIP3   OH257213   2.257   4.904  16.898 -0.1276  0.2005  0.0699
11933TIP3    H157214   2.309   4.853  16.960  0.1587 -1.1536 -1.2600
11933TIP3    H257215   2.177   4.853  16.885 -0.1747  0.4576 -0.6869
11934TIP3   OH257216   4.420   5.901   0.883 -0.3888 -0.2800 -0.0942
11934TIP3    H157217   4.329   5.881   0.907  0.7726 -1.9445  3.2581
11934TIP3    H257218   4.425   5.997   0.889 -1.9925 -0.1344 -0.6778
11935TIP3   OH257219   4.635   6.714  12.834 -0.0860  0.4570 -0.2798
11935TIP3    H157220   4.671   6.730  12.921 -0.1051 -0.0675 -0.1729
11935TIP3    H257221   4.550   6.672  12.850  0.7841 -1.4970 -0.5522
11936TIP3   OH257222   6.249   3.009  16.264  0.2982 -0.0848 -0.1933
11936TIP3    H157223   6.193   3.083  16.286 -0.7367 -0.7731 -0.5184
11936TIP3    H257224   6.327   3.049  16.225 -0.0046  0.8558  0.1546
11937TIP3   OH257225   4.725   1.730   6.206  0.2717 -0.3322 -0.1257
11937TIP3    H157226   4.681   1.814   6.222  1.4378  0.4563 -0.9150
11937TIP3    H257227   4.786   1.749   6.134  1.4077 -1.5640  0.4878
11938TIP3   OH257228   3.526   1.373   4.629  0.2940 -0.4352  0.6305
11938TIP3    H157229   3.517   1.468   4.619  0.6732 -0.4859 -0.3378
11938TIP3    H257230   3.480   1.352   4.710 -0.1559  0.5192  0.6292
11939TIP3   OH257231   0.359   1.154  15.978  0.4893 -0.2478  0.0304
11939TIP3    H157232   0.357   1.090  16.049  0.3149 -1.4214 -1.0112
11939TIP3    H257233   0.345   1.238  16.021 -0.9737 -1.0837  1.2279
11940TIP3   OH257234   0.493   0.620   5.267 -0.3322  0.3328  0.2342
11940TIP3    H157235   0.560   0.584   5.325  1.4485  1.2723 -1.2019
11940TIP3    H257236   0.445   0.683   5.322 -0.7198 -1.0752  1.5463
11941TIP3   OH257237   6.439   5.641  16.787  0.3609 -0.3058 -0.2316
11941TIP3    H157238   6.534   5.653  16.783  0.5189 -1.6930 -0.6095
11941TIP3    H257239   6.425   5.586  16.864 -0.0401 -1.1148 -0.8857
11942TIP3   OH257240   6.265   3.906  12.704  0.1971  0.0315 -0.2774
11942TIP3    H157241   6.303   3.832  12.752 -0.1053  0.4873  0.6708
11942TIP3    H257242   6.188   3.931  12.755 -0.3593  0.2684 -1.2149
11943TIP3   OH257243   5.020   1.367   5.646  0.4066  0.2821  0.0105
11943TIP3    H157244   5.110   1.335   5.639  0.6392  0.6651  1.2074
11943TIP3    H257245   5.025   1.458   5.617  0.5020  0.4499  0.5434
11944TIP3   OH257246   0.029   2.265  12.954 -0.1678 -0.2321 -0.0461
11944TIP3    H157247   0.110   2.267  12.903 -0.1619 -0.2612 -0.0383
11944TIP3    H257248   0.044   2.326  13.026  0.3668 -1.2713  0.7330
11945TIP3   OH257249   2.430   2.142   0.694 -0.0233  0.3215 -0.3826
11945TIP3    H157250   2.513   2.169   0.733 -0.0806 -1.3154  0.9030
11945TIP3    H257251   2.454   2.111   0.606  0.5525  0.9427 -0.4498
11946TIP3   OH257252   0.283   5.380  17.204  0.3031 -0.7659 -0.0919
11946TIP3    H157253   0.288   5.315  17.274 -0.3466 -0.9854 -0.2421
11946TIP3    H257254   0.350   5.445  17.225  0.9770 -1.5008  0.0510
11947TIP3   OH257255   3.258   0.146   5.087 -0.4032 -0.0205 -0.6577
11947TIP3    H157256   3.349   0.153   5.115 -0.3244 -1.5135 -0.5103
11947TIP3    H257257   3.261   0.088   5.011 -0.9812  1.6060 -1.9587
11948TIP3   OH257258   5.500   4.639   6.348  0.7798 -0.4457  0.6927
11948TIP3    H157259   5.550   4.712   6.385  0.5398 -0.3523  0.8373
11948TIP3    H257260   5.565   4.585   6.304  0.8907  0.1172  0.1582
11949TIP3   OH257261   4.031   0.589   2.133 -0.2669 -0.3390  0.2046
11949TIP3    H157262   4.075   0.541   2.063  0.7309 -0.5477  0.9685
11949TIP3    H257263   3.939   0.562   2.125 -0.3182  0.2694 -1.5250
11950TIP3   OH257264   6.120   2.884  16.848  0.1766  0.3802 -0.0406
11950TIP3    H157265   6.114   2.970  16.808 -0.1535  0.4459  0.1465
11950TIP3    H257266   6.184   2.837  16.795  2.2010  1.5275  1.3073
11951TIP3   OH257267   4.905   2.185   4.481  0.4819  0.1544  0.0611
11951TIP3    H157268   4.915   2.176   4.386 -0.9633  0.6480 -0.1485
11951TIP3    H257269   4.995   2.190   4.514  1.0798 -2.6484 -0.9944
11952TIP3   OH257270   2.503   0.907  13.978 -0.2206  0.1028  0.1093
11952TIP3    H157271   2.495   0.995  14.014  0.1294 -0.6471  2.0669
11952TIP3    H257272   2.416   0.869  13.988  0.1225 -0.4400  1.0624
11953TIP3   OH257273   6.138   0.992   0.843  0.0461 -0.6816 -0.1197
11953TIP3    H157274   6.197   0.943   0.785  0.7579 -0.1264  0.1211
11953TIP3    H257275   6.060   0.938   0.849  1.2369 -2.3519  1.0101
11954TIP3   OH257276   1.520   5.296  14.601 -0.1063 -0.2075 -0.1030
11954TIP3    H157277   1.554   5.367  14.655 -2.1086  0.4844  0.3038
11954TIP3    H257278   1.437   5.330  14.566 -0.2219 -1.6844 -1.3476
11955TIP3   OH257279   4.965   1.037   3.767  0.3087  0.3241  0.2706
11955TIP3    H157280   4.977   1.116   3.820  1.2423 -0.8836  1.9007
11955TIP3    H257281   5.051   0.995   3.766 -0.1703 -0.6708 -0.6061
11956TIP3   OH257282   6.588   5.066   5.033 -0.2425 -0.0433  0.9323
11956TIP3    H157283   6.656   5.001   5.016  0.7925  0.8861  1.4479
11956TIP3    H257284   6.604   5.135   4.970 -0.5391  0.3086  1.2382
11957TIP3   OH257285   1.197   2.914  14.014  0.6097  0.2794 -0.0485
11957TIP3    H157286   1.142   2.943  13.941  0.3044  1.9854  0.8231
11957TIP3    H257287   1.265   2.980  14.020  1.7004 -0.8410  0.0613
11958TIP3   OH257288   1.299   4.090   0.270  0.2837 -0.5207 -0.2450
11958TIP3    H157289   1.327   4.025   0.333  0.8920  0.6548  0.7246
11958TIP3    H257290   1.250   4.154   0.321 -1.5778 -0.9600 -1.4207
11959TIP3   OH257291   1.017   2.829   1.573  0.1075 -0.1293 -0.4316
11959TIP3    H157292   0.982   2.753   1.619 -0.4548 -1.2674 -2.6650
11959TIP3    H257293   0.970   2.903   1.611 -1.0568 -1.1298  0.1324
11960TIP3   OH257294   5.074   4.285   4.496 -0.5716 -0.1918  0.9952
11960TIP3    H157295   4.993   4.235   4.484 -1.3411  1.6834 -2.1871
11960TIP3    H257296   5.053   4.350   4.562 -1.4750 -0.1051  0.6227
11961TIP3   OH257297   5.354   0.964  13.687  0.7672 -0.2867 -0.2168
11961TIP3    H157298   5.265   0.987  13.714  0.5554 -0.0291 -1.1257
11961TIP3    H257299   5.347   0.941  13.595  1.2049 -2.7827  0.3269
11962TIP3   OH257300   6.161   3.198   0.959  0.1697 -0.2075 -0.1075
11962TIP3    H157301   6.139   3.156   1.042  1.2948 -1.1504 -0.2833
11962TIP3    H257302   6.251   3.230   0.972 -0.5352  1.8518 -0.0958
11963TIP3   OH257303   0.604   0.412  15.983  0.3566 -0.3128 -0.1724
11963TIP3    H157304   0.512   0.435  15.970  0.4013 -0.0132  0.0321
11963TIP3    H257305   0.652   0.493  15.967  0.6296 -0.5969 -0.8005
11964TIP3   OH257306   3.348   4.841  15.611  0.2475 -0.3970 -0.4063
11964TIP3    H157307   3.351   4.834  15.516  0.5039 -0.4420 -0.3951
11964TIP3    H257308   3.433   4.876  15.636 -0.7671  2.1182 -0.3872
11965TIP3   OH257309   6.540   2.333  15.791  0.3304  0.4562 -0.4017
11965TIP3    H157310   6.506   2.392  15.723 -1.0644 -0.3586 -0.4317
11965TIP3    H257311   6.611   2.286  15.748 -0.7732 -0.3196 -1.4343
11966TIP3   OH257312   4.721   5.287   2.108 -0.0859  0.4289  0.2510
11966TIP3    H157313   4.722   5.232   2.187 -0.8104  0.2968  0.1678
11966TIP3    H257314   4.814   5.294   2.084 -0.1720 -3.7285 -1.7735
11967TIP3   OH257315   1.112   4.456   3.633  0.3471  0.8146 -0.5114
11967TIP3    H157316   1.207   4.461   3.620  0.3975  1.1114 -0.0235
11967TIP3    H257317   1.101   4.444   3.727 -0.1152  1.1605 -0.5214
11968TIP3   OH257318   2.055   5.854  16.076 -0.1327 -0.9176  0.1498
11968TIP3    H157319   2.118   5.885  16.142  0.8464 -1.2466 -0.6248
11968TIP3    H257320   1.978   5.829  16.127 -0.9092  2.5873  0.8472
11969TIP3   OH257321   1.548   5.647   1.351 -0.5853 -0.1516 -0.6177
11969TIP3    H157322   1.621   5.630   1.292 -1.7501  1.2547 -2.5384
11969TIP3    H257323   1.471   5.621   1.302 -1.4919 -0.4546  0.9168
11970TIP3   OH257324   6.264   4.590  10.626 -0.0479  0.3937  0.2936
11970TIP3    H157325   6.323   4.573  10.552  0.8263  0.6468  0.9269
11970TIP3    H257326   6.177   4.570  10.592  0.5953 -1.9934 -0.0339
11971TIP3   OH257327   1.898   1.325  13.521 -0.2146  0.2801 -0.3300
11971TIP3    H157328   1.989   1.305  13.501 -0.3844 -0.1095 -0.6986
11971TIP3    H257329   1.851   1.243  13.511 -0.3348  0.0864  1.5370
11972TIP3   OH257330   4.383   4.679   1.096 -0.5619 -0.6439 -0.2253
11972TIP3    H157331   4.335   4.628   1.031 -0.3478 -0.1848 -0.7436
11972TIP3    H257332   4.375   4.770   1.066 -1.1910 -0.3306  0.8477
11973TIP3   OH257333   0.599   2.088   1.837 -0.1693  0.2217  0.3539
11973TIP3    H157334   0.617   2.157   1.774  0.4495  0.0389  0.3281
11973TIP3    H257335   0.656   2.109   1.911  0.2409 -0.4368  0.2200
11974TIP3   OH257336   5.304   0.484  11.489 -0.3705 -0.4239 -0.3865
11974TIP3    H157337   5.380   0.427  11.494 -0.1777 -0.1151  0.1761
11974TIP3    H257338   5.314   0.530  11.405  0.6024  0.3833  0.1727
11975TIP3   OH257339   4.060   1.726  11.057  0.2136 -0.7459 -0.0484
11975TIP3    H157340   4.126   1.795  11.063 -0.4881 -0.1869  1.4820
11975TIP3    H257341   4.016   1.743  10.973  0.9917 -0.2157 -0.3610
11976TIP3   OH257342   4.892   3.508  13.715  0.0863 -0.1686  0.0626
11976TIP3    H157343   4.825   3.446  13.686  0.1118  0.2246 -0.8470
11976TIP3    H257344   4.880   3.514  13.809  0.0508 -1.5273  0.1618
11977TIP3   OH257345   6.433   6.228  11.525  0.1009 -0.2590  0.0565
11977TIP3    H157346   6.377   6.241  11.602 -0.9792  0.1330 -0.7934
11977TIP3    H257347   6.496   6.301  11.530  0.2319 -0.4109  0.7330
11978TIP3   OH257348   1.055   1.160   1.468 -0.4130  0.1434  0.3478
11978TIP3    H157349   0.981   1.121   1.421 -0.9236  0.0763  1.2102
11978TIP3    H257350   1.105   1.204   1.399 -0.9741 -0.2351 -0.3189
11979TIP3   OH257351   3.467   6.200  17.085 -0.0646 -0.2884  0.4496
11979TIP3    H157352   3.489   6.240  17.001  1.6323 -1.4191  0.3329
11979TIP3    H257353   3.524   6.243  17.148  1.3131 -2.0161  0.4248
11980TIP3   OH257354   5.172   3.240  17.126 -0.3410 -0.2907 -0.4202
11980TIP3    H157355   5.115   3.298  17.075  1.4508 -0.2192 -2.3954
11980TIP3    H257356   5.157   3.153  17.088 -0.4990 -0.5685  0.2783
11981TIP3   OH257357   0.192   6.713   0.966 -0.1003  0.2888  0.0853
11981TIP3    H157358   0.147   6.643   0.920  1.8541 -0.5288 -0.6236
11981TIP3    H257359   0.219   6.674   1.050 -1.2632  0.9665  0.7892
11982TIP3   OH257360   4.908   4.021   2.556 -0.0736 -0.0546 -0.5665
11982TIP3    H157361   4.830   4.040   2.607 -0.8008  1.6512 -2.2654
11982TIP3    H257362   4.979   4.021   2.621 -1.4409 -1.6718  0.9872
11983TIP3   OH257363   0.536   5.458   5.082  0.1935 -0.4433  0.0040
11983TIP3    H157364   0.624   5.494   5.080 -0.2894  0.7188 -1.0141
11983TIP3    H257365   0.548   5.363   5.079  1.4221 -0.3139  0.7473
11984TIP3   OH257366   3.662   4.668   4.526 -0.1031 -0.4691 -0.1817
11984TIP3    H157367   3.579   4.623   4.509 -0.8326  0.9044 -0.4254
11984TIP3    H257368   3.659   4.689   4.620  0.1464 -0.7669 -0.1078
11985TIP3   OH257369   4.247   0.802   6.065  0.5249  0.0847  0.2636
11985TIP3    H157370   4.333   0.783   6.029  0.3409 -2.3274  0.9862
11985TIP3    H257371   4.238   0.740   6.138 -1.5367  0.7577  0.6069
11986TIP3   OH257372   5.032   3.949  11.153  0.5388  0.3210  0.0416
11986TIP3    H157373   5.055   4.016  11.089  2.1492 -0.4401 -0.2014
11986TIP3    H257374   5.025   3.868  11.102  1.2408 -0.1838  0.7398
11987TIP3   OH257375   4.412   3.448   2.043  0.6324  0.1429  0.1887
11987TIP3    H157376   4.390   3.378   2.104  0.9589  1.3556  1.7260
11987TIP3    H257377   4.354   3.520   2.066  1.6217  1.0487 -0.0912
11988TIP3   OH257378   4.030   6.304   4.907 -0.2830  1.0408  0.2210
11988TIP3    H157379   3.946   6.309   4.952 -0.0635  0.8702  0.6576
11988TIP3    H257380   4.090   6.355   4.962  0.0321  0.6667  0.2291
11989TIP3   OH257381   3.665   3.887  14.900  0.6856  0.7826 -0.0645
11989TIP3    H157382   3.599   3.940  14.946 -0.2436  0.0932 -0.5868
11989TIP3    H257383   3.704   3.948  14.837  0.5654  1.2071  0.2687
11990TIP3   OH257384   6.539   6.476   1.877 -0.1650 -0.9991 -0.1958
11990TIP3    H157385   6.448   6.504   1.885 -0.0481 -0.3199 -1.1953
11990TIP3    H257386   6.569   6.515   1.796  0.5298 -2.6170 -0.7393
11991TIP3   OH257387   4.903   1.362  12.835  0.4169  0.0238 -0.3752
11991TIP3    H157388   4.876   1.274  12.808 -0.1878  0.0135  0.2606
11991TIP3    H257389   4.922   1.408  12.753 -1.4029  0.0005 -0.8236
11992TIP3   OH257390   3.888   1.912  12.893  0.3878  0.0476 -0.4471
11992TIP3    H157391   3.924   1.928  12.980 -0.1532 -0.7120 -0.0769
11992TIP3    H257392   3.903   1.818  12.878  1.1965  0.3309 -1.4994
11993TIP3   OH257393   6.243   4.710  14.928 -0.1761  0.2405 -0.3931
11993TIP3    H157394   6.306   4.764  14.976 -0.1013  0.3050 -0.5650
11993TIP3    H257395   6.164   4.763  14.924 -0.5522 -0.2270  0.6634
11994TIP3   OH257396   5.365   4.447   0.154  0.0667  0.3548 -0.5861
11994TIP3    H157397   5.430   4.506   0.193  0.4592 -1.1522  1.0960
11994TIP3    H257398   5.416   4.387   0.100  0.0879 -0.6759  0.5451
11995TIP3   OH257399   5.015   0.160   5.994  0.0848 -0.3864  0.0944
11995TIP3    H157400   4.964   0.177   6.073  0.5137 -0.5187  0.4022
11995TIP3    H257401   5.049   0.071   6.006 -0.1884 -0.5576 -0.4252
11996TIP3   OH257402   1.508   4.320  12.946 -0.0105  0.0222 -0.0755
11996TIP3    H157403   1.578   4.369  12.903  0.6353  1.0758  2.0889
11996TIP3    H257404   1.554   4.254  12.998 -0.4650  1.9555  2.8920
11997TIP3   OH257405   5.439   2.930   0.897 -0.5045  0.3478 -0.2114
11997TIP3    H157406   5.386   2.981   0.835 -0.3707 -0.6913 -1.1862
11997TIP3    H257407   5.527   2.968   0.890 -0.2462 -0.4400 -1.4437
11998TIP3   OH257408   4.005   0.264   2.265 -0.1217 -0.4899  0.2211
11998TIP3    H157409   3.977   0.299   2.350  0.8500  1.8260 -0.3656
11998TIP3    H257410   4.073   0.325   2.236  1.9077 -3.1513 -0.7050
11999TIP3   OH257411   4.626   4.143  14.615 -0.0126  0.0174  0.1381
11999TIP3    H157412   4.595   4.065  14.569 -0.8365 -0.2298  1.0746
11999TIP3    H257413   4.714   4.157  14.582 -0.3212 -0.5728 -0.9678
12000TIP3   OH257414   0.010   3.458  16.602  0.0452  0.7625  0.7437
12000TIP3    H157415  -0.022   3.542  16.634  1.0774  1.3274  0.3143
12000TIP3    H257416   0.104   3.461  16.619  0.2334  0.0993 -0.1766
12001TIP3   OH257417   5.316   5.407  15.398  0.3187 -0.2872  0.0263
12001TIP3    H157418   5.277   5.359  15.325  0.5800  2.5997 -2.0972
12001TIP3    H257419   5.410   5.393  15.389  0.2529 -1.2520  0.7912
12002TIP3   OH257420   3.546   5.853   0.917  0.2798  0.1508  0.7042
12002TIP3    H157421   3.606   5.806   0.859 -1.0233 -0.4772 -0.1359
12002TIP3    H257422   3.560   5.813   1.003 -0.6641 -1.6458  0.0398
12003TIP3   OH257423   5.560   0.963  15.478 -0.0433 -0.1891 -0.7638
12003TIP3    H157424   5.649   0.942  15.506 -0.4978 -0.5254  0.4648
12003TIP3    H257425   5.568   0.987  15.386  1.0793 -1.7852 -1.0879
12004TIP3   OH257426   6.751   2.908   3.215 -0.2070 -0.2514 -0.0519
12004TIP3    H157427   6.722   2.993   3.246 -2.4750 -1.1595  0.4072
12004TIP3    H257428   6.805   2.873   3.285 -1.1100 -0.1211  0.7150
12005TIP3   OH257429   3.020   4.877   4.658 -0.6757  0.0076  0.0739
12005TIP3    H157430   2.947   4.815   4.654  0.0156 -0.9101  1.4378
12005TIP3    H257431   3.056   4.866   4.746  0.0770  1.6391 -0.0226
12006TIP3   OH257432   0.232   6.647  11.221  0.0968 -0.0392 -0.0442
12006TIP3    H157433   0.231   6.603  11.306 -1.3597  2.5343  1.3119
12006TIP3    H257434   0.170   6.597  11.168 -0.8984 -0.1441  1.1958
12007TIP3   OH257435   1.232   2.180  16.987 -0.3110 -0.2196  0.1182
12007TIP3    H157436   1.162   2.122  16.958 -0.3956  0.6109 -1.3912
12007TIP3    H257437   1.212   2.264  16.945  0.7336  0.4479  0.9289
12008TIP3   OH257438   1.959   4.680   1.679  0.0524  0.5860  0.8241
12008TIP3    H157439   1.937   4.587   1.682 -0.8953  0.7766 -0.2870
12008TIP3    H257440   1.970   4.705   1.771  0.2376 -0.6034  1.1254
12009TIP3   OH257441   2.316   2.262  15.049  0.3445 -0.1977  0.6715
12009TIP3    H157442   2.386   2.276  14.985  1.3719 -1.3611  1.5128
12009TIP3    H257443   2.246   2.221  14.999 -0.6899  3.0688 -0.6832
12010TIP3   OH257444   1.503   3.552   3.079  0.0425 -0.8704 -0.3853
12010TIP3    H157445   1.523   3.460   3.064  2.6673 -0.2102 -1.1890
12010TIP3    H257446   1.525   3.567   3.171  2.2060 -0.4393 -0.9502
12011TIP3   OH257447   3.435   3.980  15.823 -0.3273  0.0221  0.5903
12011TIP3    H157448   3.353   4.019  15.852 -0.3798  0.6976 -0.4631
12011TIP3    H257449   3.469   3.937  15.902 -2.2766 -1.3157  0.7462
12012TIP3   OH257450   2.480   0.498   4.921 -0.3873 -0.2789 -0.7335
12012TIP3    H157451   2.536   0.547   4.981 -2.2838  1.7314 -0.5238
12012TIP3    H257452   2.516   0.517   4.834 -1.1020  1.5757 -0.6575
12013TIP3   OH257453   5.430   2.161  16.713 -0.0518  1.1458  0.5037
12013TIP3    H157454   5.434   2.103  16.636  0.8528  0.5249  1.0188
12013TIP3    H257455   5.347   2.138  16.756  0.6540 -0.2935  1.1168
12014TIP3   OH257456   1.702   3.709   6.089 -0.2016  0.5411 -0.3036
12014TIP3    H157457   1.730   3.767   6.160 -3.5172  0.6748  1.0183
12014TIP3    H257458   1.742   3.625   6.109  1.8491  1.4965 -0.3173
12015TIP3   OH257459   5.098   1.219  17.118 -0.2666  0.4500  0.0308
12015TIP3    H157460   5.126   1.310  17.106 -0.7883  0.6458  0.2949
12015TIP3    H257461   5.180   1.169  17.120  0.0551  0.9860  0.4689
12016TIP3   OH257462   1.259   0.056  11.808  0.5074  0.1651  0.5554
12016TIP3    H157463   1.315  -0.001  11.860 -0.6888  0.0774  1.7665
12016TIP3    H257464   1.218  -0.002  11.744 -1.3970 -0.4944  2.3642
12017TIP3   OH257465   3.798   2.922   4.964 -0.3012  0.1507 -0.9868
12017TIP3    H157466   3.833   2.962   4.884  0.9663 -0.5186 -0.7747
12017TIP3    H257467   3.823   2.981   5.034 -0.3235  0.0973 -0.9341
12018TIP3   OH257468   4.854   6.038  16.844  0.0570 -0.3611  0.0169
12018TIP3    H157469   4.759   6.049  16.839  0.0183 -0.9607 -0.6219
12018TIP3    H257470   4.883   6.109  16.902 -0.9305 -1.0051  1.3355
12019TIP3   OH257471   1.697   4.062   1.597 -0.4979  0.7789  0.1666
12019TIP3    H157472   1.764   4.119   1.558  0.9379  0.1450  1.6028
12019TIP3    H257473   1.740   3.977   1.603 -1.5632  0.2852  0.8026
12020TIP3   OH257474   2.879   3.870   4.761 -0.0967 -0.1470 -0.2192
12020TIP3    H157475   2.955   3.813   4.775 -0.3889 -0.6301 -0.5913
12020TIP3    H257476   2.808   3.811   4.737 -0.8687  0.2021  1.1529
12021TIP3   OH257477   1.544   1.411   3.148  0.0088 -0.5793  0.4974
12021TIP3    H157478   1.625   1.457   3.168  0.4893 -0.8434 -0.8087
12021TIP3    H257479   1.571   1.320   3.133 -0.4885 -0.6107 -0.2158
12022TIP3   OH257480   1.255   5.343   3.516  0.3884 -0.6304 -0.4591
12022TIP3    H157481   1.173   5.389   3.499 -0.3306 -1.0712  1.5894
12022TIP3    H257482   1.293   5.328   3.430 -2.3083 -1.5223 -1.5458
12023TIP3   OH257483   5.899   6.084  15.859  0.2455  0.5258  0.0234
12023TIP3    H157484   5.844   6.076  15.936  0.5265  0.7423  0.2523
12023TIP3    H257485   5.842   6.123  15.792 -0.7547 -2.1468 -0.7188
12024TIP3   OH257486   4.658   5.444   2.806 -0.1337  0.3746 -0.6302
12024TIP3    H157487   4.751   5.439   2.781 -0.4019  1.7367 -2.0252
12024TIP3    H257488   4.631   5.353   2.816  1.5090 -0.0301  0.4059
12025TIP3   OH257489   5.822   3.717  10.495  0.0661 -0.7152 -0.6529
12025TIP3    H157490   5.834   3.747  10.585 -2.8928 -0.1413 -0.3898
12025TIP3    H257491   5.888   3.765  10.445  1.1361 -0.3548  1.0496
12026TIP3   OH257492   0.143   2.114  14.228  0.4224 -0.3351 -0.6272
12026TIP3    H157493   0.071   2.164  14.191  0.3314 -0.0876 -0.1162
12026TIP3    H257494   0.217   2.131  14.169  0.1826 -0.2302 -0.8955
12027TIP3   OH257495   2.815   2.218  11.207 -0.9005 -0.0801 -0.4874
12027TIP3    H157496   2.755   2.292  11.215 -0.7862 -0.1009  0.6662
12027TIP3    H257497   2.811   2.194  11.114 -1.9637  0.5079 -0.6049
12028TIP3   OH257498   4.357   6.784   2.742 -0.3050 -0.3673  0.1446
12028TIP3    H157499   4.301   6.859   2.759 -1.0823 -0.8469 -0.3099
12028TIP3    H257500   4.443   6.811   2.774 -0.8590  0.2496  1.1208
12029TIP3   OH257501   2.651   2.956   4.538 -0.2715 -0.7103 -0.2243
12029TIP3    H157502   2.727   2.980   4.484 -0.6572  0.6035 -0.2005
12029TIP3    H257503   2.669   2.866   4.565  0.0540 -1.3063 -2.3195
12030TIP3   OH257504   0.417   1.071  11.167 -0.0173 -0.4336  0.2804
12030TIP3    H157505   0.327   1.079  11.136 -0.1063 -0.8554  0.4232
12030TIP3    H257506   0.470   1.112  11.098 -0.0704 -2.8654 -1.2696
12031TIP3   OH257507   6.383   1.189  10.709 -0.3489  0.1119 -0.1904
12031TIP3    H157508   6.405   1.158  10.797  1.0261  0.8058 -0.2779
12031TIP3    H257509   6.349   1.112  10.664  1.5376 -0.9050  0.0829
12032TIP3   OH257510   3.772   2.781  13.671  0.5069  0.3747  0.4556
12032TIP3    H157511   3.729   2.766  13.586  0.1392 -0.8894  0.8604
12032TIP3    H257512   3.865   2.789  13.649  0.3946  0.2384 -0.0878
12033TIP3   OH257513   2.441   5.627   2.028  0.3355  0.3819  0.4671
12033TIP3    H157514   2.483   5.655   2.109  0.8142  1.5638 -0.1623
12033TIP3    H257515   2.485   5.546   2.005  1.0318  0.6648  0.7731
12034TIP3   OH257516   4.508   2.769   3.262 -0.1992 -0.2769 -0.3706
12034TIP3    H157517   4.441   2.836   3.249 -0.6062 -0.3442  1.2649
12034TIP3    H257518   4.565   2.777   3.185 -1.2318  0.7666 -1.0515
12035TIP3   OH257519   5.673   0.068   3.419  0.0309 -1.0815 -0.0310
12035TIP3    H157520   5.589   0.112   3.434  0.9082  0.2231  1.0648
12035TIP3    H257521   5.718   0.071   3.503  1.7301 -0.6270 -0.9344
12036TIP3   OH257522   6.439   2.662   1.861 -0.3548 -0.8496 -0.0232
12036TIP3    H157523   6.501   2.669   1.788  0.6437 -1.7076  0.7178
12036TIP3    H257524   6.356   2.693   1.826  0.5317  0.4375 -1.0043
12037TIP3   OH257525   0.936   2.643   5.979  0.7285  0.8578  0.1225
12037TIP3    H157526   0.981   2.630   5.895  0.4864  1.5495 -0.1140
12037TIP3    H257527   1.000   2.690   6.032  1.3942 -0.7685  0.7904
12038TIP3   OH257528   1.746   3.361  11.529 -0.1076 -0.6582  0.4272
12038TIP3    H157529   1.687   3.374  11.455 -0.6083  0.5007  1.0286
12038TIP3    H257530   1.811   3.297  11.497  0.5607  0.9523 -1.5132
12039TIP3   OH257531   0.748   6.248   0.806  0.0503 -0.2842 -0.2440
12039TIP3    H157532   0.741   6.249   0.711  2.2647 -0.4879 -0.4263
12039TIP3    H257533   0.748   6.340   0.831 -0.6942 -0.2324 -0.4080
12040TIP3   OH257534   1.952   0.379  16.727 -0.0955 -0.1687  0.1975
12040TIP3    H157535   1.947   0.284  16.712 -1.3399  0.0706 -1.0500
12040TIP3    H257536   1.867   0.401  16.767  0.1849  0.4231  0.4730
12041TIP3   OH257537   3.989   3.722  13.846 -0.2592  0.4027 -0.0957
12041TIP3    H157538   3.939   3.775  13.783 -1.1510  0.7063  0.8404
12041TIP3    H257539   3.936   3.724  13.926 -0.2722 -1.8426 -0.0079
12042TIP3   OH257540   0.674   4.330   3.377 -0.6703 -0.3486  0.1284
12042TIP3    H157541   0.613   4.404   3.377 -0.3389 -0.0745 -0.4892
12042TIP3    H257542   0.704   4.324   3.468  1.1482  1.8026 -0.3062
12043TIP3   OH257543   6.404   3.083   0.767  0.4074 -0.3018 -0.2652
12043TIP3    H157544   6.347   3.133   0.826  2.2550  0.9820  0.4657
12043TIP3    H257545   6.348   3.061   0.692 -1.1257  0.6545  0.5709
12044TIP3   OH257546   1.710   0.311  15.996 -0.1780 -0.2834 -0.3376
12044TIP3    H157547   1.699   0.406  15.998  1.0274 -0.1402 -0.0707
12044TIP3    H257548   1.659   0.283  15.919  0.6037  0.7407 -1.2510
12045TIP3   OH257549   2.376   5.876   3.422  0.5174 -0.1727  0.3107
12045TIP3    H157550   2.376   5.821   3.344  2.1444 -1.2708  1.0353
12045TIP3    H257551   2.431   5.951   3.399  1.0233 -0.5116  0.3978
12046TIP3   OH257552   2.792   4.001   4.983 -0.5580 -0.3561  0.5949
12046TIP3    H157553   2.828   3.951   4.910 -1.5095 -2.0200  1.2440
12046TIP3    H257554   2.868   4.036   5.028  0.0845 -0.4244 -0.4123
12047TIP3   OH257555   4.979   0.054  14.731 -0.6641  0.1984  0.6125
12047TIP3    H157556   4.951   0.054  14.822 -1.3397 -0.9291  0.4215
12047TIP3    H257557   4.966  -0.036  14.702  0.8891  0.2122 -0.1989
12048TIP3   OH257558   3.032   1.189  13.677  0.4474  0.0601 -0.2062
12048TIP3    H157559   3.028   1.150  13.764  0.0455  3.1649  1.2389
12048TIP3    H257560   3.125   1.205  13.661  0.3698  1.3828  0.5758
12049TIP3   OH257561   4.898   6.072   0.318 -1.0810 -0.1180 -0.1909
12049TIP3    H157562   4.957   6.001   0.293  0.4592  1.0676 -0.0021
12049TIP3    H257563   4.855   6.041   0.397  2.0373  0.4660  1.8195
12050TIP3   OH257564   3.532   2.033   5.375 -0.3457 -0.3462 -0.5327
12050TIP3    H157565   3.453   2.075   5.341  0.3982 -0.3088 -2.2688
12050TIP3    H257566   3.562   2.090   5.445  0.1072  1.5319 -2.2138
12051TIP3   OH257567   5.429   0.580  12.801 -0.1847 -0.4604 -0.3978
12051TIP3    H157568   5.483   0.532  12.738 -0.1552 -0.6127 -0.2582
12051TIP3    H257569   5.417   0.667  12.762  0.8565 -0.1488 -0.0328
12052TIP3   OH257570   0.979   5.092  11.948 -0.0796  0.3721 -0.0709
12052TIP3    H157571   1.007   5.143  12.024 -2.2022 -0.2172  1.1269
12052TIP3    H257572   1.061   5.064  11.907  1.0885  1.7324  1.2954
12053TIP3   OH257573   1.587   1.756   3.566 -0.0352 -0.1311 -0.1432
12053TIP3    H157574   1.568   1.737   3.658  1.5267 -1.8556 -0.1538
12053TIP3    H257575   1.512   1.720   3.519 -1.0966  1.2305  0.4818
12054TIP3   OH257576   6.174   5.783  16.734 -0.6174 -0.3560  0.0545
12054TIP3    H157577   6.208   5.871  16.714 -0.0195 -0.7916 -0.8882
12054TIP3    H257578   6.252   5.732  16.755 -0.7656 -1.1528 -1.2910
12055TIP3   OH257579   5.876   2.990   4.794  0.2295 -0.3800  0.4246
12055TIP3    H157580   5.848   2.929   4.861  1.7875 -1.0364  0.4946
12055TIP3    H257581   5.862   2.944   4.711 -0.7947  0.0727  0.3296
12056TIP3   OH257582   6.074   0.107  11.530 -0.1608  0.0736  0.0081
12056TIP3    H157583   6.009   0.097  11.461  0.0195 -0.1537 -0.1271
12056TIP3    H257584   6.147   0.052  11.503 -0.2894 -0.3975  0.6239
12057TIP3   OH257585   0.405   5.165   4.019  0.4767  0.8862  0.6901
12057TIP3    H157586   0.394   5.252   4.057  2.0383  1.3807  0.0378
12057TIP3    H257587   0.460   5.118   4.082 -4.0666 -1.1885  3.3549
12058TIP3   OH257588   1.616   1.520   2.895 -0.0716  0.3695 -0.5383
12058TIP3    H157589   1.535   1.533   2.846 -0.8415  0.5910  0.7620
12058TIP3    H257590   1.590   1.470   2.972  1.0358  0.4238 -0.1133
12059TIP3   OH257591   1.169   4.511   0.618  0.0521  0.2485 -0.2966
12059TIP3    H157592   1.087   4.539   0.578  0.0908 -0.3476 -0.8024
12059TIP3    H257593   1.231   4.580   0.596  0.6722 -1.1774 -3.3322
12060TIP3   OH257594   0.478   0.432   0.650  0.2399 -0.0662 -0.5090
12060TIP3    H157595   0.496   0.447   0.557 -0.5332  0.2900 -0.6058
12060TIP3    H257596   0.549   0.374   0.679  1.1492  0.7677 -1.0348
12061TIP3   OH257597   6.310   3.625  11.367  0.4308  0.0688 -0.2888
12061TIP3    H157598   6.290   3.593  11.279 -2.0314 -1.8631  0.9251
12061TIP3    H257599   6.239   3.684  11.389 -0.8017 -2.0295  1.6399
12062TIP3   OH257600   6.351   3.314   4.360  0.6125  0.1363  0.1689
12062TIP3    H157601   6.283   3.286   4.299  0.0354 -1.4408  1.5130
12062TIP3    H257602   6.336   3.408   4.370 -2.1728 -0.3976  1.3977
12063TIP3   OH257603   3.721   6.376   5.491 -0.0257  0.1509 -0.1603
12063TIP3    H157604   3.754   6.288   5.473  0.5003  0.3649 -0.2578
12063TIP3    H257605   3.781   6.412   5.557 -1.2038 -0.1649  1.1221
12064TIP3   OH257606   1.804   1.878   2.638 -0.3470 -0.5563  0.0939
12064TIP3    H157607   1.775   1.853   2.550  0.7022  0.9127 -0.6977
12064TIP3    H257608   1.899   1.884   2.631 -0.0737 -2.3337  1.8561
12065TIP3   OH257609   3.928   3.469  14.146  0.1164  0.5280 -0.6604
12065TIP3    H157610   3.836   3.461  14.121  0.0625  0.4921 -0.4454
12065TIP3    H257611   3.970   3.394  14.105 -0.2216 -0.3225  0.5522
12066TIP3   OH257612   5.773   4.073  16.165 -0.2308 -0.2913 -0.0416
12066TIP3    H157613   5.857   4.109  16.194  0.3873 -1.7313 -0.0029
12066TIP3    H257614   5.744   4.132  16.096  1.9164 -1.0621 -1.6335
12067TIP3   OH257615   3.808   5.725  12.147  0.4055  0.2568 -0.3769
12067TIP3    H157616   3.825   5.786  12.219  0.6351  1.7373 -1.6480
12067TIP3    H257617   3.844   5.769  12.070 -0.5066 -0.9618 -1.5223
12068TIP3   OH257618   0.411   6.073   0.354 -0.8852  0.1226  0.3939
12068TIP3    H157619   0.383   6.116   0.273 -1.0832 -1.6277 -0.4878
12068TIP3    H257620   0.466   6.000   0.325  0.8578  0.7853  1.9295
12069TIP3   OH257621   4.284   4.248  13.592  0.1932  0.7123 -0.1535
12069TIP3    H157622   4.197   4.263  13.552  0.3168 -0.5276 -0.9245
12069TIP3    H257623   4.333   4.202  13.524  1.6279  1.8112  0.1080
12070TIP3   OH257624   0.035   5.701  13.481  0.5284  0.5483  0.0724
12070TIP3    H157625   0.063   5.735  13.566  3.0493  1.6895 -1.1534
12070TIP3    H257626   0.075   5.614  13.475 -0.9482 -0.1767  0.7055
12071TIP3   OH257627   5.226   3.284  14.273 -0.3783  0.4177  0.1260
12071TIP3    H157628   5.158   3.273  14.340 -2.3518  0.6135 -1.7912
12071TIP3    H257629   5.192   3.235  14.197  1.7494  0.3102 -0.7811
12072TIP3   OH257630   2.147   6.033   3.550 -0.2328 -0.1420  0.5306
12072TIP3    H157631   2.166   5.982   3.471 -1.2514 -1.8132  1.3447
12072TIP3    H257632   2.078   6.093   3.524  1.4305  1.3482 -0.6152
12073TIP3   OH257633   3.451   2.538  12.013 -0.1368  0.2792 -0.2698
12073TIP3    H157634   3.521   2.555  11.950  0.8791 -1.3946  0.3841
12073TIP3    H257635   3.475   2.589  12.090  0.5101 -0.4990  0.0486
12074TIP3   OH257636   2.672   3.092  13.163 -0.1076 -0.7410 -0.2267
12074TIP3    H157637   2.605   3.160  13.156 -0.4373 -1.0653 -0.2383
12074TIP3    H257638   2.641   3.035  13.233 -0.4044 -1.5180 -0.9799
12075TIP3   OH257639   5.222   5.810  12.809 -0.2373  0.1613 -0.3704
12075TIP3    H157640   5.287   5.810  12.739 -0.1392  1.4396 -0.2772
12075TIP3    H257641   5.269   5.840  12.887 -0.2868 -1.4786  0.3187
12076TIP3   OH257642   4.732   2.552   1.327 -0.2043  0.2843 -0.4892
12076TIP3    H157643   4.700   2.620   1.387 -1.0290 -1.6944  1.3743
12076TIP3    H257644   4.747   2.598   1.244 -0.6679  2.7410  0.7556
12077TIP3   OH257645   4.141   6.107  14.424  0.2236 -0.4197 -0.2276
12077TIP3    H157646   4.110   6.054  14.350 -0.5357 -0.7760  0.3474
12077TIP3    H257647   4.100   6.068  14.501  0.3506  0.4704  0.2971
12078TIP3   OH257648   2.775   1.980  12.979  0.2251 -0.6556  0.1549
12078TIP3    H157649   2.724   1.901  13.001  0.0055  0.0628  2.3742
12078TIP3    H257650   2.712   2.039  12.939 -0.1849 -0.6609  0.7824
12079TIP3   OH257651   3.525   4.569  13.147 -0.1084  0.8620  0.3906
12079TIP3    H157652   3.580   4.545  13.072 -0.9947  0.4970 -0.1475
12079TIP3    H257653   3.573   4.535  13.223  1.2167  1.9795  0.0670
12080TIP3   OH257654   5.619   5.698  16.336  0.1147 -0.1084  0.3107
12080TIP3    H157655   5.679   5.741  16.275 -2.0611  0.5131 -1.4680
12080TIP3    H257656   5.675   5.646  16.392  2.4066  1.3047 -0.6034
12081TIP3   OH257657   4.791   2.590   0.360 -0.5941  0.1132  0.5103
12081TIP3    H157658   4.766   2.498   0.348 -1.2896  0.3352  0.2001
12081TIP3    H257659   4.778   2.606   0.454 -0.4489 -0.1104  0.5693
12082TIP3   OH257660   6.115   0.981  15.011  0.2741  0.5045 -0.1443
12082TIP3    H157661   6.202   0.945  15.029 -0.0004 -0.1680 -0.1551
12082TIP3    H257662   6.071   0.914  14.958 -1.0265 -0.1444  1.7068
12083TIP3   OH257663   3.386   0.032   4.411 -0.2255 -0.2040  0.7860
12083TIP3    H157664   3.380  -0.024   4.333  2.1040 -0.9669  1.1094
12083TIP3    H257665   3.400  -0.030   4.483 -1.3512  0.5622  1.6706
12084TIP3   OH257666   4.122   4.653   5.709  0.6572  0.0791  0.1888
12084TIP3    H157667   4.119   4.690   5.621 -1.3125 -1.1978 -0.3124
12084TIP3    H257668   4.110   4.728   5.767  1.9963  0.9311 -0.6248
12085TIP3   OH257669   3.970   5.035  13.316  0.1700  0.1981  0.3700
12085TIP3    H157670   3.885   4.993  13.305 -0.1573  1.2132 -1.0613
12085TIP3    H257671   4.013   5.024  13.232  1.1268  0.4355  0.8239
12086TIP3   OH257672   1.730   3.838   4.243 -0.4697 -0.5297  0.1029
12086TIP3    H157673   1.642   3.807   4.263 -0.3646 -0.5794  0.5028
12086TIP3    H257674   1.785   3.800   4.312 -0.3966  0.8777  0.8260
12087TIP3   OH257675   6.106   4.797  11.147  0.1121  0.0914 -0.4865
12087TIP3    H157676   6.013   4.813  11.133 -0.1603 -1.3227 -0.3058
12087TIP3    H257677   6.147   4.819  11.063 -0.7604 -2.2184 -1.5521
12088TIP3   OH257678   6.778   5.373   4.577  0.3229  0.1181 -0.3236
12088TIP3    H157679   6.777   5.394   4.484 -1.5277 -1.1576 -0.6091
12088TIP3    H257680   6.711   5.430   4.615  1.3652  0.9398  0.3228
12089TIP3   OH257681   2.744   4.514   3.145 -0.4051 -0.1714  0.0431
12089TIP3    H157682   2.777   4.604   3.136 -4.3952  1.5249  1.1652
12089TIP3    H257683   2.776   4.487   3.231  0.6124  0.2537 -0.1874
12090TIP3   OH257684   4.823   3.437  12.586  0.5079  0.4337  0.0472
12090TIP3    H157685   4.796   3.380  12.514  1.8299  0.1431 -0.2194
12090TIP3    H257686   4.767   3.514  12.577  0.9035  0.5554 -1.5131
12091TIP3   OH257687   2.354   2.850  15.733  0.4237  0.3031 -0.2033
12091TIP3    H157688   2.335   2.934  15.692  1.5265  0.2155 -0.9000
12091TIP3    H257689   2.345   2.867  15.827  2.7170  1.7340 -0.2205
12092TIP3   OH257690   1.831   1.300  13.028  0.0678  0.0399 -0.1366
12092TIP3    H157691   1.817   1.371  13.091  2.4543  2.1597 -1.8974
12092TIP3    H257692   1.788   1.330  12.948  0.7029 -0.7071 -0.7614
12093TIP3   OH257693   0.676   5.677  15.109 -0.0044 -0.9151  0.1554
12093TIP3    H157694   0.626   5.657  15.031 -0.2029 -0.9055  0.2800
12093TIP3    H257695   0.667   5.600  15.165 -3.1260  0.5568  1.8547
12094TIP3   OH257696   3.889   4.925   1.859 -0.0394 -0.2645 -0.3359
12094TIP3    H157697   3.883   4.899   1.951 -1.1664 -2.1220 -0.9008
12094TIP3    H257698   3.938   5.007   1.860  1.7145 -1.3030  1.7233
12095TIP3   OH257699   4.630   1.685   1.639  0.2986  0.2263  0.0686
12095TIP3    H157700   4.658   1.722   1.555 -0.9504  0.3882 -0.2956
12095TIP3    H257701   4.540   1.654   1.622 -0.2685  1.0173  1.5794
12096TIP3   OH257702   4.271   2.472   5.465  0.3988  0.0322  0.7970
12096TIP3    H157703   4.264   2.524   5.545  0.8527 -0.7683  1.3639
12096TIP3    H257704   4.344   2.413   5.481  0.1548 -0.4961 -0.0091
12097TIP3   OH257705   0.520   3.807  12.977  0.0717 -0.2643 -0.3794
12097TIP3    H157706   0.445   3.757  13.010  1.0171 -2.2268 -1.1415
12097TIP3    H257707   0.536   3.771  12.890  1.7923  0.2395 -0.2823
12098TIP3   OH257708   3.675   6.009   5.838 -0.5724  0.4415  0.4243
12098TIP3    H157709   3.759   6.041   5.872 -1.0756  0.5567  1.5812
12098TIP3    H257710   3.620   5.998   5.916 -0.6624 -2.5331  0.0168
12099TIP3   OH257711   0.036   2.552   3.739  0.0523  0.0918  0.2983
12099TIP3    H157712   0.082   2.595   3.667 -2.7782 -0.3134 -1.8244
12099TIP3    H257713  -0.021   2.619   3.775 -1.6590 -0.8091 -0.6430
12100TIP3   OH257714   1.566   1.488   3.689 -0.2233  0.4128  0.2916
12100TIP3    H157715   1.582   1.524   3.776  2.1527  0.4195 -0.1094
12100TIP3    H257716   1.474   1.463   3.689 -1.0075  3.1908  1.7730
12101TIP3   OH257717   0.627   4.499  14.665 -0.3899  0.1147 -0.0057
12101TIP3    H157718   0.551   4.445  14.691 -0.5520 -0.2002 -1.1156
12101TIP3    H257719   0.696   4.473  14.726 -1.0910  0.1831  0.8251
12102TIP3   OH257720   3.746   0.325   0.676  0.0964  0.3825  0.0074
12102TIP3    H157721   3.660   0.351   0.644 -0.3239 -2.0055 -0.9433
12102TIP3    H257722   3.734   0.314   0.770 -1.0950 -1.4516 -0.3258
12103TIP3   OH257723   1.716   2.967  14.236 -0.2715 -0.9097 -0.0959
12103TIP3    H157724   1.793   3.020  14.215 -0.6203 -0.7407 -0.9629
12103TIP3    H257725   1.642   3.018  14.202 -0.5636 -2.1990 -1.4311
12104TIP3   OH257726   6.229   2.544  15.253  0.0755 -0.1620 -0.1001
12104TIP3    H157727   6.193   2.519  15.167 -1.4874 -0.5844  0.6542
12104TIP3    H257728   6.174   2.498  15.316  0.4127  1.1502  1.1739
12105TIP3   OH257729   1.953   3.175  11.648  0.0219 -0.0169 -0.2974
12105TIP3    H157730   2.042   3.167  11.683 -1.6529 -0.8246  4.0116
12105TIP3    H257731   1.940   3.096  11.596  2.0559  0.5223 -1.7079
12106TIP3   OH257732   5.451   3.003   4.608 -0.0353  0.1395 -0.3766
12106TIP3    H157733   5.376   3.035   4.557  0.3205  2.1415  0.3001
12106TIP3    H257734   5.513   2.972   4.542 -0.6827  0.2190 -1.0322
12107TIP3   OH257735   5.972   0.055  16.613  0.1144 -0.0390 -1.1215
12107TIP3    H157736   5.927   0.095  16.539  4.2025 -0.5916 -4.0800
12107TIP3    H257737   5.996  -0.032  16.581  2.1165 -0.2119  0.7977
12108TIP3   OH257738   3.667   3.821   0.638 -0.0471 -0.2066 -0.3136
12108TIP3    H157739   3.673   3.733   0.601  1.3823  0.3707 -1.5084
12108TIP3    H257740   3.740   3.826   0.699 -0.9463 -0.3051  0.7879
12109TIP3   OH257741   4.135   2.941  16.065 -0.4252 -0.3384 -0.1255
12109TIP3    H157742   4.147   2.980  15.978  0.8616  1.1189  0.6822
12109TIP3    H257743   4.058   2.985  16.100 -0.2595 -0.0930 -0.0707
12110TIP3   OH257744   0.171   1.609  12.778  0.1475  0.2203  0.1799
12110TIP3    H157745   0.083   1.634  12.807  0.3525  0.6115  0.4588
12110TIP3    H257746   0.225   1.685  12.798  0.8454 -0.5885  1.3842
12111TIP3   OH257747   4.558   3.683   1.136  0.2142 -0.1893  0.1965
12111TIP3    H157748   4.469   3.678   1.169  0.6717 -1.4796  1.2955
12111TIP3    H257749   4.613   3.684   1.215  1.1439  1.7003 -0.4341
12112TIP3   OH257750   6.370   4.643   3.817 -0.1786  0.0062  0.3825
12112TIP3    H157751   6.320   4.725   3.819 -1.6482 -0.8851  0.8170
12112TIP3    H257752   6.374   4.620   3.724  1.4079  1.2609  0.1202
12113TIP3   OH257753   4.326   4.681  15.154  0.5353 -0.1003 -0.2637
12113TIP3    H157754   4.357   4.593  15.130  0.7278 -0.1721  0.2484
12113TIP3    H257755   4.397   4.739  15.129  0.7886 -0.1885  0.2393
12114TIP3   OH257756   5.459   4.861   4.039 -0.0362 -0.2120 -0.1814
12114TIP3    H157757   5.419   4.791   4.090 -0.4880 -2.6353 -3.6774
12114TIP3    H257758   5.522   4.816   3.983  0.0459  2.2466 -2.1313
12115TIP3   OH257759   0.118   3.476  12.579  0.3099  0.1206  0.0911
12115TIP3    H157760   0.161   3.407  12.629 -1.3430  0.4130  1.9838
12115TIP3    H257761   0.079   3.431  12.504 -0.0658 -0.8863  0.8782
12116TIP3   OH257762   5.072   4.353  16.964 -0.7970 -0.6096  0.6847
12116TIP3    H157763   5.073   4.268  17.008 -2.5050 -0.5021  0.9579
12116TIP3    H257764   4.993   4.396  16.997 -0.7176  0.5005 -0.5494
12117TIP3   OH257765   5.154   6.597  11.089  0.4170 -0.0873 -0.1486
12117TIP3    H157766   5.066   6.593  11.052 -0.4017  1.8390  1.5265
12117TIP3    H257767   5.162   6.516  11.140  0.1917 -0.9642 -1.4500
12118TIP3   OH257768   0.203   3.959  16.890  0.1852 -0.2204  0.1614
12118TIP3    H157769   0.133   3.998  16.838  3.5957  1.7884 -3.1551
12118TIP3    H257770   0.232   3.884  16.837  0.1584 -1.4401  1.8353
12119TIP3   OH257771   0.103   6.212  15.450 -0.0213 -0.1603 -0.0942
12119TIP3    H157772   0.066   6.127  15.424  1.7149 -1.2431  0.8894
12119TIP3    H257773   0.084   6.218  15.544 -1.3107  1.1847 -0.4079
12120TIP3   OH257774   0.176   1.595   3.236  0.7679 -0.9914 -0.5377
12120TIP3    H157775   0.225   1.587   3.318  0.3530 -1.9562 -0.3625
12120TIP3    H257776   0.136   1.508   3.225 -0.6955 -0.2970 -0.7818
12121TIP3   OH257777   2.171   3.116  13.277 -0.8208 -0.2198  0.0373
12121TIP3    H157778   2.191   3.127  13.370  0.0713  0.7725 -0.2582
12121TIP3    H257779   2.188   3.024  13.259 -0.0115 -0.1904  0.6265
12122TIP3   OH257780   3.220   4.363  12.148 -0.1428  0.1161 -0.0872
12122TIP3    H157781   3.235   4.380  12.055 -0.1810  1.6411  0.1701
12122TIP3    H257782   3.297   4.314  12.176  1.0617  1.8207 -0.3666
12123TIP3   OH257783   0.590   3.265   0.024 -0.3205 -0.1315  0.5190
12123TIP3    H157784   0.558   3.298   0.108 -0.9480  1.3777 -0.3175
12123TIP3    H257785   0.686   3.272   0.032 -0.3806  0.1773  1.0334
12124TIP3   OH257786   0.910   1.640   4.010  0.1510  0.1918  0.7018
12124TIP3    H157787   0.880   1.685   3.931  0.4060 -0.3110  0.3153
12124TIP3    H257788   0.976   1.698   4.048  1.1775 -0.2952 -0.3152
12125TIP3   OH257789   2.567   2.421   1.228  0.6871  1.0317  0.6122
12125TIP3    H157790   2.624   2.438   1.153  1.0358  0.3976  0.7305
12125TIP3    H257791   2.590   2.489   1.291  0.4193  1.5469  0.1646
12126TIP3   OH257792   2.043   2.945  14.454 -0.0439  0.0179 -0.0505
12126TIP3    H157793   2.004   2.858  14.446 -2.2200  0.8941  0.7646
12126TIP3    H257794   2.021   2.973  14.543  2.3993  0.5874  0.4204
12127TIP3   OH257795   4.764   4.972  14.560  0.2655 -0.4120 -0.2154
12127TIP3    H157796   4.825   4.974  14.633  1.1296  2.9726 -0.9528
12127TIP3    H257797   4.710   5.050  14.572 -0.4792 -0.5539 -2.4427
12128TIP3   OH257798   4.476   3.096   5.484 -0.4028 -0.3214 -0.0786
12128TIP3    H157799   4.527   3.142   5.550 -2.5249 -0.2620  1.5718
12128TIP3    H257800   4.514   3.008   5.481  2.5525  0.9609 -2.0137
12129TIP3   OH257801   1.061   2.822   4.398  0.3139  0.2374 -0.0260
12129TIP3    H157802   1.064   2.736   4.441 -1.4110  0.6580  0.9917
12129TIP3    H257803   1.022   2.804   4.312 -1.2354  0.1698  0.6734
12130TIP3   OH257804   0.495   4.242  15.780  0.7804  0.2010  0.1696
12130TIP3    H157805   0.448   4.167  15.817  0.1202 -0.9831 -2.8559
12130TIP3    H257806   0.558   4.204  15.719  2.0164  2.0217  0.2589
12131TIP3   OH257807   2.029   3.239   0.048  0.5110  0.2271 -0.4083
12131TIP3    H157808   1.991   3.327   0.040  0.5240  0.2151 -0.5987
12131TIP3    H257809   1.958   3.180   0.022 -0.0387  0.0964  1.3258
12132TIP3   OH257810   2.530   6.498  15.946  0.3555 -0.9277 -0.1780
12132TIP3    H157811   2.539   6.403  15.955  0.4921 -0.9886 -0.8839
12132TIP3    H257812   2.483   6.525  16.025  0.1137 -1.6142 -0.0759
12133TIP3   OH257813   3.929   5.623   2.337 -0.3388 -0.0123 -0.3371
12133TIP3    H157814   3.901   5.566   2.266  0.1936 -1.0367  0.2529
12133TIP3    H257815   3.967   5.563   2.402  0.2753  1.0163  0.2727
12134TIP3   OH257816   0.205   5.962   3.088 -0.1855 -0.0142  0.5539
12134TIP3    H157817   0.264   5.905   3.138 -0.7668 -0.7867  0.3560
12134TIP3    H257818   0.228   6.050   3.118  0.8611 -0.3257  0.7087
12135TIP3   OH257819   3.654   5.744   2.602  0.0532  0.3047  0.7584
12135TIP3    H157820   3.651   5.661   2.648  0.1169  0.9791  1.9989
12135TIP3    H257821   3.742   5.778   2.618  0.4965 -0.0334 -0.9018
12136TIP3   OH257822   2.130   2.947   4.146  0.5021  0.0001  0.4704
12136TIP3    H157823   2.155   3.020   4.090  1.7602  0.6234  1.8213
12136TIP3    H257824   2.194   2.879   4.128  0.2436 -0.2152  0.3494
12137TIP3   OH257825   5.776   5.251   0.361  0.2826  0.1658 -0.1023
12137TIP3    H157826   5.844   5.316   0.343  0.8850 -0.2202  0.7625
12137TIP3    H257827   5.694   5.295   0.339  0.8513  0.4268 -1.7233
12138TIP3   OH257828   2.932   3.284   2.551  0.4895  0.2033  0.1864
12138TIP3    H157829   2.902   3.199   2.585  1.2230 -0.2984 -0.3959
12138TIP3    H257830   3.027   3.282   2.564  0.5698  0.7017 -0.3530
12139TIP3   OH257831   1.515   5.386  11.601 -0.2585 -0.3994 -0.1521
12139TIP3    H157832   1.436   5.431  11.570 -0.4514 -0.8144 -0.2693
12139TIP3    H257833   1.504   5.380  11.696  0.1377  0.5056 -0.0508
12140TIP3   OH257834   5.932   5.227  16.788  0.1707  0.1277 -0.1651
12140TIP3    H157835   5.938   5.149  16.843  0.5502 -0.7964 -1.4912
12140TIP3    H257836   5.843   5.259  16.799  0.2319 -0.0737  0.9419
12141TIP3   OH257837   6.070   4.952   4.681 -0.3472 -0.1557  0.3603
12141TIP3    H157838   6.119   4.976   4.760  1.5395  0.0011 -0.8380
12141TIP3    H257839   6.085   5.024   4.620 -1.9112 -0.2105 -0.1091
12142TIP3   OH257840   1.743   2.338   5.071  0.4122  0.5085 -0.4282
12142TIP3    H157841   1.738   2.318   5.164  0.3943 -2.1548 -0.9396
12142TIP3    H257842   1.834   2.365   5.057  0.7155 -0.1616  0.1933
12143TIP3   OH257843   2.672   0.493   4.334  0.1486  0.5441 -0.3668
12143TIP3    H157844   2.678   0.511   4.241  0.6604  1.3103 -0.1909
12143TIP3    H257845   2.579   0.502   4.354  0.1344  1.0902 -0.6646
12144TIP3   OH257846   4.947   2.295  17.024  0.9356  0.4464  0.1651
12144TIP3    H157847   5.016   2.294  17.090  1.1850 -0.6708 -0.1060
12144TIP3    H257848   4.991   2.322  16.943  0.9114  0.4268  0.1456
12145TIP3   OH257849   0.065   2.423  16.568 -0.3686 -0.3377  0.1810
12145TIP3    H157850   0.054   2.328  16.563 -2.2872 -0.0807 -0.9131
12145TIP3    H257851  -0.008   2.453  16.622 -0.2710  0.6030 -0.2037
12146TIP3   OH257852   2.951   4.489  12.042 -0.3338  0.2274  0.0633
12146TIP3    H157853   2.865   4.528  12.029 -0.4140 -0.1380 -0.5296
12146TIP3    H257854   2.969   4.441  11.961 -0.0134 -0.5416  0.5729
12147TIP3   OH257855   0.434   5.356  10.230  0.5966 -0.3358 -0.6009
12147TIP3    H157856   0.486   5.436  10.221 -1.2656  1.0336  0.4427
12147TIP3    H257857   0.344   5.386  10.241 -0.3572 -2.6407 -1.7012
12148TIP3   OH257858   3.322   0.873   6.260  0.7633  0.1686 -0.3188
12148TIP3    H157859   3.396   0.875   6.320  0.2776 -0.5694  0.3274
12148TIP3    H257860   3.319   0.782   6.229  0.2908  0.2576 -0.5402
12149TIP3   OH257861   5.873   1.096   1.067 -0.2231  0.3294  0.2344
12149TIP3    H157862   5.884   1.177   1.117  0.3612 -0.4102  1.3272
12149TIP3    H257863   5.783   1.070   1.085  0.2429 -0.3937  1.6423
12150TIP3   OH257864   1.196   5.566   2.404 -0.1880  0.4180  0.0351
12150TIP3    H157865   1.182   5.604   2.317 -1.3073 -0.1948 -0.0750
12150TIP3    H257866   1.120   5.594   2.455 -0.7655 -1.2057  0.1008
12151TIP3   OH257867   6.256   0.371  14.543 -0.4884 -0.4439  0.4472
12151TIP3    H157868   6.208   0.406  14.467 -0.2018 -0.4460  0.2647
12151TIP3    H257869   6.348   0.378  14.517 -0.3954 -0.5112  0.7705
12152TIP3   OH257870   1.432   3.449   1.435  0.5339 -0.1197 -0.3744
12152TIP3    H157871   1.351   3.440   1.486  0.7545 -1.2942 -0.2172
12152TIP3    H257872   1.435   3.542   1.412 -0.1066  0.2270  0.8598
12153TIP3   OH257873   0.275   3.159  16.949  0.6621 -0.0097  0.2995
12153TIP3    H157874   0.258   3.086  17.007  0.4133  0.5230  0.9044
12153TIP3    H257875   0.331   3.123  16.880 -0.3125 -1.0127  0.0258
12154TIP3   OH257876   1.396   1.054  12.484  0.1704 -0.1195 -0.2557
12154TIP3    H157877   1.382   0.966  12.448  1.3314 -0.6337  0.5320
12154TIP3    H257878   1.438   1.102  12.414  0.9879 -0.6604 -0.1413
12155TIP3   OH257879   5.971   1.171   0.243 -0.2012  0.1233  0.1137
12155TIP3    H157880   6.054   1.124   0.233  0.2507  1.2176 -1.4087
12155TIP3    H257881   5.940   1.146   0.330  1.3334 -0.9189  0.3829
12156TIP3   OH257882   6.503   1.172  11.359 -0.3275  0.8251  0.2585
12156TIP3    H157883   6.520   1.078  11.347  1.1828  1.2283 -0.8655
12156TIP3    H257884   6.408   1.180  11.352 -0.3238 -0.3750 -1.5013
12157TIP3   OH257885   5.606   5.339   6.128  0.6774 -0.0753 -0.3211
12157TIP3    H157886   5.683   5.285   6.111  0.5643  0.1376 -1.5650
12157TIP3    H257887   5.639   5.428   6.136  0.7834 -0.2383  1.0464
12158TIP3   OH257888   6.031   4.573  13.017 -0.1413  0.0112 -0.3367
12158TIP3    H157889   5.960   4.609  13.071 -0.7664 -1.2399 -0.2952
12158TIP3    H257890   6.023   4.478  13.028  1.7229 -0.1274 -0.1283
12159TIP3   OH257891   3.314   5.152  14.363  0.0450  0.1167  0.5276
12159TIP3    H157892   3.227   5.135  14.328  0.0063  0.4518  0.4640
12159TIP3    H257893   3.374   5.121  14.296 -0.0205 -0.5860  0.7867
12160TIP3   OH257894   5.158   2.846   2.379  0.2746  0.8560  0.3266
12160TIP3    H157895   5.190   2.759   2.401  0.6109  1.2182  1.2608
12160TIP3    H257896   5.198   2.865   2.293  0.0642  0.0296  0.0456
12161TIP3   OH257897   1.432   4.307   1.288 -0.1744 -0.3728 -0.1111
12161TIP3    H157898   1.525   4.322   1.301 -0.2718  3.1156 -2.8699
12161TIP3    H257899   1.391   4.335   1.369  0.8880  1.4981 -0.2167
12162TIP3   OH257900   2.952   3.576   2.242 -0.2776 -0.2627 -0.5236
12162TIP3    H157901   2.918   3.552   2.156  0.7138 -0.0657 -0.9767
12162TIP3    H257902   3.044   3.552   2.239 -0.2171 -0.1928  0.4638
12163TIP3   OH257903   1.322   3.130   1.794  0.6804  0.0335 -0.7611
12163TIP3    H157904   1.321   3.035   1.790 -0.1599 -0.0018  0.1703
12163TIP3    H257905   1.391   3.151   1.856 -1.2001 -0.0865  1.4607
12164TIP3   OH257906   4.686   6.286   0.281  0.1194 -0.4965  0.8000
12164TIP3    H157907   4.643   6.358   0.329  1.1323  0.1842  0.7091
12164TIP3    H257908   4.774   6.282   0.319  0.4821 -0.8529 -0.0770
12165TIP3   OH257909   5.472   6.706  15.953  0.3128 -0.0394  0.2206
12165TIP3    H157910   5.383   6.742  15.952  0.6404  0.7763  0.3407
12165TIP3    H257911   5.529   6.782  15.964  1.0398 -0.5406 -0.0314
12166TIP3   OH257912   0.010   2.968  15.658  0.8107 -0.0584  0.2359
12166TIP3    H157913   0.042   2.998  15.743 -0.2287 -1.1499  1.0338
12166TIP3    H257914  -0.065   2.913  15.679  0.4427 -0.2121 -1.4072
12167TIP3   OH257915   4.723   3.235  14.949  0.4564  0.0529 -0.3953
12167TIP3    H157916   4.724   3.269  15.038  0.3746 -1.4713  0.2161
12167TIP3    H257917   4.647   3.274  14.908  1.4269  2.0555 -0.3226
12168TIP3   OH257918   0.941   1.373   1.208 -0.0141 -0.4085  0.7922
12168TIP3    H157919   0.897   1.292   1.181  1.6945 -1.2979  0.6015
12168TIP3    H257920   0.906   1.391   1.295 -1.7745 -0.3403  0.0758
12169TIP3   OH257921   1.817   2.764   0.370  0.0890 -0.1194  0.3776
12169TIP3    H157922   1.797   2.764   0.463 -0.0223  0.5932  0.3581
12169TIP3    H257923   1.910   2.789   0.366  0.5387 -1.7128  0.3758
12170TIP3   OH257924   1.607   0.387   5.853 -0.4191 -0.2859  0.7541
12170TIP3    H157925   1.537   0.337   5.895 -1.3831 -1.6823 -2.3290
12170TIP3    H257926   1.562   0.444   5.791  1.0190  0.7694  0.6599
12171TIP3   OH257927   2.568   2.522  15.088  0.2525 -0.4013 -0.3860
12171TIP3    H157928   2.623   2.445  15.103  0.8470 -0.0325 -0.6697
12171TIP3    H257929   2.484   2.499  15.129  1.0493 -0.4122  1.2894
12172TIP3   OH257930   5.266   1.105   5.833 -0.3110 -0.1765 -0.1887
12172TIP3    H157931   5.268   1.189   5.787 -0.4060 -0.6270 -1.0178
12172TIP3    H257932   5.343   1.107   5.890 -0.2210  0.4038 -0.3346
12173TIP3   OH257933   5.905   5.486  14.855 -0.2577 -0.3405  0.1353
12173TIP3    H157934   5.824   5.536  14.844 -0.9141 -1.7469 -1.5861
12173TIP3    H257935   5.875   5.398  14.879  0.8249 -0.4296  1.1894
12174TIP3   OH257936   2.447   4.592   2.474  0.3656  0.5432 -0.2782
12174TIP3    H157937   2.509   4.664   2.473  0.8076  0.1652 -0.0917
12174TIP3    H257938   2.369   4.626   2.429  0.0699  1.5745  1.0140
12175TIP3   OH257939   0.310   3.364   2.465 -0.2484 -0.6170 -0.5264
12175TIP3    H157940   0.300   3.420   2.541 -0.0155 -1.3812  0.0749
12175TIP3    H257941   0.313   3.424   2.390 -0.3353  0.1385  0.0759
12176TIP3   OH257942   6.147   5.786   1.806  0.1553  0.2302  0.1233
12176TIP3    H157943   6.075   5.849   1.810  0.1126  0.2555 -0.9170
12176TIP3    H257944   6.192   5.806   1.724  0.0330 -1.2094 -0.3147
12177TIP3   OH257945   3.856   5.986  12.536 -0.0121  0.3897 -0.1318
12177TIP3    H157946   3.866   6.074  12.500 -0.4943 -0.0607 -1.3793
12177TIP3    H257947   3.859   5.928  12.460  3.0350 -0.9128  0.8947
12178TIP3   OH257948   3.832   6.672  10.664 -0.4362  0.7007  0.8977
12178TIP3    H157949   3.839   6.701  10.755 -0.3205  1.4914  0.6396
12178TIP3    H257950   3.912   6.703  10.622 -0.1796 -0.2416  0.6813
12179TIP3   OH257951   1.191   0.059  16.198 -0.1640  0.1989  0.3841
12179TIP3    H157952   1.257   0.116  16.158  0.3947 -0.0807  0.8975
12179TIP3    H257953   1.114   0.115  16.210 -0.2199  0.3677 -0.7690
12180TIP3   OH257954   0.040   2.819   4.800  0.0783 -0.3707 -0.1362
12180TIP3    H157955  -0.005   2.784   4.723  1.3529 -1.6548 -0.3390
12180TIP3    H257956  -0.013   2.893   4.829 -1.7349 -1.4066 -0.7848
12181TIP3   OH257957   2.240   0.207   3.110 -0.1987  0.5741 -0.0036
12181TIP3    H157958   2.239   0.296   3.145 -1.2966  0.3094  0.6783
12181TIP3    H257959   2.194   0.155   3.176  1.5401 -0.7455  0.2314
12182TIP3   OH257960   4.908   2.963   5.919 -0.0702 -0.1375 -0.4268
12182TIP3    H157961   4.857   2.896   5.965  0.2025  0.2767  0.4896
12182TIP3    H257962   4.855   3.042   5.925 -0.2317 -0.1855 -1.2045
12183TIP3   OH257963   2.609   2.263   1.864 -0.5035 -0.5154 -0.3042
12183TIP3    H157964   2.531   2.310   1.894  0.0199  0.8629 -1.0665
12183TIP3    H257965   2.643   2.222   1.943 -0.9698  0.4034  0.3904
12184TIP3   OH257966   5.638   3.419   0.340 -0.1646  0.2888  0.1823
12184TIP3    H157967   5.572   3.392   0.276  0.3999  0.7433 -0.6088
12184TIP3    H257968   5.718   3.374   0.312 -0.4931 -1.5456  2.0817
12185TIP3   OH257969   3.727   2.451   4.186  0.0854  0.0143 -0.4342
12185TIP3    H157970   3.658   2.507   4.151 -0.7187  0.0830  1.2221
12185TIP3    H257971   3.786   2.436   4.112 -2.0412 -0.5920 -2.0276
12186TIP3   OH257972   1.676   1.464   3.419 -0.6007 -0.2707  0.0456
12186TIP3    H157973   1.767   1.491   3.428 -0.4627 -1.2435  2.1011
12186TIP3    H257974   1.639   1.478   3.506 -2.5278  0.4879 -0.8743
12187TIP3   OH257975   0.572   2.727   0.427 -0.1938  0.9082 -0.2675
12187TIP3    H157976   0.597   2.650   0.479 -1.1879  1.2079  0.6942
12187TIP3    H257977   0.533   2.690   0.348  1.3128  0.4416 -0.8104
12188TIP3   OH257978   0.307   6.504  13.736  0.1418  0.0050  0.3261
12188TIP3    H157979   0.264   6.581  13.699  0.8380  2.2856  4.0293
12188TIP3    H257980   0.239   6.436  13.738 -0.9782  1.0483 -1.3087
12189TIP3   OH257981   5.914   4.214  11.755 -0.3163 -0.0317  0.0808
12189TIP3    H157982   5.928   4.292  11.700  0.2874  0.3093  0.7067
12189TIP3    H257983   5.981   4.221  11.823 -2.3091  0.5954  2.0358
12190TIP3   OH257984   3.163   0.133  13.194 -0.4897  0.3068  0.2710
12190TIP3    H157985   3.257   0.117  13.204 -0.1035  1.9041 -0.7689
12190TIP3    H257986   3.133   0.062  13.137  0.8345  2.0020 -2.6245
12191TIP3   OH257987   1.642   6.528  12.943 -0.4377 -0.2615  0.0007
12191TIP3    H157988   1.549   6.549  12.937 -0.5845 -1.1852 -1.2378
12191TIP3    H257989   1.686   6.607  12.911 -0.8479 -0.3526 -0.8115
12192TIP3   OH257990   0.024   5.376  12.308 -0.7244  0.1707  0.0747
12192TIP3    H157991   0.010   5.307  12.242  0.1671  0.8733 -0.8539
12192TIP3    H257992  -0.056   5.374  12.361 -0.2860 -2.2731  0.7116
12193TIP3   OH257993   2.778   1.096   5.773  0.5718  0.5119  0.2483
12193TIP3    H157994   2.766   1.004   5.746  0.9659  1.0195 -1.7426
12193TIP3    H257995   2.835   1.091   5.849  0.6828 -0.9116  0.0936
12194TIP3   OH257996   0.265   2.506  11.946  0.0696  0.1421  0.2436
12194TIP3    H157997   0.242   2.540  11.860  1.9138  1.2248  0.1736
12194TIP3    H257998   0.212   2.558  12.007 -2.7642 -1.9767 -0.3091
12195TIP3   OH257999   4.806   3.130  12.070  0.3090  0.2407  0.0574
12195TIP3    H158000   4.853   3.205  12.034 -0.2284  0.8956  0.6786
12195TIP3    H258001   4.855   3.054  12.042 -0.1847  0.7149 -2.1660
12196TIP3   OH258002   4.283   0.390   4.867  0.0131  0.0874 -0.6639
12196TIP3    H158003   4.265   0.470   4.916  1.7904  0.6323 -0.8484
12196TIP3    H258004   4.254   0.319   4.925  0.2121  0.7966  0.3187
12197TIP3   OH258005   5.476   3.840   0.133 -0.3761  0.2156  0.5101
12197TIP3    H158006   5.540   3.796   0.190  0.4299 -0.2572 -0.7479
12197TIP3    H258007   5.479   3.932   0.159  1.0673  0.2520  0.2203
12198TIP3   OH258008   2.978   4.896   6.586 -0.3573  0.2621  0.3981
12198TIP3    H158009   2.913   4.944   6.637  0.7256  0.5546  1.5203
12198TIP3    H258010   3.056   4.951   6.589  0.0553 -0.2554 -0.6370
12199TIP3   OH258011   5.565   1.010   0.624  0.5579  0.4532 -0.2057
12199TIP3    H158012   5.619   1.088   0.615  1.0420  0.0133 -1.2858
12199TIP3    H258013   5.576   0.982   0.715 -0.1002  1.9795  0.3515
12200TIP3   OH258014   0.217   1.873   2.609 -0.8420 -0.3005 -0.1468
12200TIP3    H158015   0.277   1.847   2.538 -0.7521 -1.0927  0.2213
12200TIP3    H258016   0.247   1.961   2.633 -1.2296  0.2121 -1.4770
12201TIP3   OH258017   4.190   4.872  11.987 -0.0519 -0.0414 -0.0434
12201TIP3    H158018   4.154   4.885  12.075 -1.6032  1.5003 -0.8865
12201TIP3    H258019   4.114   4.872  11.929  1.1026  0.9742 -1.6039
12202TIP3   OH258020   4.807   1.424   0.478  0.0910  0.2833  0.4015
12202TIP3    H158021   4.718   1.391   0.477  0.0359  0.4241 -2.0064
12202TIP3    H258022   4.862   1.345   0.474 -0.0076  0.2847 -1.9726
12203TIP3   OH258023   1.650   2.324  15.651 -0.4887 -0.0148  0.7339
12203TIP3    H158024   1.641   2.240  15.697  1.5462  0.1719  1.5261
12203TIP3    H258025   1.596   2.385  15.702 -1.7886 -0.7662  0.2885
12204TIP3   OH258026   6.098   4.843  13.686  0.5938  0.1863 -0.2026
12204TIP3    H158027   6.120   4.758  13.724 -0.1941 -0.6986 -1.6609
12204TIP3    H258028   6.086   4.901  13.761  0.7435 -1.1001  0.8241
12205TIP3   OH258029   1.857   2.260   5.492  0.1251  0.5160 -0.0388
12205TIP3    H158030   1.858   2.325   5.562  1.3107 -0.3436  0.7572
12205TIP3    H258031   1.798   2.296   5.426 -2.9258  0.2697  2.4411
12206TIP3   OH258032   6.206   0.217   2.742 -0.5169 -0.4430  0.3577
12206TIP3    H158033   6.292   0.178   2.725 -0.4702 -1.0379  1.8790
12206TIP3    H258034   6.217   0.309   2.719  1.2900  0.0276  2.8092
12207TIP3   OH258035   2.169   4.445  11.250  1.1193 -0.1397 -0.0552
12207TIP3    H158036   2.199   4.496  11.325 -0.8507  0.0877  0.6086
12207TIP3    H258037   2.196   4.497  11.173  0.9294  0.8983  0.5631
12208TIP3   OH258038   5.223   1.274  14.250 -0.2117  0.0222  0.0390
12208TIP3    H158039   5.261   1.258  14.163 -2.2839  0.6967 -1.0231
12208TIP3    H258040   5.131   1.251  14.240 -0.4967  0.1987  2.0620
12209TIP3   OH258041   4.254   0.780  16.334  0.3685  0.4983  0.2169
12209TIP3    H158042   4.211   0.700  16.364  0.8541  1.1322  2.7268
12209TIP3    H258043   4.227   0.846  16.397 -0.2223  2.3987 -1.9623
12210TIP3   OH258044   5.342   1.414   1.281 -0.0831 -0.6467  0.1873
12210TIP3    H158045   5.396   1.455   1.349 -1.4822  0.7540  0.4759
12210TIP3    H258046   5.365   1.463   1.201 -0.1206 -0.7728  0.1001
12211TIP3   OH258047   5.241   0.983   5.277  0.5051 -0.4423  0.1047
12211TIP3    H158048   5.207   1.069   5.250  0.3926 -0.5258 -0.0165
12211TIP3    H258049   5.189   0.961   5.354  2.5946  1.0237  2.0280
12212TIP3   OH258050   5.617   0.701   1.204  0.3682  0.0795  0.2299
12212TIP3    H158051   5.583   0.611   1.208  0.6788 -0.0878 -0.7249
12212TIP3    H258052   5.541   0.755   1.184  0.5783 -0.2635 -1.6335
12213TIP3   OH258053   6.577   5.379   3.064  0.4127 -0.4194  0.0033
12213TIP3    H158054   6.602   5.406   3.152 -0.2934 -0.7047  0.2977
12213TIP3    H258055   6.644   5.416   3.007  1.0963 -0.5842  0.7035
12214TIP3   OH258056   3.126   2.386  12.156  0.7133 -0.6739  0.3269
12214TIP3    H158057   3.089   2.440  12.226 -0.9857 -0.0248 -1.0546
12214TIP3    H258058   3.101   2.297  12.178 -0.5584 -0.3743  0.0892
12215TIP3   OH258059   4.615   0.785   4.846 -0.4009  0.1057 -0.6435
12215TIP3    H158060   4.604   0.691   4.830 -0.7605  0.1297 -0.5476
12215TIP3    H258061   4.676   0.814   4.779  0.9169 -0.4990  0.2764
12216TIP3   OH258062   4.761   3.897  13.149 -0.0272 -0.2622  0.4849
12216TIP3    H158063   4.789   3.960  13.215 -0.9927  1.3725 -0.6392
12216TIP3    H258064   4.697   3.842  13.194 -1.9534  1.9102  0.4814
12217TIP3   OH258065   0.213   1.348   3.677 -0.1439  0.3042 -0.3783
12217TIP3    H158066   0.192   1.397   3.757  1.4175  0.4492 -0.0356
12217TIP3    H258067   0.173   1.262   3.690  2.6387 -0.7240  1.9233
12218TIP3   OH258068   1.109   6.372   4.709 -0.1311 -0.0434 -0.5452
12218TIP3    H158069   1.148   6.358   4.622 -0.3965 -1.4134 -0.4522
12218TIP3    H258070   1.056   6.293   4.724 -0.7176  0.5513  0.5257
12219TIP3   OH258071   4.354   0.833   4.589  0.2982 -0.1157 -0.3991
12219TIP3    H158072   4.355   0.749   4.543  1.4637 -0.9617  1.1046
12219TIP3    H258073   4.446   0.849   4.613 -0.0558  1.0690  0.2316
12220TIP3   OH258074   6.780   5.559  12.614 -0.5213 -0.1527  0.5911
12220TIP3    H158075   6.749   5.615  12.543 -0.3745 -0.6250  0.1595
12220TIP3    H258076   6.754   5.606  12.694  0.3886  0.9695  0.2300
12221TIP3   OH258077   2.709   0.605   3.729  0.2026  0.7279  0.1356
12221TIP3    H158078   2.754   0.521   3.724 -2.8399 -0.9132 -1.9590
12221TIP3    H258079   2.731   0.649   3.647 -1.5219  0.1261 -0.6763
12222TIP3   OH258080   4.829   4.793   5.026 -0.4730  0.0129  0.3977
12222TIP3    H158081   4.820   4.876   4.979 -2.2255 -0.8174 -0.7622
12222TIP3    H258082   4.809   4.815   5.117 -0.4119  0.9675  0.1890
12223TIP3   OH258083   1.936   1.615   5.907  0.3514  0.2968  0.1888
12223TIP3    H158084   1.886   1.553   5.854 -2.2481  0.4365  2.3763
12223TIP3    H258085   2.026   1.582   5.904 -0.3642 -1.6233 -1.4763
12224TIP3   OH258086   5.643   2.349   2.077  0.0025 -0.0791  0.0421
12224TIP3    H158087   5.570   2.363   2.017 -0.7371 -1.6959  0.5513
12224TIP3    H258088   5.698   2.426   2.065 -1.1986  0.6164 -1.1811
12225TIP3   OH258089   5.599   5.837   0.512 -0.1462 -0.1547  0.4448
12225TIP3    H158090   5.555   5.862   0.431 -0.3702 -0.3547  0.5044
12225TIP3    H258091   5.680   5.888   0.511  0.6662 -1.4372 -0.7428
12226TIP3   OH258092   2.183   6.409   4.944 -0.2994  0.1538 -0.0269
12226TIP3    H158093   2.217   6.347   4.879 -0.8389 -0.2946  0.1121
12226TIP3    H258094   2.092   6.424   4.917 -0.1342  0.9663 -0.1190
12227TIP3   OH258095   2.706   0.546   2.552  0.5619  0.2688  0.0830
12227TIP3    H158096   2.732   0.504   2.469 -3.7248 -0.0008 -1.2389
12227TIP3    H258097   2.726   0.481   2.619 -1.0247 -1.7631 -1.3688
12228TIP3   OH258098   4.869   3.051  15.276 -0.4465 -0.1448 -0.4970
12228TIP3    H158099   4.805   2.992  15.317 -0.3709  0.7358  0.9272
12228TIP3    H258100   4.922   2.994  15.220  0.9676 -1.8525  2.4395
12229TIP3   OH258101   5.336   6.300  14.771 -0.8700 -0.3729 -0.1363
12229TIP3    H158102   5.387   6.300  14.851 -0.9269 -0.4078 -0.1000
12229TIP3    H258103   5.396   6.267  14.704  0.0862  2.4142 -0.7079
12230TIP3   OH258104   1.182   5.578  16.062  0.1302 -0.4291  0.1064
12230TIP3    H158105   1.193   5.625  16.145 -1.2632 -0.8028  0.5233
12230TIP3    H258106   1.207   5.488  16.081 -1.6636 -0.8593  0.5541
12231TIP3   OH258107   4.616   1.324  14.077  0.4084 -0.0518  0.6937
12231TIP3    H158108   4.548   1.362  14.132  1.0857 -0.8630  2.1211
12231TIP3    H258109   4.696   1.333  14.129  1.4077  0.8888 -0.9538
12232TIP3   OH258110   3.385   5.514   1.120  0.3211  0.3639  0.0665
12232TIP3    H158111   3.328   5.445   1.152  0.7051  0.8257  1.7951
12232TIP3    H258112   3.383   5.505   1.025 -0.8076 -1.0661  0.2152
12233TIP3   OH258113   4.593   6.415  16.523 -0.2727  0.0338 -0.5807
12233TIP3    H158114   4.683   6.401  16.554 -0.1142  1.3262 -0.4359
12233TIP3    H258115   4.546   6.337  16.552  0.8064 -0.6568 -0.6622
12234TIP3   OH258116   4.928   4.540  15.919  0.1877  0.1877 -0.1663
12234TIP3    H158117   5.023   4.544  15.903  0.1649  0.5958 -0.2081
12234TIP3    H258118   4.891   4.605  15.860 -0.0077  0.8194  0.6411
12235TIP3   OH258119   5.142   3.671  16.839 -0.0371 -0.0335 -0.0553
12235TIP3    H158120   5.206   3.610  16.875 -0.9921 -0.4913  0.9187
12235TIP3    H258121   5.193   3.748  16.814  0.9489 -0.5756  0.2770
12236TIP3   OH258122   3.661   5.611  15.840  0.4619 -0.6107  0.3947
12236TIP3    H158123   3.737   5.669  15.842  1.7563 -2.3058  2.3799
12236TIP3    H258124   3.692   5.532  15.796 -0.7531 -0.5329 -0.6283
12237TIP3   OH258125   2.954   3.111  13.124  0.0360 -0.4588 -0.0396
12237TIP3    H158126   2.950   3.152  13.037 -0.7472 -0.5323 -0.0487
12237TIP3    H258127   2.862   3.105  13.150  0.2411 -0.9665  0.5490
12238TIP3   OH258128   2.317   4.999   3.736  0.2702 -0.2013 -0.1769
12238TIP3    H158129   2.273   5.005   3.821 -2.0543 -1.4761 -1.2385
12238TIP3    H258130   2.366   4.917   3.740 -1.9013 -1.5722 -0.9599
12239TIP3   OH258131   0.782   4.713   1.224 -0.3331 -0.2791  0.2083
12239TIP3    H158132   0.861   4.707   1.279 -0.4260 -2.7265  0.1482
12239TIP3    H258133   0.814   4.739   1.138  0.3827 -0.8789  0.2879
12240TIP3   OH258134   6.749   0.954   3.998 -0.2138 -0.0147  0.1873
12240TIP3    H158135   6.772   0.861   4.004 -1.1777 -0.2774 -0.0393
12240TIP3    H258136   6.653   0.955   4.005 -0.1876  0.9874  0.4712
12241TIP3   OH258137   1.698   6.259  15.287 -0.7738  0.2377 -0.2600
12241TIP3    H158138   1.622   6.255  15.229 -0.7183 -1.2198 -0.2518
12241TIP3    H258139   1.765   6.303  15.236 -1.3231  0.6830 -0.6063
12242TIP3   OH258140   4.348   5.981  14.101 -0.1820 -0.1264 -0.2047
12242TIP3    H158141   4.302   6.059  14.071 -1.2928 -0.5920  0.2524
12242TIP3    H258142   4.313   5.910  14.047 -1.3359 -0.7740  1.3768
12243TIP3   OH258143   2.344   1.627  13.094 -0.1185  0.6675  0.4530
12243TIP3    H158144   2.316   1.672  13.014 -0.2455  0.3166  0.2991
12243TIP3    H258145   2.363   1.538  13.066 -2.6487 -0.1793  1.2725
12244TIP3   OH258146   1.809   6.300   3.085 -0.0920  0.2622  0.0976
12244TIP3    H158147   1.874   6.241   3.123 -0.6323  0.3253  1.1192
12244TIP3    H258148   1.797   6.369   3.150 -2.5658 -0.7366  0.7666
12245TIP3   OH258149   2.688   5.443  11.571 -0.2866  0.1858 -0.1547
12245TIP3    H158150   2.645   5.443  11.486 -0.7987  1.7869  0.0858
12245TIP3    H258151   2.780   5.427  11.551 -0.7567 -1.8621 -0.7844
12246TIP3   OH258152   6.614   2.926   0.845  0.3292 -0.1928  0.0907
12246TIP3    H158153   6.557   2.989   0.800  0.9818 -0.3537 -0.9623
12246TIP3    H258154   6.556   2.852   0.865 -0.3368  0.5471  0.9444
12247TIP3   OH258155   1.139   3.333  17.201 -0.0401  0.0793  0.0455
12247TIP3    H158156   1.146   3.421  17.164 -0.4245  0.7750  1.5455
12247TIP3    H258157   1.189   3.277  17.142  1.0415  1.4771 -0.3915
12248TIP3   OH258158   0.979   2.074   2.527  0.1104 -0.0255  0.2887
12248TIP3    H158159   0.981   2.156   2.578  0.0090 -0.3055  0.7456
12248TIP3    H258160   1.005   2.007   2.589 -0.3827 -0.4233  0.0640
12249TIP3   OH258161   1.493   5.382  12.501 -0.4759 -1.0290  0.1734
12249TIP3    H158162   1.475   5.471  12.469 -0.5998 -1.5332 -1.2012
12249TIP3    H258163   1.561   5.350  12.442 -0.5484 -1.9060  0.5725
12250TIP3   OH258164   5.808   4.539   2.796 -0.1022 -0.5552  0.0902
12250TIP3    H158165   5.802   4.561   2.889 -0.2604  0.1105 -0.0726
12250TIP3    H258166   5.863   4.461   2.793 -0.0367 -0.5378  0.7360
12251TIP3   OH258167   1.652   1.340  12.153 -0.0935  0.1185  0.0661
12251TIP3    H158168   1.665   1.434  12.156 -1.8537  0.3601  1.4105
12251TIP3    H258169   1.604   1.324  12.072  0.4685  0.3486 -0.3097
12252TIP3   OH258170   0.005   5.052   1.969 -0.1606  0.2679 -0.1817
12252TIP3    H158171  -0.075   5.031   1.919 -0.2209  1.4428 -0.6068
12252TIP3    H258172   0.060   5.100   1.906  0.4963  0.2404  0.3727
12253TIP3   OH258173   2.710   5.036  15.969 -0.5847 -0.4368  0.0385
12253TIP3    H158174   2.702   5.065  15.878 -1.6850 -0.4794  0.1085
12253TIP3    H258175   2.804   5.037  15.987 -0.2803 -1.4220 -1.4247
12254TIP3   OH258176   6.421   1.926  14.567  0.4414 -0.4181 -0.0433
12254TIP3    H158177   6.458   1.937  14.480  0.9290  1.0835  0.3425
12254TIP3    H258178   6.388   2.013  14.590 -0.1970 -0.9370  1.0333
12255TIP3   OH258179   1.640   2.646   3.305 -0.3342 -0.5544  0.1439
12255TIP3    H158180   1.731   2.620   3.289 -0.2536  1.0161 -2.0628
12255TIP3    H258181   1.596   2.634   3.221 -1.7236  0.5441  0.6888
12256TIP3   OH258182   0.808   0.078   2.813 -0.1865 -0.4509 -0.5185
12256TIP3    H158183   0.835   0.105   2.725 -0.1563 -0.0470 -0.3846
12256TIP3    H258184   0.719   0.113   2.822 -1.2614 -2.8558 -1.4443
12257TIP3   OH258185   5.889   2.325  16.790 -0.2878 -0.4421 -0.0677
12257TIP3    H158186   5.920   2.250  16.841 -0.0154 -1.0907 -1.1801
12257TIP3    H258187   5.807   2.296  16.751  0.3684 -0.5466 -1.3903
12258TIP3   OH258188   1.049   4.435   5.312  0.4681 -0.5377  0.3959
12258TIP3    H158189   1.052   4.416   5.406 -0.2924 -1.2178  0.2886
12258TIP3    H258190   0.979   4.499   5.303  1.0146  0.0596  0.3782
12259TIP3   OH258191   2.405   3.478  16.481  0.2564 -0.9253 -0.4070
12259TIP3    H158192   2.452   3.395  16.475  1.7667 -0.0500 -0.8378
12259TIP3    H258193   2.373   3.481  16.571 -2.3383 -3.2981 -1.1668
12260TIP3   OH258194   6.319   5.999   4.308  0.1090 -0.3560 -0.4305
12260TIP3    H158195   6.308   6.093   4.322 -2.2522 -0.1305 -3.2795
12260TIP3    H258196   6.326   5.990   4.213 -0.4037 -3.1036 -0.2442
12261TIP3   OH258197   2.820   6.744  14.438  0.3621  0.2082 -0.1927
12261TIP3    H158198   2.885   6.802  14.476 -2.6040  3.6171 -0.1166
12261TIP3    H258199   2.788   6.692  14.511  0.8541  0.6034  0.3043
12262TIP3   OH258200   5.257   6.468  13.384 -0.0517 -0.4900  0.4936
12262TIP3    H158201   5.344   6.503  13.401  0.3079 -1.0989 -0.0928
12262TIP3    H258202   5.201   6.512  13.448  0.3875  1.1957 -0.2444
12263TIP3   OH258203   2.843   1.095  15.135  0.2565  0.3980  0.3128
12263TIP3    H158204   2.803   1.110  15.049 -0.8780  0.0397  0.7692
12263TIP3    H258205   2.771   1.065  15.190  1.5560 -2.2834  0.6388
12264TIP3   OH258206   1.602   1.119  17.133 -0.0617 -0.4731 -0.5097
12264TIP3    H158207   1.617   1.144  17.224 -2.6192 -1.5953  0.2315
12264TIP3    H258208   1.687   1.085  17.104  0.2923 -1.8826  2.0189
12265TIP3   OH258209   3.390   4.770   2.155 -0.5550  0.1223 -0.0445
12265TIP3    H158210   3.452   4.699   2.169 -0.9488 -0.4720 -1.1908
12265TIP3    H258211   3.441   4.850   2.167  0.2198 -0.3616 -0.1159
12266TIP3   OH258212   1.213   6.382   4.447  0.0485  0.8146  0.1139
12266TIP3    H158213   1.175   6.309   4.397  1.0942 -0.2671  0.8663
12266TIP3    H258214   1.274   6.423   4.386  0.4592  0.2103  0.1048
12267TIP3   OH258215   2.946   5.898   3.387 -0.7184 -0.5364  0.2088
12267TIP3    H158216   2.863   5.865   3.352 -1.0290  0.7833 -0.3314
12267TIP3    H258217   3.006   5.897   3.312 -1.6346  3.1489 -0.7010
12268TIP3   OH258218   1.770   1.266   2.380  0.2928 -0.2184  0.2166
12268TIP3    H158219   1.739   1.280   2.290 -1.1218  1.4651  0.9357
12268TIP3    H258220   1.811   1.348   2.405  0.8083 -0.7246  1.0725
12269TIP3   OH258221   4.218   6.407  16.149 -0.6599 -0.0620  0.1549
12269TIP3    H158222   4.176   6.435  16.230 -2.6093  1.2650 -1.2838
12269TIP3    H258223   4.160   6.340  16.114  0.6161 -1.2519  0.2297
12270TIP3   OH258224   3.466   3.312   5.434 -0.7660  0.0935 -0.1277
12270TIP3    H158225   3.404   3.308   5.506 -0.8880  0.6330 -0.1970
12270TIP3    H258226   3.492   3.404   5.430 -0.0501 -0.1085 -0.1685
12271TIP3   OH258227   0.711   3.605  15.474  0.6696 -0.3101 -0.0176
12271TIP3    H158228   0.733   3.695  15.496 -0.5043 -0.2458  0.9462
12271TIP3    H258229   0.717   3.558  15.557 -0.4470 -0.7589 -0.1848
12272TIP3   OH258230   2.368   5.704  12.461  0.4627 -0.2740  0.3206
12272TIP3    H158231   2.346   5.701  12.554  0.7977 -0.2273  0.4030
12272TIP3    H258232   2.417   5.623  12.446  1.4999  0.3105  0.4710
12273TIP3   OH258233   2.656   0.425  13.824 -0.1897 -0.3034 -0.1512
12273TIP3    H158234   2.592   0.426  13.753  0.3718 -1.1814 -0.6820
12273TIP3    H258235   2.649   0.511  13.864 -0.3633  0.2910 -1.4234
12274TIP3   OH258236   1.514   5.011  14.468 -1.0926 -0.0265  0.1278
12274TIP3    H158237   1.519   5.104  14.486 -0.2446 -0.3975  1.8661
12274TIP3    H258238   1.457   5.005  14.391  0.4504  2.0422 -1.2266
12275TIP3   OH258239   4.917   0.026  16.328  0.4949 -0.3768 -0.4777
12275TIP3    H158240   4.895  -0.033  16.256  2.0839 -2.6213  0.8255
12275TIP3    H258241   5.013   0.025  16.332  0.4398 -0.3107  1.6599
12276TIP3   OH258242   0.703   5.956  14.991  0.6460 -0.5812 -0.1377
12276TIP3    H158243   0.666   5.894  14.928 -0.5203  0.7420 -0.7827
12276TIP3    H258244   0.629   5.980  15.047  0.6844  1.4880 -0.9438
12277TIP3   OH258245   4.678   3.894  16.961  0.2957 -0.0620 -0.1822
12277TIP3    H158246   4.740   3.825  16.983  0.6575  1.0684  2.6087
12277TIP3    H258247   4.664   3.941  17.043 -1.1720  2.2010 -1.6481
12278TIP3   OH258248   3.649   5.531  15.493  0.2847 -0.0461  0.4973
12278TIP3    H158249   3.729   5.483  15.475 -0.7812 -1.1699 -1.3227
12278TIP3    H258250   3.627   5.573  15.410  0.1286  2.0198  1.5413
12279TIP3   OH258251   2.989   1.865   3.935 -0.1962  0.1371 -0.2248
12279TIP3    H158252   3.075   1.906   3.928 -0.4619  1.0896  1.8369
12279TIP3    H258253   2.928   1.930   3.901 -0.0348 -1.0397 -2.9526
12280TIP3   OH258254   3.451   4.821  13.499 -0.3659  0.8216 -0.4304
12280TIP3    H158255   3.360   4.800  13.477 -1.1734  2.4620  1.1664
12280TIP3    H258256   3.458   4.916  13.485  1.5277  0.4896 -1.9482
12281TIP3   OH258257   2.590   5.651  17.060  0.4445 -0.1347 -0.1005
12281TIP3    H158258   2.552   5.736  17.082  1.4448  0.2670  0.1074
12281TIP3    H258259   2.582   5.600  17.140  0.4450 -0.0132 -0.0227
12282TIP3   OH258260   4.672   1.814   1.409 -0.0725  0.7976 -0.2809
12282TIP3    H158261   4.673   1.743   1.344 -3.3450  0.7002 -0.2836
12282TIP3    H258262   4.754   1.861   1.394 -0.0524 -0.1268 -3.4817
12283TIP3   OH258263   0.246   0.946  12.602  0.2845  0.1761  0.0708
12283TIP3    H158264   0.339   0.954  12.622  0.2642  0.6878 -0.0407
12283TIP3    H258265   0.215   1.036  12.594 -0.3152  0.0099  0.5445
12284TIP3   OH258266   1.527   0.551  14.880  0.1670  0.1928  0.6627
12284TIP3    H158267   1.472   0.514  14.949 -0.3440  2.5937  1.5894
12284TIP3    H258268   1.611   0.508  14.891 -0.3122 -0.4543  1.9271
12285TIP3   OH258269   3.841   2.996   6.195  0.0425 -0.1339 -0.0863
12285TIP3    H158270   3.787   3.074   6.202 -1.5437 -1.0456 -1.8635
12285TIP3    H258271   3.910   3.008   6.261 -0.3702  2.5842 -0.1323
12286TIP3   OH258272   0.284   3.085   1.021  0.2862 -0.0412 -0.2490
12286TIP3    H158273   0.226   3.071   0.946  0.3777 -3.0475  0.2009
12286TIP3    H258274   0.237   3.050   1.096  1.6387 -0.2353  0.5358
12287TIP3   OH258275   5.246   3.885  16.249  0.6415  0.0532 -0.1535
12287TIP3    H158276   5.182   3.817  16.227 -0.7785  0.7789  1.5659
12287TIP3    H258277   5.297   3.847  16.320 -0.5582  0.9771  1.2299
12288TIP3   OH258278   3.708   3.090  12.544  0.7110 -0.2377  0.0034
12288TIP3    H158279   3.620   3.089  12.507  1.0159 -1.9581 -0.7027
12288TIP3    H258280   3.696   3.114  12.636 -0.6389 -1.9060  0.2766
12289TIP3   OH258281   5.458   0.626   1.617  0.0028  0.1278 -0.2337
12289TIP3    H158282   5.397   0.637   1.690 -2.0368 -1.6499 -1.5940
12289TIP3    H258283   5.500   0.542   1.633  1.6912  1.0722  0.3822
12290TIP3   OH258284   3.606   2.768   6.642  0.0917 -0.6715  0.1597
12290TIP3    H158285   3.546   2.755   6.568  0.3460  1.2116 -0.3855
12290TIP3    H258286   3.549   2.779   6.718 -0.3267  2.1331 -0.5120
12291TIP3   OH258287   4.219   6.761   1.498 -0.1012  0.2483 -0.6650
12291TIP3    H158288   4.160   6.698   1.457  0.8321  0.4876 -2.4208
12291TIP3    H258289   4.291   6.769   1.437  0.4250  2.0401  0.1692
12292TIP3   OH258290   6.282   5.277  13.243  0.1571 -0.7672 -0.0299
12292TIP3    H158291   6.373   5.303  13.234 -0.1004  0.3887  0.6567
12292TIP3    H258292   6.248   5.276  13.154  0.9700 -1.6871 -0.3349
12293TIP3   OH258293   2.671   4.667   0.911 -0.1213 -0.4037  0.0922
12293TIP3    H158294   2.697   4.583   0.949 -0.8417  0.0720  1.7254
12293TIP3    H258295   2.628   4.644   0.829  0.3086 -1.5783  0.1846
12294TIP3   OH258296   3.523   6.069   6.206  0.1894 -0.0082 -0.2881
12294TIP3    H158297   3.618   6.066   6.217  0.0633 -0.5422  0.7199
12294TIP3    H258298   3.489   6.022   6.282 -0.7830 -1.9785 -1.8824
12295TIP3   OH258299   0.288   1.000   1.865 -0.2786 -0.0044 -0.2916
12295TIP3    H158300   0.267   0.967   1.777  0.2972 -0.9926 -0.0609
12295TIP3    H258301   0.308   1.093   1.851  0.9057 -0.4003 -1.3861
12296TIP3   OH258302   2.207   4.159   3.348 -0.0980  0.1123  0.1337
12296TIP3    H158303   2.279   4.173   3.409 -1.1836 -0.6109  1.6160
12296TIP3    H258304   2.131   4.200   3.390 -0.9391 -0.7182 -0.5291
12297TIP3   OH258305   0.116   5.166   4.072  0.3186 -0.5425  0.2479
12297TIP3    H158306   0.203   5.204   4.063 -0.2886  0.3971 -1.9421
12297TIP3    H258307   0.127   5.074   4.048  1.1478 -1.0394  2.3809
12298TIP3   OH258308   1.468   3.994   0.067 -0.1199 -0.5117  0.8789
12298TIP3    H158309   1.563   3.999   0.056 -0.0873 -1.6791  0.5220
12298TIP3    H258310   1.450   4.044   0.146  0.5206  1.7016 -0.3373
12299TIP3   OH258311   0.405   6.538   1.604  0.1703 -0.1400  0.3075
12299TIP3    H158312   0.387   6.619   1.651  2.0485 -0.5338  1.7856
12299TIP3    H258313   0.438   6.478   1.671  1.8022 -1.1081 -1.2967
12300TIP3   OH258314   5.008   0.518   4.156 -0.0120 -0.7701 -0.0703
12300TIP3    H158315   5.083   0.492   4.210 -0.8940 -0.9571  1.0877
12300TIP3    H258316   4.945   0.446   4.165 -0.5164 -0.4130 -0.6729
12301TIP3   OH258317   2.221   6.176  11.295  0.2314 -0.1681  0.0844
12301TIP3    H158318   2.129   6.165  11.273  0.0007  1.9691 -0.1752
12301TIP3    H258319   2.266   6.106  11.248 -0.7961  1.4188 -3.4484
12302TIP3   OH258320   6.083   2.913  17.144 -0.5067 -0.3026 -0.4428
12302TIP3    H158321   5.990   2.901  17.166 -0.7693  1.0512 -0.7407
12302TIP3    H258322   6.085   2.906  17.048  0.0780 -2.6856 -0.2667
12303TIP3   OH258323   0.590   2.336  13.547  0.6666  0.1950  0.5831
12303TIP3    H158324   0.654   2.274  13.512 -1.1913 -2.0853  1.1093
12303TIP3    H258325   0.548   2.373  13.469  1.0529 -0.0027  0.2828
12304TIP3   OH258326   0.346   3.181  14.036 -0.4279 -0.5426  0.2988
12304TIP3    H158327   0.317   3.241  13.967  0.8744 -1.8209 -1.4117
12304TIP3    H258328   0.418   3.226  14.079 -3.6069  1.8600  3.3541
12305TIP3   OH258329   3.335   6.085  13.543  0.2583  0.1703 -0.5178
12305TIP3    H158330   3.421   6.083  13.585  1.2827  2.2098 -2.4005
12305TIP3    H258331   3.283   6.144  13.597  0.1554 -0.7181  0.3711
12306TIP3   OH258332   3.531   6.257  13.854 -0.0559  0.6034  0.4396
12306TIP3    H158333   3.542   6.332  13.795  0.8278  0.7960  0.8493
12306TIP3    H258334   3.489   6.293  13.932 -1.0234  0.3872  0.0387
12307TIP3   OH258335   0.026   6.687   2.125 -0.1288  0.3788  0.1596
12307TIP3    H158336   0.076   6.731   2.193  0.5177 -0.1527  0.0296
12307TIP3    H258337   0.039   6.594   2.141  1.3156  0.2405 -1.6150
12308TIP3   OH258338   5.693   0.918  12.255  0.1610 -0.0479  0.2971
12308TIP3    H158339   5.694   0.857  12.182 -0.1050 -1.1608  1.2091
12308TIP3    H258340   5.772   0.971  12.244  0.9922 -1.3119  0.1331
12309TIP3   OH258341   6.446   3.424   1.730  0.7408  0.1660  0.2246
12309TIP3    H158342   6.381   3.369   1.687  1.0291  0.4728 -0.6118
12309TIP3    H258343   6.499   3.364   1.782 -0.4740 -0.0337  1.2397
12310TIP3   OH258344   4.669   4.981   6.028 -0.0426  0.3591  0.4474
12310TIP3    H158345   4.615   4.996   6.105  0.1589 -0.2692  0.7140
12310TIP3    H258346   4.665   5.064   5.979  1.7901  1.6095  2.3372
12311TIP3   OH258347   5.799   3.698   3.813 -0.1162 -0.5967 -0.2055
12311TIP3    H158348   5.706   3.719   3.826  0.5568  2.1817  0.2731
12311TIP3    H258349   5.845   3.754   3.875  1.8612 -2.6089  0.2020
12312TIP3   OH258350   5.242   3.507   4.432  0.3948 -0.4306  0.3067
12312TIP3    H158351   5.204   3.448   4.497 -2.4486 -0.2649 -1.1384
12312TIP3    H258352   5.273   3.449   4.362  1.1281 -0.4291  0.6184
12313TIP3   OH258353   4.234   6.526   5.308  0.1594 -0.2081 -0.4063
12313TIP3    H158354   4.293   6.484   5.246 -0.7811 -0.6991 -0.9893
12313TIP3    H258355   4.291   6.564   5.374  1.1655  0.3250 -1.5776
12314TIP3   OH258356   5.090   5.616  13.949 -0.1458  0.2022  0.3840
12314TIP3    H158357   5.082   5.697  14.000  1.6357  0.8355 -0.3116
12314TIP3    H258358   5.037   5.552  13.997 -0.0408  1.2965  1.9876
12315TIP3   OH258359   1.947   4.810   1.148 -0.1173 -0.3924  0.0387
12315TIP3    H158360   1.929   4.904   1.157  1.9716 -0.0568  0.9727
12315TIP3    H258361   1.867   4.774   1.108  0.2886  2.3073 -3.4574
12316TIP3   OH258362   2.015   5.279  13.336  0.6232  0.3359 -0.2410
12316TIP3    H158363   1.923   5.265  13.357  0.6413  0.4440 -0.0892
12316TIP3    H258364   2.018   5.277  13.240  0.4848  0.1994 -0.2439
12317TIP3   OH258365   0.629   0.750   4.737 -0.2516 -0.2058  0.8949
12317TIP3    H158366   0.710   0.786   4.700  0.0766 -1.1901  0.6571
12317TIP3    H258367   0.562   0.771   4.672  0.2100 -1.3600  0.0301
12318TIP3   OH258368   0.975   3.286   5.358  0.1939  0.2335  0.6335
12318TIP3    H158369   0.943   3.204   5.395 -1.0941  0.3770 -0.1262
12318TIP3    H258370   0.911   3.308   5.290  1.0839  1.3381  0.1395
12319TIP3   OH258371   4.162   4.739  15.647  0.4463 -0.3685 -0.1234
12319TIP3    H158372   4.210   4.819  15.628 -0.6211  0.1122 -0.8574
12319TIP3    H258373   4.091   4.766  15.705  0.0595 -0.7658 -0.4039
12320TIP3   OH258374   5.758   3.940   0.698  0.3611  0.3322  0.0937
12320TIP3    H158375   5.756   4.035   0.683  0.2056  0.6114  1.7794
12320TIP3    H258376   5.804   3.930   0.781  1.5117 -1.1726 -0.6908
12321TIP3   OH258377   3.208   2.701   5.620 -0.0698  0.2338  0.8220
12321TIP3    H158378   3.206   2.732   5.530  0.7343 -1.2844  0.2644
12321TIP3    H258379   3.265   2.763   5.666  1.9953 -0.7040 -0.4052
12322TIP3   OH258380   1.687   3.542   5.508  0.0787  0.0640  0.2760
12322TIP3    H158381   1.707   3.499   5.591 -0.3476 -0.8433 -0.0770
12322TIP3    H258382   1.729   3.627   5.514  0.4235 -0.1662  1.2465
12323TIP3   OH258383   1.433   5.312  15.185 -0.2544  0.4416 -0.8164
12323TIP3    H158384   1.432   5.395  15.233 -0.4205 -0.2536  0.3820
12323TIP3    H258385   1.417   5.338  15.094 -1.7279  1.5910 -0.2556
12324TIP3   OH258386   2.806   1.463  15.442 -0.3957  0.0929  0.0840
12324TIP3    H158387   2.805   1.422  15.355 -3.0958  0.3323 -0.0356
12324TIP3    H258388   2.810   1.389  15.503  0.5149 -0.1060 -0.2003
12325TIP3   OH258389   4.965   4.058  12.795 -0.3689 -0.9707  0.5496
12325TIP3    H158390   5.045   4.026  12.753  1.9270  1.4307  2.9630
12325TIP3    H258391   4.911   3.979  12.806  1.0082 -2.4196 -2.3413
12326TIP3   OH258392   6.637   1.935   4.567 -0.1282 -0.0227  0.8721
12326TIP3    H158393   6.596   2.014   4.602 -0.3349 -0.1797  0.9873
12326TIP3    H258394   6.688   1.900   4.641 -0.4592 -0.2827  0.9802
12327TIP3   OH258395   5.524   2.069  11.919 -0.0807  0.3646 -0.4792
12327TIP3    H158396   5.613   2.059  11.885 -0.7659 -0.4915 -2.0766
12327TIP3    H258397   5.486   2.138  11.865  0.2639  2.2463  1.5910
12328TIP3   OH258398   6.009   1.753   5.018 -0.1180  0.1444  0.2683
12328TIP3    H158399   5.981   1.663   5.004 -1.2434  0.4869  0.2623
12328TIP3    H258400   6.018   1.762   5.113 -0.6019  0.2012  0.3084
12329TIP3   OH258401   3.119   3.844   1.825 -0.2890 -0.2705 -0.0880
12329TIP3    H158402   3.138   3.774   1.887 -0.8069 -0.5689 -0.2631
12329TIP3    H258403   3.025   3.837   1.809 -0.3646  0.5369 -0.0181
12330TIP3   OH258404   4.577   4.499   4.680 -0.0219  0.1524 -0.0762
12330TIP3    H158405   4.622   4.443   4.743  0.5316 -0.9302 -1.4026
12330TIP3    H258406   4.622   4.583   4.686  0.6528 -0.2281  0.2891
12331TIP3   OH258407   3.951   1.934   5.255 -0.1071 -0.2806  0.0153
12331TIP3    H158408   3.961   1.955   5.162  1.4768 -0.4794  0.1289
12331TIP3    H258409   3.918   2.015   5.294  0.1564  0.1102 -0.5603
12332TIP3   OH258410   2.724   1.895   3.550  0.2057  0.6732 -0.1351
12332TIP3    H158411   2.793   1.847   3.596 -0.1720 -0.4705 -0.7369
12332TIP3    H258412   2.642   1.859   3.584 -0.0786 -0.2018 -1.7019
12333TIP3   OH258413   2.998   0.722   3.941  0.1575 -0.3366  0.3205
12333TIP3    H158414   3.026   0.699   4.030 -0.1540 -0.4105  0.4016
12333TIP3    H258415   2.993   0.638   3.896  2.5580 -0.1187 -0.4460
12334TIP3   OH258416   5.609   3.664   2.331 -0.2781 -0.1440 -0.5231
12334TIP3    H158417   5.697   3.627   2.344  0.2168  1.5194  1.0590
12334TIP3    H258418   5.565   3.651   2.414 -0.9859  0.4522 -0.7995
12335TIP3   OH258419   1.301   3.805  12.215 -0.2557  0.1802  0.5248
12335TIP3    H158420   1.219   3.840  12.249  0.4897  2.1453  0.3636
12335TIP3    H258421   1.275   3.748  12.142 -1.4727  0.5339  0.6733
12336TIP3   OH258422   4.704   1.824  13.350  0.4793  0.1573  0.0107
12336TIP3    H158423   4.619   1.833  13.306 -0.6530 -0.1120  2.0702
12336TIP3    H258424   4.717   1.729  13.356  1.1565  0.1969 -0.6758
12337TIP3   OH258425   0.432   3.970  12.691 -0.1892  0.3998 -0.0752
12337TIP3    H158426   0.409   3.894  12.746  1.1081  0.6064  0.7910
12337TIP3    H258427   0.451   4.040  12.754 -1.1173  1.3668 -0.8666
12338TIP3   OH258428   1.266   0.942  13.932  0.2360 -0.5384  0.1989
12338TIP3    H158429   1.329   0.931  13.862  0.1021  1.4551 -0.2656
12338TIP3    H258430   1.187   0.974  13.888 -1.1374 -2.9898  0.7612
12339TIP3   OH258431   2.109   3.543  13.589 -0.3140  0.1620 -0.3613
12339TIP3    H158432   2.082   3.580  13.673  1.2907  0.1646  0.1615
12339TIP3    H258433   2.099   3.448  13.601 -2.5655  0.2766 -1.0558
12340TIP3   OH258434   5.050   0.906  11.481  0.6783  0.0939  0.5516
12340TIP3    H158435   4.975   0.869  11.527  0.1489  1.9036  1.1850
12340TIP3    H258436   5.047   0.866  11.394 -0.9686  0.0814  0.6025
12341TIP3   OH258437   3.925   2.414   0.062 -0.0572 -0.0911 -0.2465
12341TIP3    H158438   3.933   2.446  -0.028  0.2222  2.4211  0.6471
12341TIP3    H258439   3.846   2.361   0.062 -0.6386  0.7591 -1.7310
12342TIP3   OH258440   6.329   1.430  10.861  0.0260 -0.4354  0.3554
12342TIP3    H158441   6.317   1.346  10.816  0.4732 -0.9995  1.2715
12342TIP3    H258442   6.422   1.451  10.847 -0.2127  0.1747 -0.3279
12343TIP3   OH258443   4.968   4.481   5.224 -1.1643 -0.2162 -0.6656
12343TIP3    H158444   5.022   4.402   5.221 -1.0116 -0.0975 -1.2405
12343TIP3    H258445   4.991   4.523   5.306 -0.3442 -0.1480 -0.9208
12344TIP3   OH258446   6.667   2.953   2.925  0.1138  0.0513  0.3781
12344TIP3    H158447   6.743   2.966   2.982 -0.6270  1.4579  1.0999
12344TIP3    H258448   6.605   2.904   2.979  0.0373 -0.0175  0.2274
12345TIP3   OH258449   0.225   0.330   6.638  0.2923 -0.1781 -0.3699
12345TIP3    H158450   0.199   0.391   6.569 -0.6040  1.0021  0.9753
12345TIP3    H258451   0.319   0.346   6.650  0.1200  0.7257 -0.2254
12346TIP3   OH258452   4.604   0.691   2.208 -0.0503 -0.2116 -0.4677
12346TIP3    H158453   4.556   0.685   2.291  1.4302 -0.4114  0.3832
12346TIP3    H258454   4.687   0.733   2.231  0.3268 -0.1651 -1.8772
12347TIP3   OH258455   2.661   3.588   1.355 -0.0604 -0.0622 -0.6520
12347TIP3    H158456   2.747   3.558   1.324  0.1157  0.4891 -0.6936
12347TIP3    H258457   2.631   3.518   1.413  0.8086  0.1526  0.0647
12348TIP3   OH258458   3.784   5.692   0.413 -0.2147  0.0538  0.1075
12348TIP3    H158459   3.726   5.623   0.445  1.2638 -1.5508 -0.5751
12348TIP3    H258460   3.741   5.725   0.334 -0.6871 -0.4251  0.1634
12349TIP3   OH258461   1.300   1.420  11.221 -0.0584 -0.0896 -0.2851
12349TIP3    H158462   1.315   1.416  11.126 -1.8979 -0.0912 -0.5797
12349TIP3    H258463   1.378   1.379  11.259  1.3046  1.1075 -1.7401
12350TIP3   OH258464   0.358   4.224   5.794 -0.1434  0.3017  0.1917
12350TIP3    H158465   0.340   4.259   5.707 -2.9022  2.7917  1.6731
12350TIP3    H258466   0.316   4.138   5.795 -0.9550  0.6808 -0.6376
12351TIP3   OH258467   4.018   6.063   4.247  0.1846  0.4587  0.3510
12351TIP3    H158468   4.085   6.096   4.186  0.6747 -0.5833  0.3130
12351TIP3    H258469   3.939   6.112   4.226  0.8722  1.5076  0.2068
12352TIP3   OH258470   2.432   6.038  11.767 -0.5509 -0.1952  0.5734
12352TIP3    H158471   2.397   6.087  11.841 -1.7724 -0.0428 -0.0973
12352TIP3    H258472   2.427   5.946  11.794 -3.3839 -0.3466 -0.2714
12353TIP3   OH258473   1.701   0.815   3.846 -0.0345 -0.3607  0.1518
12353TIP3    H158474   1.766   0.769   3.794  0.3719 -0.4233  0.7137
12353TIP3    H258475   1.722   0.908   3.835 -0.2553 -0.3497 -0.1930
12354TIP3   OH258476   0.409   0.925  14.161 -0.3205  0.4442 -0.0001
12354TIP3    H158477   0.402   0.865  14.087 -0.0804  2.7252 -1.9486
12354TIP3    H258478   0.475   0.885  14.218 -2.1374 -2.4788  0.1373
12355TIP3   OH258479   6.086   2.653  13.476 -0.1700  0.0086  0.3082
12355TIP3    H158480   6.152   2.629  13.540  0.8376  0.3124 -0.5893
12355TIP3    H258481   6.133   2.707  13.412 -1.1435 -0.2598 -0.6678
12356TIP3   OH258482   1.626   5.711  11.288 -0.5184 -0.1019 -0.1296
12356TIP3    H158483   1.541   5.673  11.265  0.0361  0.1900 -2.8352
12356TIP3    H258484   1.606   5.772  11.360 -1.9639 -2.7129  1.7542
12357TIP3   OH258485   0.664   4.296   6.330  0.1252  0.2467  0.2211
12357TIP3    H158486   0.731   4.272   6.395  0.7969  1.5570  0.0294
12357TIP3    H258487   0.598   4.343   6.380 -0.8229 -1.2892  0.4609
12358TIP3   OH258488   5.343   5.715  13.499  0.2510  0.1070 -0.5289
12358TIP3    H158489   5.306   5.659  13.432 -1.4773 -0.0843  0.5470
12358TIP3    H258490   5.417   5.758  13.457  1.3337 -2.6256 -1.4925
12359TIP3   OH258491   2.451   5.283   2.205  0.1919  0.1997  0.2999
12359TIP3    H158492   2.360   5.294   2.180 -0.0004  0.9635  1.3194
12359TIP3    H258493   2.487   5.224   2.139 -0.5203  1.5135 -1.3053
12360TIP3   OH258494   0.902   5.722  13.044  0.4979 -0.2303  0.2834
12360TIP3    H158495   0.914   5.784  13.116  1.6840  0.8493 -0.8090
12360TIP3    H258496   0.990   5.700  13.016  0.0543 -1.1867 -0.3941
12361TIP3   OH258497   6.062   4.704  16.344 -0.5467  0.3805 -0.0950
12361TIP3    H158498   6.139   4.664  16.304  0.5176 -0.2076  2.4290
12361TIP3    H258499   6.007   4.729  16.270  0.8367 -1.6085 -1.8704
12362TIP3   OH258500   2.792   2.107  12.356 -0.2659 -0.1692  0.7303
12362TIP3    H158501   2.760   2.194  12.382 -0.9046 -0.8601  2.3250
12362TIP3    H258502   2.886   2.120  12.342 -0.0242  0.4261  2.7274
12363TIP3   OH258503   5.216   3.687   0.183  0.3020 -0.3525  0.1744
12363TIP3    H158504   5.307   3.667   0.161 -0.0427 -0.3519 -1.2829
12363TIP3    H258505   5.164   3.646   0.114 -0.8083 -0.2635  0.9302
12364TIP3   OH258506   0.488   1.285  16.363 -0.2739  0.1559 -0.1872
12364TIP3    H158507   0.572   1.328  16.376 -0.3857 -0.1935  1.7404
12364TIP3    H258508   0.507   1.214  16.301  0.5468  0.9654 -0.8667
12365TIP3   OH258509   2.239   1.409   1.327 -0.1113  0.3819  0.2010
12365TIP3    H158510   2.232   1.402   1.422 -1.6628 -1.1750  0.0048
12365TIP3    H258511   2.323   1.452   1.312  1.1536 -1.2908  2.2175
12366TIP3   OH258512   5.271   2.439  12.181 -0.3359 -0.3748  0.6158
12366TIP3    H158513   5.185   2.479  12.194 -0.2540  0.7093 -1.9623
12366TIP3    H258514   5.332   2.512  12.174  0.4671 -1.0598  0.2372
12367TIP3   OH258515   5.894   5.977   1.540  0.0486 -0.5342  0.3087
12367TIP3    H158516   5.843   5.927   1.477 -0.0377  0.0152 -0.0582
12367TIP3    H258517   5.914   5.914   1.610 -0.7010 -0.8814  0.2155
12368TIP3   OH258518   4.441   2.892   0.972 -0.2376 -0.2477  0.1883
12368TIP3    H158519   4.510   2.955   0.994  1.7047 -2.0864 -0.5032
12368TIP3    H258520   4.362   2.946   0.965  0.7111  1.6027  2.9750
12369TIP3   OH258521   2.905   2.126   3.203 -0.2459  0.2589  0.0486
12369TIP3    H158522   2.829   2.074   3.231  0.5393 -2.0975 -2.0401
12369TIP3    H258523   2.959   2.132   3.282  0.8246 -4.3166 -0.1940
12370TIP3   OH258524   3.437   4.363   4.327 -0.6733 -0.2476 -0.1377
12370TIP3    H158525   3.405   4.319   4.406  0.4892 -2.5398 -0.8841
12370TIP3    H258526   3.533   4.361   4.336 -0.5275 -0.6416 -1.6227
12371TIP3   OH258527   6.400   1.332  12.366  0.3248  0.6177 -0.1543
12371TIP3    H158528   6.359   1.343  12.452 -1.9056 -2.6973 -0.7006
12371TIP3    H258529   6.354   1.395  12.310 -1.2472 -0.2205  0.1563
12372TIP3   OH258530   1.156   6.212   5.255 -0.1848  0.2476  0.9475
12372TIP3    H158531   1.183   6.143   5.195  0.5322  1.0226  0.3751
12372TIP3    H258532   1.070   6.240   5.223  1.3759  2.5547 -1.3944
12373TIP3   OH258533   3.190   1.980   3.493  0.4393 -0.1559 -0.1138
12373TIP3    H158534   3.117   2.041   3.502 -0.2750 -1.1658  1.1951
12373TIP3    H258535   3.156   1.909   3.439  0.3866 -0.6951  0.6122
12374TIP3   OH258536   3.267   2.958   4.921 -0.3160 -1.1109  0.0154
12374TIP3    H158537   3.173   2.959   4.903 -0.5166 -0.2869  1.0327
12374TIP3    H258538   3.279   3.030   4.983  1.1951 -0.3316 -1.1613
12375TIP3   OH258539   1.181   0.647   0.936  0.2886 -0.0434  0.5797
12375TIP3    H158540   1.127   0.587   0.987  0.1313 -1.2118 -0.9110
12375TIP3    H258541   1.118   0.701   0.887  0.4226 -1.4374 -1.1956
12376TIP3   OH258542   5.774   3.115   6.129  0.4269 -0.1470 -0.0882
12376TIP3    H158543   5.692   3.122   6.081  0.2822  2.9870  0.5355
12376TIP3    H258544   5.819   3.040   6.089 -1.5915 -0.3087 -2.1485
12377TIP3   OH258545   5.692   4.835   0.223 -0.4018  0.2075  0.1277
12377TIP3    H158546   5.741   4.795   0.151  1.5879 -0.6784  1.9001
12377TIP3    H258547   5.648   4.761   0.265 -3.0214  0.9488 -1.2145
12378TIP3   OH258548   4.906   5.387   2.662  0.6730 -0.4339 -0.1303
12378TIP3    H158549   4.932   5.297   2.683  0.1363 -0.7787 -0.9021
12378TIP3    H258550   4.928   5.397   2.569 -0.3714 -0.1583 -0.3481
12379TIP3   OH258551   4.472   2.544  12.625 -0.5048 -0.0886  0.7032
12379TIP3    H158552   4.525   2.481  12.576  0.5472  1.1267  0.2477
12379TIP3    H258553   4.517   2.554  12.709 -0.7382 -0.0448  0.8236
12380TIP3   OH258554   3.710   4.090  12.012  0.2193 -0.3038 -0.3355
12380TIP3    H158555   3.790   4.097  12.064  0.2179  1.5350 -0.5432
12380TIP3    H258556   3.640   4.116  12.071  0.0493  0.3412 -0.8082
12381TIP3   OH258557   4.419   2.507   4.629  1.1870 -0.5286 -0.0860
12381TIP3    H158558   4.468   2.475   4.554 -0.3129  0.5731 -1.5645
12381TIP3    H258559   4.331   2.471   4.617  0.4757  1.0750  0.1953
12382TIP3   OH258560   2.562   2.584  11.527 -0.5652 -0.1815  0.1227
12382TIP3    H158561   2.580   2.663  11.579 -1.2411  1.2501 -1.7776
12382TIP3    H258562   2.524   2.617  11.445  1.5725 -2.2994 -1.7934
12383TIP3   OH258563   2.658   3.592   4.008  0.0222  0.2920 -0.1898
12383TIP3    H158564   2.628   3.507   3.977 -2.4951  0.4499  1.6061
12383TIP3    H258565   2.747   3.576   4.040  0.0599 -1.3535 -1.0528
12384TIP3   OH258566   5.600   6.399  16.958  0.1798 -0.8108 -0.3629
12384TIP3    H158567   5.656   6.327  16.928  0.0618 -1.1323  0.1877
12384TIP3    H258568   5.662   6.468  16.982  0.3440 -1.1705  0.2574
12385TIP3   OH258569   3.053   3.666  13.799  0.5187 -0.0395  0.3028
12385TIP3    H158570   2.975   3.649  13.745 -0.7655 -1.8453  2.6052
12385TIP3    H258571   3.034   3.749  13.843  0.6505  0.3870 -0.4460
12386TIP3   OH258572   1.349   4.332  14.325  0.0403 -1.1609  0.3206
12386TIP3    H158573   1.290   4.356  14.397 -1.3233  3.3935 -2.1195
12386TIP3    H258574   1.291   4.311  14.252  1.3603 -0.5947 -0.9307
12387TIP3   OH258575   6.223   6.498  13.287  0.1752  0.0578 -0.2352
12387TIP3    H158576   6.288   6.473  13.353 -1.1554  1.0275  1.4729
12387TIP3    H258577   6.142   6.511  13.336 -1.5756 -2.0062 -2.4546
12388TIP3   OH258578   2.701   5.187   0.920  0.6442 -0.5855  0.3812
12388TIP3    H158579   2.737   5.190   1.009 -0.2983 -1.6458  0.8262
12388TIP3    H258580   2.640   5.261   0.916  2.3444  0.7989 -0.1446
12389TIP3   OH258581   3.548   5.890  15.567 -0.3452  0.0514 -0.3822
12389TIP3    H158582   3.469   5.836  15.570  0.0997 -0.5406  0.6339
12389TIP3    H258583   3.612   5.837  15.520  0.5064 -0.8523  1.7835
12390TIP3   OH258584   3.196   0.307  11.509 -0.8003 -0.0292  0.4528
12390TIP3    H158585   3.164   0.268  11.591 -0.5555  1.3626  1.2411
12390TIP3    H258586   3.148   0.262  11.440 -2.6078  0.2806  1.4900
12391TIP3   OH258587   0.421   4.290  14.604  0.3141 -0.0774  0.8611
12391TIP3    H158588   0.341   4.237  14.607  0.3273 -0.0299  2.3166
12391TIP3    H258589   0.492   4.227  14.611  0.4534 -0.1754 -1.0231
12392TIP3   OH258590   6.423   5.625  11.126  0.5269  0.0338 -0.1028
12392TIP3    H158591   6.466   5.542  11.148  0.7123  0.1947  0.1411
12392TIP3    H258592   6.399   5.616  11.034 -0.4267 -0.7203  0.2098
12393TIP3   OH258593   6.575   1.877   4.293  0.2261  0.3772 -0.2441
12393TIP3    H158594   6.656   1.916   4.260 -0.0017  1.1603  0.1179
12393TIP3    H258595   6.581   1.887   4.388  1.2597 -2.6067  0.0481
12394TIP3   OH258596   0.685   4.639   0.113  0.6269  0.0551  0.4982
12394TIP3    H158597   0.697   4.665   0.022 -1.6165  0.7441  0.3767
12394TIP3    H258598   0.604   4.588   0.113 -0.1790  1.2935  2.3250
12395TIP3   OH258599   3.718   2.464   2.140  0.2819  0.4133  0.2036
12395TIP3    H158600   3.783   2.419   2.192  0.7697  0.0571 -0.6951
12395TIP3    H258601   3.643   2.404   2.137 -0.2642  1.0001  1.5831
12396TIP3   OH258602   0.293   6.727  13.078 -0.1087 -0.0684  0.3581
12396TIP3    H158603   0.300   6.814  13.038  0.6308 -0.6554 -0.8356
12396TIP3    H258604   0.210   6.728  13.125  0.1602  1.4766  0.8170
12397TIP3   OH258605   3.410   0.077   3.337  0.0109  0.4852  0.0624
12397TIP3    H158606   3.497   0.079   3.377 -0.3797 -1.1553  1.0371
12397TIP3    H258607   3.353   0.039   3.404 -1.3435  0.9656 -0.7937
12398TIP3   OH258608   0.063   6.325  16.495 -0.3397 -0.0543  0.4706
12398TIP3    H158609   0.047   6.247  16.548 -0.9372  0.3298  0.8529
12398TIP3    H258610  -0.024   6.354  16.468 -0.0576 -0.1760 -0.6232
12399TIP3   OH258611   2.406   0.490   0.141 -0.0704  0.7518 -0.3966
12399TIP3    H158612   2.444   0.485   0.229 -0.1166  1.9568 -0.2980
12399TIP3    H258613   2.398   0.399   0.114 -0.5359  0.3421  1.0546
12400TIP3   OH258614   2.318   0.717   6.351 -0.1139  0.2713 -0.0561
12400TIP3    H158615   2.352   0.774   6.420  1.7851  1.3050 -1.8125
12400TIP3    H258616   2.287   0.778   6.283 -1.2921 -0.7484 -0.4600
12401TIP3   OH258617   2.100   1.132  15.040 -0.4265  0.0774 -0.5175
12401TIP3    H158618   2.018   1.083  15.031 -0.4868 -0.3851  2.1712
12401TIP3    H258619   2.085   1.193  15.112  1.5165  0.1459 -0.1275
12402TIP3   OH258620   2.083   3.971   2.502  0.4037 -0.5148 -0.2391
12402TIP3    H158621   2.161   3.917   2.520  0.7288  0.4290  1.3244
12402TIP3    H258622   2.117   4.051   2.462  0.0683 -0.7950 -1.0980
12403TIP3   OH258623   1.114   3.363  16.779 -0.0362  0.1282 -1.2304
12403TIP3    H158624   1.081   3.407  16.701 -0.4610  0.8820 -0.6381
12403TIP3    H258625   1.147   3.434  16.835 -0.6410 -0.3062 -0.3040
12404TIP3   OH258626   2.045   6.208  14.512 -0.1574 -0.6305 -0.1507
12404TIP3    H158627   2.041   6.298  14.544 -3.8504 -1.3825  1.7844
12404TIP3    H258628   2.011   6.212  14.423 -0.2555 -0.1158 -0.0877
12405TIP3   OH258629   5.511   0.965  16.525  0.0586  0.0357  0.1722
12405TIP3    H158630   5.552   0.917  16.597  0.4468  1.2997  0.8031
12405TIP3    H258631   5.426   0.922  16.512  0.4569 -0.8980  0.6373
12406TIP3   OH258632   5.474   4.105  12.224 -0.6336  0.2656  0.5687
12406TIP3    H158633   5.443   4.119  12.135 -0.1647 -1.2409  0.1516
12406TIP3    H258634   5.553   4.158  12.231  0.8751 -1.7309 -0.8367
12407TIP3   OH258635   1.802   4.605  12.681  0.5953 -0.3808  0.1223
12407TIP3    H158636   1.828   4.513  12.673  1.6162 -0.0586 -0.2321
12407TIP3    H258637   1.789   4.617  12.775  1.4648 -0.6080  0.2735
12408TIP3   OH258638   6.187   4.530  11.720  0.4248  0.3766  0.3224
12408TIP3    H158639   6.228   4.454  11.678 -0.6468 -0.6647  1.1152
12408TIP3    H258640   6.239   4.543  11.800  0.5100  0.3776  0.2675
12409TIP3   OH258641   0.708   2.996  15.577  0.1293  0.6936  0.1313
12409TIP3    H158642   0.696   3.074  15.524 -3.2269 -0.4368 -0.8555
12409TIP3    H258643   0.705   2.923  15.515  0.2714 -0.3983  1.3669
12410TIP3   OH258644   5.042   4.401   3.287  0.2786  0.3747 -0.1154
12410TIP3    H158645   5.070   4.480   3.334 -1.1355  0.6528  0.2949
12410TIP3    H258646   4.994   4.350   3.353 -2.2747  1.0607 -1.3844
12411TIP3   OH258647   0.753   3.102  13.443 -0.6796 -0.3215  0.6946
12411TIP3    H158648   0.809   3.174  13.417 -2.6283  1.5590  1.5728
12411TIP3    H258649   0.813   3.028  13.456  1.2729  0.9672 -0.7130
12412TIP3   OH258650   4.409   2.593  16.012 -0.3034  0.6378 -0.1755
12412TIP3    H158651   4.429   2.686  16.019 -0.4778  0.7144 -0.6273
12412TIP3    H258652   4.383   2.581  15.920 -1.3735  0.3585  0.1559
12413TIP3   OH258653   0.558   1.966  14.772 -0.1852  0.2871  0.0735
12413TIP3    H158654   0.464   1.975  14.792  0.4222  1.7595  2.6161
12413TIP3    H258655   0.579   1.876  14.794 -0.6878  0.4107  1.0972
12414TIP3   OH258656   3.478   0.611  12.954 -0.5972  0.0226  0.2358
12414TIP3    H158657   3.427   0.658  12.887  2.0895  1.9062 -0.5912
12414TIP3    H258658   3.455   0.653  13.036 -0.8695  0.4158 -0.0392
12415TIP3   OH258659   4.872   0.266   0.835 -0.4176  0.1559  0.3335
12415TIP3    H158660   4.792   0.233   0.875 -0.5338  0.4882  0.3714
12415TIP3    H258661   4.844   0.299   0.749 -0.4755  1.0911  0.7082
12416TIP3   OH258662   0.420   6.189  10.575 -0.3492  0.3681  0.1118
12416TIP3    H158663   0.448   6.134  10.501 -1.9989 -1.3458  0.7125
12416TIP3    H258664   0.496   6.192  10.633  0.9348  1.6418 -1.5830
12417TIP3   OH258665   4.926   4.144  12.320 -0.3113  0.1349 -0.0721
12417TIP3    H158666   4.985   4.200  12.371  1.8274 -2.5301  0.5051
12417TIP3    H258667   4.878   4.093  12.386 -0.3697 -0.5453 -0.6299
12418TIP3   OH258668   5.062   4.006  10.721 -0.3157  0.3019  0.4293
12418TIP3    H158669   5.000   4.026  10.791 -0.9714 -0.3420  0.0451
12418TIP3    H258670   5.143   4.050  10.746 -0.3023 -0.6021  2.0177
12419TIP3   OH258671   1.255   5.777   0.747  0.4303 -0.0397 -0.2208
12419TIP3    H158672   1.201   5.791   0.669  0.7431 -1.1987 -0.6580
12419TIP3    H258673   1.295   5.691   0.733  1.3112  0.2079  0.7357
12420TIP3   OH258674   2.272   6.085   0.095  0.1382 -0.2195  0.4411
12420TIP3    H158675   2.287   6.151   0.028  2.7200 -2.0284 -0.8283
12420TIP3    H258676   2.205   6.028   0.058 -2.0006  1.5381  1.4852
12421TIP3   OH258677   0.530   0.112  15.980  0.2848  0.3650 -0.3429
12421TIP3    H158678   0.536   0.207  15.982 -0.4945  0.4501 -1.7322
12421TIP3    H258679   0.459   0.091  16.041 -0.3480  0.7533 -0.9465
12422TIP3   OH258680   5.919   4.064   0.153 -0.2503 -0.2072 -0.2049
12422TIP3    H158681   5.998   4.079   0.101  0.0121 -1.6901 -0.2530
12422TIP3    H258682   5.917   4.138   0.215  0.8215  0.1795 -0.6154
12423TIP3   OH258683   5.824   3.274   0.208 -0.2458 -0.1778  0.0502
12423TIP3    H158684   5.880   3.315   0.274 -0.9251  0.4286  0.2659
12423TIP3    H258685   5.866   3.293   0.125  0.2606 -0.3652  0.2659
12424TIP3   OH258686   5.171   4.519  16.163 -0.2056  0.2465 -0.3519
12424TIP3    H158687   5.134   4.524  16.075  1.6308 -1.9761 -1.2867
12424TIP3    H258688   5.265   4.526  16.150  0.0259  0.8976  1.5493
12425TIP3   OH258689   3.599   2.900  13.838 -0.3082 -0.0315 -0.4064
12425TIP3    H158690   3.651   2.867  13.764  0.7677  0.2611  0.2099
12425TIP3    H258691   3.583   2.822  13.892  1.1989  0.2123  0.4234
12426TIP3   OH258692   6.673   3.684  16.101  0.9244  0.3754 -0.0229
12426TIP3    H158693   6.652   3.595  16.131 -1.5845  1.0364  0.2606
12426TIP3    H258694   6.631   3.692  16.016  2.0719  0.9231 -0.5424
12427TIP3   OH258695   0.787   5.309   1.026 -0.6900 -0.0362 -0.0290
12427TIP3    H158696   0.729   5.304   0.951 -1.3201 -1.3833  0.5253
12427TIP3    H258697   0.734   5.350   1.095 -0.9112 -1.0038  0.3901
12428TIP3   OH258698   6.353   0.966   5.478 -0.1444 -0.1637 -0.1493
12428TIP3    H158699   6.394   1.034   5.532  0.2518  0.0782 -0.7541
12428TIP3    H258700   6.303   0.913   5.541 -2.0162  1.7970  0.0706
12429TIP3   OH258701   2.534   5.696   3.958 -0.0845 -0.0219 -0.4387
12429TIP3    H158702   2.474   5.714   3.886 -0.6917  0.0261  0.0778
12429TIP3    H258703   2.572   5.781   3.980  2.2943 -0.4456 -2.6065
12430TIP3   OH258704   0.245   5.529  15.319  0.2174  0.3508  0.4705
12430TIP3    H158705   0.212   5.500  15.234  0.4682 -0.3884  0.6234
12430TIP3    H258706   0.267   5.621  15.305  1.4866 -0.1037 -0.6445
12431TIP3   OH258707   0.930   2.686  12.115  0.1714 -0.1334 -0.4040
12431TIP3    H158708   0.983   2.646  12.183  0.7573  0.4249 -0.5206
12431TIP3    H258709   0.943   2.780  12.127 -0.2996 -0.0115 -0.8236
12432TIP3   OH258710   2.407   0.095  13.403 -0.3050  0.1475  0.0039
12432TIP3    H158711   2.476   0.039  13.438 -1.6150 -1.4845  0.0289
12432TIP3    H258712   2.449   0.145  13.333  1.2087  0.1276  0.8766
12433TIP3   OH258713   5.663   3.104   1.180  0.0763 -0.5543  0.1350
12433TIP3    H158714   5.573   3.132   1.167 -0.0199 -1.3445 -0.9808
12433TIP3    H258715   5.691   3.147   1.261 -0.2259  2.3398 -1.2506
12434TIP3   OH258716   5.040   1.515   2.064  0.0962 -0.9274 -0.0557
12434TIP3    H158717   5.051   1.540   1.972 -0.5238 -0.3279  0.0228
12434TIP3    H258718   4.979   1.581   2.098  2.0851  0.2237  1.3594
12435TIP3   OH258719   4.859   0.774   5.799 -0.0570 -0.0564  0.3785
12435TIP3    H158720   4.865   0.831   5.875 -0.7006 -0.5237  0.7857
12435TIP3    H258721   4.927   0.805   5.740 -0.0665  0.8022  0.8153
12436TIP3   OH258722   3.222   0.867  16.506 -0.4012  0.2238  0.0297
12436TIP3    H158723   3.132   0.879  16.535 -0.5167 -1.1874  0.2509
12436TIP3    H258724   3.275   0.881  16.585 -0.2367  3.2423 -0.5291
12437TIP3   OH258725   2.634   5.271   1.602 -0.2763 -0.0306 -0.1079
12437TIP3    H158726   2.694   5.240   1.669 -0.5862 -1.4073 -0.4513
12437TIP3    H258727   2.688   5.286   1.524 -0.1623  0.1020 -0.0031
12438TIP3   OH258728   1.258   1.003   0.144 -1.2504  0.1254  0.3068
12438TIP3    H158729   1.300   1.089   0.140 -1.7734  0.3899  0.3738
12438TIP3    H258730   1.330   0.940   0.146 -0.8661  0.5018 -1.1023
12439TIP3   OH258731   3.359   1.114   6.483 -0.4808  0.1038  0.3081
12439TIP3    H158732   3.413   1.040   6.511  0.0014  0.9128  1.5771
12439TIP3    H258733   3.294   1.123   6.552  0.0274  1.4284  0.6369
12440TIP3   OH258734   2.789   4.495  12.609  0.1841  0.1228 -0.1585
12440TIP3    H158735   2.799   4.447  12.527  0.6119 -1.4470  0.7868
12440TIP3    H258736   2.709   4.459  12.647  0.2633  0.4866  0.3441
12441TIP3   OH258737   3.872   3.715   4.173  0.1033 -0.5579  0.0736
12441TIP3    H158738   3.914   3.799   4.159 -0.7017 -0.3361 -1.0606
12441TIP3    H258739   3.813   3.730   4.247 -0.5647  0.0691 -0.5809
12442TIP3   OH258740   0.015   4.444  16.570 -0.7073 -0.4826 -0.0717
12442TIP3    H158741   0.039   4.534  16.594 -1.5081 -0.2673 -0.0685
12442TIP3    H258742  -0.007   4.402  16.653  2.5185 -1.5656  0.3015
12443TIP3   OH258743   0.099   1.440  11.912  0.0953 -0.4929 -0.1357
12443TIP3    H158744   0.135   1.352  11.902  1.4690  0.0490 -0.0761
12443TIP3    H258745   0.176   1.497  11.921 -0.7316  0.8275 -1.0963
12444TIP3   OH258746   2.870   2.859   2.193 -0.2451 -0.5171 -0.0169
12444TIP3    H158747   2.964   2.843   2.207  0.9188  1.1893 -4.7734
12444TIP3    H258748   2.833   2.771   2.180  1.5975 -1.0161 -2.4096
12445TIP3   OH258749   0.706   3.613   5.001 -0.2545  0.3227  0.6471
12445TIP3    H158750   0.632   3.664   4.967 -1.1960 -0.1642  1.9356
12445TIP3    H258751   0.673   3.573   5.081  1.2348 -0.3766  0.9285
12446TIP3   OH258752   1.436   5.542  15.332 -0.0203  0.1490 -0.0454
12446TIP3    H158753   1.485   5.624  15.327 -1.1399  0.8352 -0.0126
12446TIP3    H258754   1.463   5.503  15.415 -0.0792  0.8805  0.3236
12447TIP3   OH258755   2.177   3.015  17.143  0.0947 -0.6026 -0.4433
12447TIP3    H158756   2.188   3.102  17.104  0.8658 -0.2333  0.5921
12447TIP3    H258757   2.083   3.008  17.160 -0.0130 -0.0991 -0.8089
12448TIP3   OH258758   5.443   6.592   5.021  0.1436  0.0055 -0.0472
12448TIP3    H158759   5.474   6.596   5.112  0.4474  1.9464 -0.2036
12448TIP3    H258760   5.348   6.602   5.028  0.2484  1.0422  0.0204
12449TIP3   OH258761   2.204   1.467   5.886  0.0508  0.0311  0.4292
12449TIP3    H158762   2.197   1.384   5.839 -0.2960  0.2589  0.0743
12449TIP3    H258763   2.209   1.442   5.979  1.4260 -0.4492  0.2352
12450TIP3   OH258764   4.334   5.178   6.374 -0.0041 -0.2699  0.3697
12450TIP3    H158765   4.324   5.112   6.442 -0.5551  0.2143  0.7555
12450TIP3    H258766   4.340   5.261   6.421 -1.6087  0.1943 -0.2295
12451TIP3   OH258767   2.132   1.831  16.536 -0.4033  0.1553 -0.0493
12451TIP3    H158768   2.137   1.926  16.548  0.0998  0.1423 -0.1485
12451TIP3    H258769   2.054   1.805  16.585 -1.6414  0.8616 -1.5996
12452TIP3   OH258770   5.088   1.883  12.809 -0.2354  0.2586  0.1197
12452TIP3    H158771   5.146   1.891  12.884 -0.8401  0.4452  0.5746
12452TIP3    H258772   5.126   1.941  12.742  1.1400 -1.0543 -0.2606
12453TIP3   OH258773   3.013   4.205  15.173 -0.0776  0.2852 -0.0386
12453TIP3    H158774   3.048   4.139  15.113 -2.2046 -0.2896 -0.6650
12453TIP3    H258775   2.935   4.165  15.211 -0.5871  1.8992  0.6625
12454TIP3   OH258776   1.295   4.605  13.942 -0.1039 -0.1278 -0.1870
12454TIP3    H158777   1.328   4.523  13.978 -0.4442  0.4981  1.5895
12454TIP3    H258778   1.290   4.665  14.017 -0.9030  1.1817 -1.2487
12455TIP3   OH258779   4.332   3.294  15.592  0.2757 -0.3274 -0.5564
12455TIP3    H158780   4.409   3.242  15.614  0.6847 -0.2954 -1.8782
12455TIP3    H258781   4.353   3.333  15.508 -0.6941  0.6740 -0.3448
12456TIP3   OH258782   5.642   4.096  15.390  0.4466 -0.0622  0.1578
12456TIP3    H158783   5.685   4.151  15.456 -0.9216  0.8670  0.3150
12456TIP3    H258784   5.704   4.025  15.373  1.3852  0.4199  1.4617
12457TIP3   OH258785   3.700   4.386   2.338  0.1042 -0.4269  1.0594
12457TIP3    H158786   3.728   4.305   2.296 -1.7183 -0.4677 -0.0939
12457TIP3    H258787   3.625   4.361   2.392 -2.1795  0.9580 -1.4114
12458TIP3   OH258788   2.083   1.540  12.270  0.0432 -0.3343 -0.0586
12458TIP3    H158789   1.992   1.549  12.295 -0.1715 -0.7010 -0.6911
12458TIP3    H258790   2.126   1.502  12.346 -0.4629 -0.7951 -0.0085
12459TIP3   OH258791   0.268   0.237  11.440  0.4411  0.1579  0.0880
12459TIP3    H158792   0.270   0.150  11.479  0.1810 -0.1033 -0.4581
12459TIP3    H258793   0.175   0.255  11.427  0.5426  0.0234 -0.8670
12460TIP3   OH258794   1.694   0.163  13.718 -0.1964 -0.2502  0.2222
12460TIP3    H158795   1.680   0.255  13.695  2.5987 -0.3211 -2.0214
12460TIP3    H258796   1.625   0.116  13.671  1.4762  0.2613 -2.8709
12461TIP3   OH258797   3.717   0.400  12.642  0.4449  0.2009  0.2633
12461TIP3    H158798   3.805   0.406  12.605  0.8662 -1.3931  0.9784
12461TIP3    H258799   3.676   0.327  12.596 -1.1348  1.9985 -1.2903
12462TIP3   OH258800   5.771   1.931  15.288 -0.2264 -0.1168 -0.2590
12462TIP3    H158801   5.705   1.939  15.358  2.0037  1.5460  1.7258
12462TIP3    H258802   5.724   1.955  15.208 -1.6644  2.6354  1.3352
12463TIP3   OH258803   5.097   3.985   2.739  0.1878  0.4010  0.2887
12463TIP3    H158804   5.188   4.007   2.723  0.1869 -1.7064 -3.1700
12463TIP3    H258805   5.100   3.899   2.781 -0.1886  0.7776  1.0973
12464TIP3   OH258806   4.992   5.480  13.683  0.4260  0.1602 -0.2600
12464TIP3    H158807   5.074   5.453  13.643  0.3231 -0.2336 -0.2037
12464TIP3    H258808   4.998   5.449  13.773  0.5597  0.8435 -0.0311
12465TIP3   OH258809   1.860   6.090   3.530 -0.4550  0.0614  0.0450
12465TIP3    H158810   1.812   6.092   3.613 -0.1654 -1.0609  0.2455
12465TIP3    H258811   1.799   6.050   3.468  0.0991 -1.0786  0.2272
12466TIP3   OH258812   6.619   3.269  14.576 -0.6037 -0.2345 -0.3645
12466TIP3    H158813   6.533   3.235  14.601 -0.6607 -0.7096 -1.1725
12466TIP3    H258814   6.608   3.364  14.572 -1.1336 -0.3051 -0.6204
12467TIP3   OH258815   6.457   0.782  13.097 -0.6597 -0.3686 -0.7620
12467TIP3    H158816   6.535   0.771  13.043 -1.1026 -3.2111 -0.9156
12467TIP3    H258817   6.488   0.775  13.187 -0.6706 -1.2008 -0.8160
12468TIP3   OH258818   2.067   6.226  17.193  0.0030  0.3339  0.0469
12468TIP3    H158819   2.008   6.188  17.259  2.2492 -0.0283  1.8952
12468TIP3    H258820   2.071   6.319  17.217  0.2363  0.3447 -0.0423
12469TIP3   OH258821   5.133   2.708  12.423 -0.9621  0.4838  0.3299
12469TIP3    H158822   5.076   2.762  12.368 -1.8649 -0.9940 -0.1921
12469TIP3    H258823   5.099   2.619  12.413  1.2150 -0.3637  0.2848
12470TIP3   OH258824   1.851   1.781  16.666 -0.3579  0.0157 -0.5104
12470TIP3    H158825   1.828   1.797  16.575 -0.2454 -0.1125 -0.5626
12470TIP3    H258826   1.844   1.867  16.708 -0.1166  0.1283 -0.7056
12471TIP3   OH258827   4.115   1.464  11.022 -0.1317  0.4799  0.2641
12471TIP3    H158828   4.072   1.541  11.058 -0.2130  1.1549 -1.2265
12471TIP3    H258829   4.132   1.486  10.931  2.1983 -0.2577  0.4644
12472TIP3   OH258830   0.979   0.908  11.990 -0.5964 -0.2449  0.0736
12472TIP3    H158831   0.904   0.909  11.931 -1.5299 -1.1995  1.2196
12472TIP3    H258832   0.944   0.877  12.073  0.8478  0.3710  0.9408
12473TIP3   OH258833   5.347   6.767   0.235 -0.4248 -0.0649  0.2498
12473TIP3    H158834   5.384   6.803   0.316 -2.5698  1.0596  0.7546
12473TIP3    H258835   5.365   6.834   0.169  0.4155 -0.5295 -0.0053
12474TIP3   OH258836   3.087   5.748  14.088  0.2732 -0.3763 -0.2543
12474TIP3    H158837   3.099   5.678  14.024  1.9399 -0.7507  0.4436
12474TIP3    H258838   3.022   5.713  14.149  0.1614 -0.8126 -0.6199
12475TIP3   OH258839   3.147   1.081   0.054  0.4511 -1.0735  0.4465
12475TIP3    H158840   3.227   1.029   0.062  1.5360  0.1788 -2.0169
12475TIP3    H258841   3.177   1.171   0.051 -1.1266 -0.5394  0.4144
12476TIP3   OH258842   5.860   0.901   0.549  0.0698 -0.0939  0.0748
12476TIP3    H158843   5.930   0.921   0.486 -0.2357  1.3985  0.1805
12476TIP3    H258844   5.782   0.891   0.495  0.0372 -0.0033  0.1042
12477TIP3   OH258845   6.239   1.704  15.867  0.5492 -0.4708 -0.0731
12477TIP3    H158846   6.273   1.695  15.778  0.5970  1.1776 -0.2372
12477TIP3    H258847   6.269   1.790  15.896  0.0917 -0.7698  1.3531
12478TIP3   OH258848   4.487   2.339  14.605  0.0011  0.0658  0.0942
12478TIP3    H158849   4.471   2.262  14.661  1.9177 -0.0246  0.5789
12478TIP3    H258850   4.401   2.379  14.593 -0.8293 -1.4288  0.9173
12479TIP3   OH258851   4.126   6.265  15.115 -0.0598 -0.3980 -0.3179
12479TIP3    H158852   4.207   6.294  15.156  0.3406 -0.8558 -0.7837
12479TIP3    H258853   4.061   6.272  15.185 -0.2971  2.9786 -0.8017
12480TIP3   OH258854   0.360   4.943   1.736  0.1751  0.4719  0.7356
12480TIP3    H158855   0.374   4.908   1.648 -2.5133  1.1516  0.0162
12480TIP3    H258856   0.391   5.034   1.731  0.6735  0.3020  0.6968
12481TIP3   OH258857   3.979   2.301   5.650  0.1051 -0.1215  0.2320
12481TIP3    H158858   3.965   2.395   5.658 -1.6662 -0.3080 -0.3954
12481TIP3    H258859   3.954   2.266   5.735  0.5833 -0.0409  0.4046
12482TIP3   OH258860   0.538   4.166   4.561  0.3362  0.0821 -0.2279
12482TIP3    H158861   0.558   4.259   4.569 -0.5789  0.0801  2.5902
12482TIP3    H258862   0.461   4.154   4.616  1.2091 -2.5794  0.4632
12483TIP3   OH258863   6.709   5.086  12.677 -0.0119  0.5249 -0.0648
12483TIP3    H158864   6.666   5.104  12.761  0.8111  2.8022 -0.0933
12483TIP3    H258865   6.640   5.096  12.612  0.0368  1.9746  0.0851
12484TIP3   OH258866   2.783   1.252  13.589  0.3412 -0.6889  0.3624
12484TIP3    H158867   2.875   1.244  13.616  0.4735 -1.8224 -0.4006
12484TIP3    H258868   2.763   1.345  13.603  1.7786 -0.2974  0.0198
12485TIP3   OH258869   5.957   5.486  13.061 -0.0892 -0.2619  0.3036
12485TIP3    H158870   5.927   5.425  12.993 -1.0782 -0.2010  0.6771
12485TIP3    H258871   6.044   5.512  13.032 -0.9287  0.6178 -1.5381
12486TIP3   OH258872   6.361   1.167   5.678  0.0152 -1.0616  0.3617
12486TIP3    H158873   6.375   1.255   5.712  0.3083 -0.7100 -0.6587
12486TIP3    H258874   6.266   1.160   5.668  0.0679 -0.4748 -0.5716
12487TIP3   OH258875   0.144   0.338   2.739  0.2559 -0.0397  0.5579
12487TIP3    H158876   0.108   0.425   2.721  0.3729  0.1746  1.3574
12487TIP3    H258877   0.078   0.295   2.793  0.6418 -0.0831  1.0040
12488TIP3   OH258878   2.971   3.646  12.793 -0.8129  0.5126  0.3694
12488TIP3    H158879   2.970   3.742  12.790 -0.3626  0.5064 -0.0139
12488TIP3    H258880   3.064   3.623  12.787 -0.8280  0.0897  1.5521
12489TIP3   OH258881   4.967   2.465  12.944 -0.7198  0.1626  0.6232
12489TIP3    H158882   4.901   2.430  13.005 -0.0878 -0.7336  0.8045
12489TIP3    H258883   5.051   2.437  12.981 -0.2237  1.4580  0.4818
12490TIP3   OH258884   6.777   3.959  11.288 -0.0861  0.2312  0.0370
12490TIP3    H158885   6.687   3.927  11.278 -0.3950  1.4273 -1.2331
12490TIP3    H258886   6.801   3.989  11.201  2.0113 -1.2176  0.0944
12491TIP3   OH258887   3.356   3.381  11.565 -0.0612  0.4906 -0.6741
12491TIP3    H158888   3.400   3.325  11.501 -0.7534  0.2825 -0.9763
12491TIP3    H258889   3.415   3.456  11.577  0.6365 -0.0635 -0.6366
12492TIP3   OH258890   5.070   5.356  14.378  0.3238 -0.2023 -0.4632
12492TIP3    H158891   5.046   5.263  14.382  0.0925 -0.0691  2.6484
12492TIP3    H258892   4.993   5.399  14.342 -0.6437 -0.9044  0.7290
12493TIP3   OH258893   4.751   6.360  16.939 -0.2595 -0.5334 -0.0253
12493TIP3    H158894   4.811   6.297  16.979 -1.1047 -1.3474 -0.0234
12493TIP3    H258895   4.665   6.335  16.973 -0.2899  2.4157  2.3253
12494TIP3   OH258896   4.799   2.033   0.533  0.3615  0.0239  0.0494
12494TIP3    H158897   4.781   1.986   0.614 -0.5208  0.9025  0.3695
12494TIP3    H258898   4.861   2.102   0.559  0.5648 -0.0788 -0.1531
12495TIP3   OH258899   5.355   3.023  11.649 -0.3838  0.4000 -0.4738
12495TIP3    H158900   5.317   2.943  11.612  1.9970 -0.8592 -0.2558
12495TIP3    H258901   5.390   3.071  11.574 -1.0014  0.8158 -0.5014
12496TIP3   OH258902   4.723   3.477   2.331 -0.0164 -0.4583  0.4570
12496TIP3    H158903   4.702   3.570   2.322 -0.8004 -0.6360  0.4157
12496TIP3    H258904   4.673   3.448   2.407 -2.3841 -1.5947 -1.4548
12497TIP3   OH258905   6.491   1.930  12.937  0.2618  0.1713 -0.2086
12497TIP3    H158906   6.406   1.974  12.942  0.0337 -0.3216  0.2710
12497TIP3    H258907   6.547   1.981  12.995 -0.6123 -1.5126  2.2450
12498TIP3   OH258908   6.046   2.423  15.409 -0.1813 -0.7323 -0.2526
12498TIP3    H158909   5.993   2.350  15.378 -0.9752 -0.8732  1.3737
12498TIP3    H258910   5.982   2.484  15.446  0.3716  1.2182 -2.3664
12499TIP3   OH258911   6.302   0.836  12.114  0.1704 -0.0026  0.4124
12499TIP3    H158912   6.218   0.859  12.072  0.8104  0.6108 -0.5661
12499TIP3    H258913   6.363   0.826  12.041  0.5918 -2.0395  1.0205
12500TIP3   OH258914   1.697   1.774  14.711  0.5176 -0.3800 -0.4368
12500TIP3    H158915   1.608   1.741  14.706  0.7304 -1.0427  0.0222
12500TIP3    H258916   1.748   1.700  14.746  1.1111  0.2292  0.0112
12501TIP3   OH258917   6.314   6.319  11.741 -0.1243  0.2529 -0.0594
12501TIP3    H158918   6.232   6.356  11.774 -0.2044 -0.6874  0.8253
12501TIP3    H258919   6.325   6.237  11.789 -1.2535 -2.2163 -3.8054
12502TIP3   OH258920   5.964   2.955  12.622 -0.4724  0.6143  0.3065
12502TIP3    H158921   5.953   2.981  12.530  0.5957 -2.5351 -0.7532
12502TIP3    H258922   5.889   2.898  12.639 -1.0163  1.6954  1.6372
12503TIP3   OH258923   6.359   5.336  16.334 -0.7344  0.7700  0.3348
12503TIP3    H158924   6.453   5.333  16.354 -1.0583 -0.2626  1.7553
12503TIP3    H258925   6.322   5.260  16.379 -2.1292  0.6738 -0.9426
12504TIP3   OH258926   4.287   6.031   0.590 -0.8287 -0.1000  0.2290
12504TIP3    H158927   4.231   5.988   0.655 -0.3729  0.2295  0.8484
12504TIP3    H258928   4.370   6.047   0.636 -0.9444  1.3306 -0.0165
12505TIP3   OH258929   0.460   2.236  11.549  0.4657  0.5691 -0.8762
12505TIP3    H158930   0.532   2.192  11.504  1.0248  0.9608 -0.3634
12505TIP3    H258931   0.487   2.240  11.641 -0.6793 -0.2388 -0.5001
12506TIP3   OH258932   0.818   5.303  13.657 -0.4212 -0.3403  0.5757
12506TIP3    H158933   0.861   5.219  13.641 -0.5754 -0.2276 -0.4639
12506TIP3    H258934   0.779   5.294  13.744 -1.6408 -1.8712 -0.1096
12507TIP3   OH258935   0.902   6.732  14.333  0.9186 -0.1154  0.2171
12507TIP3    H158936   0.954   6.717  14.413 -1.1337 -0.3941  1.5329
12507TIP3    H258937   0.883   6.826  14.334 -0.3344 -0.3716  0.8337
12508TIP3   OH258938   5.155   0.570   2.044 -0.2510 -0.0527 -0.0936
12508TIP3    H158939   5.148   0.661   2.072 -0.0306  0.1077 -0.5559
12508TIP3    H258940   5.241   0.542   2.074  0.1331  0.2278 -0.9095
12509TIP3   OH258941   1.797   5.105   5.068  0.5149  0.2594 -0.0102
12509TIP3    H158942   1.823   5.139   4.983  1.5027 -0.2704  0.0757
12509TIP3    H258943   1.706   5.077   5.055  1.2835 -1.6968 -1.4678
12510TIP3   OH258944   0.744   1.736   6.227 -0.4790 -0.0492  0.2250
12510TIP3    H158945   0.716   1.783   6.149 -0.9926 -0.7565 -0.0201
12510TIP3    H258946   0.771   1.650   6.195  1.7216  0.5129  0.4895
12511TIP3   OH258947   0.087   5.223  14.016  0.0928  0.1544 -0.1783
12511TIP3    H158948   0.143   5.220  14.094  1.6762 -0.2998 -1.3182
12511TIP3    H258949   0.127   5.290  13.960  0.2048 -1.0440 -1.5424
12512TIP3   OH258950   3.728   4.417  16.809 -0.3823  0.1497  0.1424
12512TIP3    H158951   3.758   4.379  16.727 -2.3281  0.2917 -0.6530
12512TIP3    H258952   3.738   4.347  16.873 -0.0250 -0.3651 -0.4669
12513TIP3   OH258953   0.672   3.891  13.180  0.2130  0.5524  0.0840
12513TIP3    H158954   0.601   3.871  13.119 -0.0405  0.6465  0.3457
12513TIP3    H258955   0.739   3.934  13.126  0.2217  0.1493 -0.2316
12514TIP3   OH258956   5.942   1.599  14.815 -0.6949  0.1461  0.4307
12514TIP3    H158957   5.901   1.514  14.830 -0.9372  0.4070  1.2731
12514TIP3    H258958   6.027   1.578  14.777 -1.3135 -0.4216 -0.6528
12515TIP3   OH258959   1.861   6.469  14.273 -0.3079 -0.2953 -0.4209
12515TIP3    H158960   1.872   6.522  14.352  0.6212 -0.6605 -0.2992
12515TIP3    H258961   1.801   6.520  14.219 -0.4592  0.2587  0.2524
12516TIP3   OH258962   6.591   0.976   2.131  0.7777  0.3404 -0.0557
12516TIP3    H158963   6.648   1.011   2.199  0.1413  0.8717  0.2035
12516TIP3    H258964   6.512   0.948   2.178  0.4554  0.4447 -0.5321
12517TIP3   OH258965   1.249   4.514   5.722 -0.2969 -0.0940  0.0001
12517TIP3    H158966   1.287   4.461   5.792  0.5125 -1.4998 -1.4813
12517TIP3    H258967   1.293   4.599   5.730 -0.7079 -0.0128  1.6048
12518TIP3   OH258968   3.394   0.522  15.927  0.4399 -0.2991 -0.7625
12518TIP3    H158969   3.319   0.566  15.888 -0.2849  0.6367  1.6178
12518TIP3    H258970   3.369   0.430  15.932 -1.7176  0.3748  2.4842
12519TIP3   OH258971   0.644   4.673   3.413 -0.8696  0.2924 -0.2802
12519TIP3    H158972   0.695   4.639   3.340  0.8169  1.6239  0.2346
12519TIP3    H258973   0.601   4.596   3.451  0.9871 -0.9045 -0.5574
12520TIP3   OH258974   2.063   2.926  13.035  0.2270 -0.4218  0.4329
12520TIP3    H158975   2.106   2.937  12.950 -0.2716 -1.1507  0.0822
12520TIP3    H258976   2.005   3.002  13.042 -0.5793 -0.9519 -0.3998
12521TIP3   OH258977   3.574   5.052   0.459  0.1938  0.6932 -0.5781
12521TIP3    H158978   3.535   4.993   0.523 -0.0177  1.9232  0.4393
12521TIP3    H258979   3.577   5.000   0.378  3.0515 -1.8387  1.0360
12522TIP3   OH258980   5.337   5.153   0.709  0.3217 -0.6898 -0.0983
12522TIP3    H158981   5.413   5.132   0.655  0.4916 -1.2599  0.3707
12522TIP3    H258982   5.286   5.213   0.654  1.2297 -0.0985 -0.3068
12523TIP3   OH258983   0.465   5.504  14.547  0.0047  0.4741 -0.2644
12523TIP3    H158984   0.410   5.432  14.577  0.0889  0.5504  0.0744
12523TIP3    H258985   0.544   5.462  14.514 -1.2717  0.1836 -3.0600
12524TIP3   OH258986   1.665   5.955   4.845  0.4957  0.3541  0.2469
12524TIP3    H158987   1.580   5.928   4.880  0.4333 -1.1550 -0.9920
12524TIP3    H258988   1.726   5.943   4.918 -0.2088  0.5559  0.8709
12525TIP3   OH258989   1.661   6.768   1.964 -0.0999 -0.1931 -0.5478
12525TIP3    H158990   1.676   6.742   2.055  1.5542 -2.7156 -1.4932
12525TIP3    H258991   1.726   6.836   1.947  0.3437 -0.5287 -0.1888
12526TIP3   OH258992   2.273   4.446  13.907 -0.3923  0.0079  0.6101
12526TIP3    H158993   2.210   4.474  13.973 -0.0927 -0.4224  1.0843
12526TIP3    H258994   2.300   4.358  13.935  0.8792  0.4268  0.7803
12527TIP3   OH258995   4.352   4.809  12.466 -0.2035  0.6716  0.3830
12527TIP3    H158996   4.363   4.899  12.497 -0.8652  0.4822  1.1777
12527TIP3    H258997   4.316   4.762  12.541 -1.8301  0.1976 -0.6632
12528TIP3   OH258998   1.261   1.833   4.609  0.0505  0.1809 -0.0227
12528TIP3    H158999   1.280   1.755   4.558 -0.9198 -0.3056  0.3339
12528TIP3    H259000   1.200   1.803   4.677  0.0019  1.1572  0.3802
12529TIP3   OH259001   0.569   0.352  15.139  0.0652  0.7663  0.6823
12529TIP3    H159002   0.531   0.434  15.108  0.9702  1.6182  1.8093
12529TIP3    H259003   0.504   0.317  15.199 -0.5755  0.3675 -0.2347
12530TIP3   OH259004   0.539   3.437   3.111 -0.3434 -0.0383 -0.6382
12530TIP3    H159005   0.586   3.353   3.106  3.2066  1.9250 -1.8199
12530TIP3    H259006   0.525   3.450   3.205  0.7386 -1.1012 -0.3049
12531TIP3   OH259007   2.947   2.992  12.189 -0.3645 -0.2006  0.1019
12531TIP3    H159008   2.893   2.914  12.198 -0.0407 -0.4644 -0.2495
12531TIP3    H259009   2.884   3.063  12.177 -0.7358 -0.1511  2.1050
12532TIP3   OH259010   4.806   4.719  10.872  0.5734 -0.4927  0.2957
12532TIP3    H159011   4.839   4.629  10.867  2.0738  0.0336  0.6110
12532TIP3    H259012   4.846   4.764  10.798 -1.7173 -0.5575 -1.0126
12533TIP3   OH259013   3.343   4.107   0.126 -0.2414 -0.4425 -0.2885
12533TIP3    H159014   3.432   4.072   0.135 -0.4848 -0.8399  0.6120
12533TIP3    H259015   3.294   4.035   0.085 -1.0425 -1.6817  2.7128
12534TIP3   OH259016   3.142   0.625   5.790  0.0534 -0.1926  0.6526
12534TIP3    H159017   3.116   0.602   5.701  0.2875 -2.0766  1.0398
12534TIP3    H259018   3.160   0.718   5.787 -0.8122 -0.0633 -1.0643
12535TIP3   OH259019   5.503   4.657   4.985  0.0732 -0.6543  0.2222
12535TIP3    H159020   5.593   4.632   4.965 -0.1408 -1.4073  0.1698
12535TIP3    H259021   5.477   4.711   4.911  0.5853 -0.1769  0.3897
12536TIP3   OH259022   1.789   5.697  15.855  0.0434 -0.0996  0.0524
12536TIP3    H159023   1.833   5.769  15.810 -1.4184 -0.3198 -1.8163
12536TIP3    H259024   1.773   5.730  15.943  2.8844  0.3864  0.4127
12537TIP3   OH259025   1.561   3.365  16.632  0.4281 -0.0397  0.0933
12537TIP3    H159026   1.615   3.417  16.691 -0.7160  0.5721  0.6087
12537TIP3    H259027   1.544   3.422  16.558 -0.9178  0.3821  0.7106
12538TIP3   OH259028   2.469   4.867  12.759  0.5875  0.7310  0.0270
12538TIP3    H159029   2.401   4.827  12.705 -1.4965 -0.1892  3.2503
12538TIP3    H259030   2.530   4.796  12.778  1.1364  0.9757 -0.7859
12539TIP3   OH259031   2.687   1.457   1.596  1.2566 -0.1835  0.3733
12539TIP3    H159032   2.612   1.488   1.544  2.0154  0.8048 -0.1581
12539TIP3    H259033   2.732   1.538   1.622  3.4794 -0.8339 -1.3157
12540TIP3   OH259034   3.838   3.338   5.401 -0.7033  0.5046  0.0047
12540TIP3    H159035   3.835   3.303   5.312  1.7756 -0.0796  0.0978
12540TIP3    H259036   3.860   3.431   5.388  1.7106 -0.0336  0.0427
12541TIP3   OH259037   1.600   2.769   0.220  0.0451  0.0308  0.0381
12541TIP3    H159038   1.682   2.768   0.269 -0.4283  2.3821  0.9572
12541TIP3    H259039   1.596   2.858   0.184 -2.5107  0.1963  0.6981
12542TIP3   OH259040   3.701   1.014   2.592 -0.1033  0.4276 -0.7263
12542TIP3    H159041   3.704   0.920   2.577 -0.1999 -0.1656  2.5084
12542TIP3    H259042   3.789   1.045   2.570  0.9551 -1.0000  1.3051
12543TIP3   OH259043   0.317   2.935   5.994 -0.4905 -0.7734 -0.4583
12543TIP3    H159044   0.388   2.999   5.992 -0.0444 -1.2751 -1.0790
12543TIP3    H259045   0.312   2.907   6.085 -0.1262 -0.4741 -0.3439
12544TIP3   OH259046   2.143   4.647  15.991 -0.1751  0.1961 -0.1656
12544TIP3    H159047   2.233   4.650  16.022 -0.0599  0.4689 -0.5133
12544TIP3    H259048   2.146   4.589  15.915 -0.1407  0.8265 -0.6512
12545TIP3   OH259049   4.712   0.423  14.254  0.2847  0.4056  0.9024
12545TIP3    H159050   4.774   0.351  14.240  0.1708  0.5544 -0.4088
12545TIP3    H259051   4.635   0.399  14.201  0.9878  2.4134 -1.0720
12546TIP3   OH259052   2.080   1.281  13.137  1.0967 -0.6110 -0.0178
12546TIP3    H159053   2.106   1.207  13.191 -0.0529 -0.8600  0.1967
12546TIP3    H259054   1.993   1.259  13.106  1.0558  0.3093 -0.5732
12547TIP3   OH259055   0.125   4.119   4.929 -0.1998 -0.1489  0.5690
12547TIP3    H159056   0.033   4.113   4.900  0.2140 -0.0352 -0.8129
12547TIP3    H259057   0.163   4.035   4.906  0.5116  0.4725 -0.5746
12548TIP3   OH259058   3.180   3.064  16.632  0.0223 -0.0701 -0.2615
12548TIP3    H159059   3.169   3.128  16.562 -1.0655  1.3850  1.2148
12548TIP3    H259060   3.139   2.984  16.597  1.2956  0.0469 -2.0671
12549TIP3   OH259061   0.286   4.905  14.009  0.6551 -0.6236 -0.0690
12549TIP3    H159062   0.362   4.849  14.023 -0.3652 -1.7622  1.0549
12549TIP3    H259063   0.260   4.934  14.096  0.3539  0.5376 -0.5222
12550TIP3   OH259064   2.455   5.979  13.465 -0.2139  0.3729 -0.1328
12550TIP3    H159065   2.540   5.938  13.452  0.0659  0.8696  0.1073
12550TIP3    H259066   2.392   5.918  13.427  0.2489 -0.0041 -0.2878
12551TIP3   OH259067   6.601   2.015   2.118 -0.2413 -0.0099 -0.3623
12551TIP3    H159068   6.596   1.974   2.204  0.3649 -0.5618 -0.5798
12551TIP3    H259069   6.685   2.061   2.119 -0.5104  0.4843 -0.4423
12552TIP3   OH259070   3.009   0.915  12.236 -0.0232  0.3731 -0.0443
12552TIP3    H159071   3.027   0.989  12.294 -0.3327 -0.6395  1.3697
12552TIP3    H259072   3.068   0.846  12.266 -0.9736 -0.5190 -0.1923
12553TIP3   OH259073   1.914   1.590  14.828 -0.5632 -0.0589 -0.0517
12553TIP3    H159074   1.973   1.612  14.901 -3.5641  1.1021  2.1238
12553TIP3    H259075   1.877   1.505  14.853 -1.1382  0.0544 -0.5129
12554TIP3   OH259076   4.762   3.635  15.269  0.6584  0.1143 -0.2965
12554TIP3    H159077   4.813   3.580  15.209 -0.0500 -1.5439  0.5669
12554TIP3    H259078   4.671   3.619  15.244  0.3455 -0.7254  1.2973
12555TIP3   OH259079   5.003   5.288   0.947 -0.1699  0.2344  0.4212
12555TIP3    H159080   5.065   5.357   0.923  0.1411  0.3539  1.5415
12555TIP3    H259081   5.033   5.211   0.898 -0.1277  0.7077 -0.3195
12556TIP3   OH259082   3.587   1.256   0.543 -0.0299  0.2042 -0.2443
12556TIP3    H159083   3.528   1.254   0.468 -1.9575  0.0593  1.2350
12556TIP3    H259084   3.530   1.242   0.619  1.7920  0.8930  1.2977
12557TIP3   OH259085   2.225   4.456   1.872 -0.0967 -0.2149  0.3496
12557TIP3    H159086   2.245   4.500   1.789  0.1549 -1.0742 -0.0481
12557TIP3    H259087   2.308   4.454   1.919 -0.4013  0.9784  0.9741
12558TIP3   OH259088   4.201   5.694  13.019 -0.2825 -0.5037  1.1582
12558TIP3    H159089   4.188   5.642  13.098  3.6715 -1.4349  1.2641
12558TIP3    H259090   4.267   5.758  13.042 -0.8074  0.7647 -0.7308
12559TIP3   OH259091   5.147   4.957   1.123 -0.4024 -0.2317 -0.1247
12559TIP3    H159092   5.223   4.950   1.180  0.0139  0.1107 -0.6292
12559TIP3    H259093   5.184   4.974   1.036 -1.1576  2.6179  0.0774
12560TIP3   OH259094   3.488   5.340   4.747 -0.4635 -0.1409 -0.0122
12560TIP3    H159095   3.581   5.322   4.761 -0.2579 -0.2949 -1.5540
12560TIP3    H259096   3.454   5.358   4.835  0.9177 -0.5506  0.6192
12561TIP3   OH259097   6.746   1.718   0.119 -0.2040 -0.4390  0.0407
12561TIP3    H159098   6.697   1.761   0.049  0.1770 -1.3454 -0.7916
12561TIP3    H259099   6.682   1.709   0.191 -1.7482 -2.9916 -1.5712
12562TIP3   OH259100   4.264   0.586   3.041 -0.5192 -0.7794 -0.5657
12562TIP3    H159101   4.312   0.633   3.109 -1.4973  1.3684 -1.3282
12562TIP3    H259102   4.178   0.569   3.081 -1.1606  0.6558 -1.3079
12563TIP3   OH259103   0.376   5.565  15.574  0.3411  0.3411  0.2792
12563TIP3    H159104   0.324   5.524  15.643  0.9131 -0.7403  0.0770
12563TIP3    H259105   0.328   5.547  15.493  0.6995 -0.1054  0.1666
12564TIP3   OH259106   6.152   4.844   3.816 -0.3400 -0.4049  0.0963
12564TIP3    H159107   6.085   4.785   3.849 -2.0230  2.2336  1.5797
12564TIP3    H259108   6.144   4.839   3.720 -3.0418  0.2282  0.2355
12565TIP3   OH259109   5.221   3.469  15.740 -0.2965 -0.1658 -0.3158
12565TIP3    H159110   5.232   3.562  15.758 -1.1742  0.0562 -0.9025
12565TIP3    H259111   5.127   3.456  15.733 -0.2808 -1.4198  1.3898
12566TIP3   OH259112   1.079   5.744   0.542 -0.2446  0.4554  0.3182
12566TIP3    H159113   0.989   5.761   0.512 -0.4335  0.3983  0.8509
12566TIP3    H259114   1.134   5.782   0.474 -0.6661 -1.8159 -1.3678
12567TIP3   OH259115   1.714   3.453  13.348  0.2387  0.6748  0.7489
12567TIP3    H159116   1.790   3.400  13.372 -1.7291 -1.1993  3.1385
12567TIP3    H259117   1.704   3.440  13.254  1.5467 -0.8786  0.8072
12568TIP3   OH259118   6.246   5.272  10.811  0.2749  0.3449 -0.0182
12568TIP3    H159119   6.181   5.278  10.881 -0.7125 -0.3161 -0.8663
12568TIP3    H259120   6.319   5.326  10.841 -0.6605  1.0750  0.9509
12569TIP3   OH259121   3.329   5.990   0.804 -0.5825  0.1910  0.2708
12569TIP3    H159122   3.358   5.934   0.732 -2.2978 -1.4220  0.7832
12569TIP3    H259123   3.393   5.974   0.873  0.0779  0.4031 -0.2890
12570TIP3   OH259124   6.648   1.217   5.512  0.1097  0.0213 -0.8251
12570TIP3    H159125   6.581   1.272   5.553  1.3416 -0.1380  1.4251
12570TIP3    H259126   6.630   1.129   5.544  0.6324 -0.2245 -1.2020
12571TIP3   OH259127   0.149   3.512  13.986 -0.0294 -0.7629 -0.1737
12571TIP3    H159128   0.198   3.461  13.922 -1.7351 -0.2124 -1.9815
12571TIP3    H259129   0.208   3.520  14.061  2.0024 -1.4741 -1.6433
12572TIP3   OH259130   6.250   0.537  13.979 -0.0003 -0.7451  0.2553
12572TIP3    H159131   6.161   0.512  14.004  0.1995 -0.0044  1.7372
12572TIP3    H259132   6.267   0.619  14.025  0.3792  0.7183 -2.3925
12573TIP3   OH259133   6.256   5.853  13.466  0.5342 -0.1091  0.1731
12573TIP3    H159134   6.222   5.814  13.547 -1.4071 -0.5439 -0.8087
12573TIP3    H259135   6.256   5.780  13.404 -0.2582  0.7625 -0.8592
12574TIP3   OH259136   0.284   6.477  14.135 -0.0418 -0.4343 -0.6602
12574TIP3    H159137   0.278   6.398  14.189 -0.1344 -0.0412 -0.0911
12574TIP3    H259138   0.372   6.473  14.097  0.7871  0.3057  1.1255
12575TIP3   OH259139   6.694   1.256  12.779  0.4432  0.0729 -0.0914
12575TIP3    H159140   6.659   1.176  12.819  0.9543 -0.6168 -1.0043
12575TIP3    H259141   6.622   1.319  12.785 -0.0439 -0.5250  0.4257
12576TIP3   OH259142   6.000   5.252  13.662  0.3759 -0.3502  0.0429
12576TIP3    H159143   5.914   5.281  13.692  0.3531 -0.8230  0.4450
12576TIP3    H259144   6.035   5.327  13.614 -0.4764 -0.3457 -0.5781
12577TIP3   OH259145   0.262   2.719   0.544 -0.3261 -0.0304 -0.6602
12577TIP3    H159146   0.302   2.700   0.459  4.3478 -1.4894  1.6402
12577TIP3    H259147   0.230   2.808   0.537  0.8016  0.1923 -3.6915
12578TIP3   OH259148   3.587   3.936  12.402  0.4804  0.0205  0.4157
12578TIP3    H159149   3.613   4.024  12.375  0.7276 -0.3976 -0.7189
12578TIP3    H259150   3.670   3.893  12.425  0.4235 -0.1418  0.3136
12579TIP3   OH259151   0.804   1.047  13.702  0.1228  0.0291 -0.4710
12579TIP3    H159152   0.786   1.083  13.789  0.6470  0.1825 -0.4255
12579TIP3    H259153   0.873   1.102  13.667  0.9115 -0.9184 -0.4124
12580TIP3   OH259154   3.128   5.643   3.776  0.1568  0.3910 -0.4414
12580TIP3    H159155   3.206   5.687   3.809 -0.4418  0.8337  0.4192
12580TIP3    H259156   3.082   5.709   3.724  2.6326 -1.1708 -4.8308
12581TIP3   OH259157   4.741   6.293   3.811  0.0041 -0.0874  0.0528
12581TIP3    H159158   4.672   6.357   3.829  0.2115  0.7935 -2.0903
12581TIP3    H259159   4.697   6.208   3.817 -0.3747  0.2517  2.4862
12582TIP3   OH259160   0.751   0.643   2.245  0.1515  0.7856  0.2296
12582TIP3    H159161   0.831   0.641   2.297  0.9373 -0.7583 -0.9685
12582TIP3    H259162   0.777   0.685   2.163 -1.1334  3.4385  1.1369
12583TIP3   OH259163   0.532   2.749  16.681 -0.1855 -0.2310 -0.3193
12583TIP3    H159164   0.590   2.802  16.735 -1.7576  1.4764 -0.2795
12583TIP3    H259165   0.577   2.740  16.597  0.2239  0.8993 -0.2152
12584TIP3   OH259166   3.656   1.792   5.417 -0.0305  0.4098  0.3273
12584TIP3    H159167   3.628   1.878   5.386  0.3861 -0.0224 -1.3015
12584TIP3    H259168   3.665   1.802   5.512  1.4963  2.5908 -0.0073
12585TIP3   OH259169   2.135   2.156  16.525 -0.1423 -0.1510 -0.2588
12585TIP3    H159170   2.196   2.147  16.599 -0.9428 -0.0310  0.4183
12585TIP3    H259171   2.060   2.202  16.561  0.5863  2.3464 -1.7897
12586TIP3   OH259172   5.838   0.966  12.550  0.1297  0.0786 -0.3534
12586TIP3    H159173   5.889   1.047  12.545 -0.4559  0.4152 -1.2435
12586TIP3    H259174   5.750   0.995  12.574  0.2110 -0.4339  0.5955
12587TIP3   OH259175   4.065   0.592  10.712  0.7250 -0.5968 -0.4181
12587TIP3    H159176   4.153   0.627  10.697  0.6342 -0.4789 -0.6747
12587TIP3    H259177   4.077   0.497  10.715  1.1886 -0.4998  1.6488
12588TIP3   OH259178   0.267   5.536   0.346  0.1675 -0.2929 -0.3910
12588TIP3    H159179   0.180   5.516   0.381  0.4490  0.7330  0.9453
12588TIP3    H259180   0.263   5.630   0.325  1.4715  0.1782  1.3294
12589TIP3   OH259181   4.081   4.287   5.379  0.0575  0.0926  0.1146
12589TIP3    H159182   4.128   4.324   5.454 -0.5903 -2.7017  1.9707
12589TIP3    H259183   4.007   4.346   5.365  1.9898  2.4690 -0.4817
12590TIP3   OH259184   0.385   1.121  10.596  0.6329 -0.0025  0.4915
12590TIP3    H159185   0.457   1.076  10.640  0.4676 -0.0374  0.7265
12590TIP3    H259186   0.392   1.212  10.626  0.5629 -0.0120  0.5375
12591TIP3   OH259187   6.366   6.545  13.716 -0.1699  0.2527  0.1586
12591TIP3    H159188   6.388   6.636  13.734 -1.7172  0.6412  0.1153
12591TIP3    H259189   6.399   6.529  13.628  1.2402  0.3803  0.6456
12592TIP3   OH259190   1.359   6.267   4.104  0.0692  0.4810 -0.1525
12592TIP3    H159191   1.424   6.249   4.035  0.5549  1.8693 -0.0739
12592TIP3    H259192   1.295   6.197   4.095  1.3114 -0.6138 -0.5779
12593TIP3   OH259193   4.692   0.761   5.155 -0.7059  0.6970  0.2393
12593TIP3    H159194   4.669   0.697   5.088 -1.5454  1.4533 -0.2069
12593TIP3    H259195   4.608   0.795   5.186 -0.2616  2.1192 -0.0617
12594TIP3   OH259196   1.164   1.473  13.555  0.2492 -0.3636  0.2685
12594TIP3    H159197   1.115   1.497  13.633  0.1919  0.5078 -0.0367
12594TIP3    H259198   1.187   1.556  13.514 -3.6904 -0.7616 -3.1172
12595TIP3   OH259199   1.260   0.079   2.597  0.0113  0.3349  0.2490
12595TIP3    H159200   1.298   0.136   2.530 -0.7226  0.1309 -0.3517
12595TIP3    H259201   1.218   0.138   2.659  1.5514  0.5771  1.0741
12596TIP3   OH259202   5.415   1.702   3.214  0.1507  0.3954 -1.0639
12596TIP3    H159203   5.437   1.668   3.300 -0.7898  1.0268 -0.5625
12596TIP3    H259204   5.500   1.722   3.173  0.8144 -3.7261 -1.9101
12597TIP3   OH259205   0.909   5.431  12.479  0.3475  0.0251  0.1353
12597TIP3    H159206   0.864   5.514  12.464  0.0710 -0.6085 -2.6565
12597TIP3    H259207   0.997   5.457  12.508  0.1952  1.2874 -0.4823
12598TIP3   OH259208   4.744   6.321   2.611  0.2581 -0.2179  0.3224
12598TIP3    H159209   4.654   6.320   2.576  0.8115 -0.1550 -1.1176
12598TIP3    H259210   4.748   6.402   2.662 -0.0184  0.5914 -0.9148
12599TIP3   OH259211   2.468   1.244   1.295  0.0329  0.2942 -0.6210
12599TIP3    H159212   2.474   1.339   1.281  0.1311  0.2476 -0.9052
12599TIP3    H259213   2.558   1.213   1.285 -0.1347  0.0511 -1.4328
12600TIP3   OH259214   2.024   2.942  12.248  0.0652 -0.2728  0.6145
12600TIP3    H159215   2.104   2.942  12.301  0.2287 -0.9444  0.3692
12600TIP3    H259216   1.997   2.851  12.245  0.2981 -0.3180 -0.8011
12601TIP3   OH259217   2.593   4.231  13.582  0.4160  0.5093  0.6209
12601TIP3    H159218   2.574   4.185  13.664 -1.5966  0.4278  0.1485
12601TIP3    H259219   2.531   4.304  13.581 -0.7176 -0.4150 -1.5497
12602TIP3   OH259220   4.062   3.447  17.127 -0.4053  0.2261 -0.3360
12602TIP3    H159221   4.139   3.501  17.149 -0.1211 -0.5837  0.7382
12602TIP3    H259222   4.099   3.361  17.105 -1.0359 -0.3913  0.9504
12603TIP3   OH259223   4.092   4.580   3.695 -0.2417 -0.3442 -0.2560
12603TIP3    H159224   4.087   4.507   3.756 -0.1797 -0.2094 -0.0892
12603TIP3    H259225   4.090   4.539   3.608  0.1699 -0.5647 -0.1601
12604TIP3   OH259226   2.307   2.770   4.298 -0.0771 -0.2602  0.2663
12604TIP3    H159227   2.318   2.788   4.205 -0.6203  0.5303  0.3417
12604TIP3    H259228   2.355   2.689   4.313  0.1340 -0.3176 -0.6711
12605TIP3   OH259229   0.052   4.360   5.841 -0.6239 -0.5833 -0.3121
12605TIP3    H159230   0.094   4.418   5.777  0.6253 -1.7291 -0.5334
12605TIP3    H259231   0.026   4.283   5.790  1.7743 -2.1862  0.8306
12606TIP3   OH259232   0.444   0.450  14.875  0.1354  0.1943  0.3131
12606TIP3    H159233   0.483   0.492  14.951  0.1360 -0.6554  0.7853
12606TIP3    H259234   0.387   0.381  14.911  0.6336 -0.6350 -0.4517
12607TIP3   OH259235   2.288   4.198  11.269 -0.1676 -0.1323 -0.0505
12607TIP3    H159236   2.244   4.280  11.245  3.1188  1.2462 -1.5987
12607TIP3    H259237   2.290   4.147  11.188 -2.6441 -2.0429  1.0161
12608TIP3   OH259238   2.030   6.566   5.694 -0.6291 -0.4056  0.7289
12608TIP3    H159239   2.098   6.633   5.687  2.1292 -3.2287 -0.3523
12608TIP3    H259240   1.960   6.609   5.743  2.2547  2.3045  2.6770
12609TIP3   OH259241   1.712   0.985  16.511  0.0429  0.3286 -0.4279
12609TIP3    H159242   1.755   0.929  16.446 -0.2564 -0.0575 -0.2906
12609TIP3    H259243   1.785   1.019  16.564  0.1689 -0.4546 -0.0923
12610TIP3   OH259244   2.723   6.643  16.700 -0.3141  0.4191 -0.1409
12610TIP3    H159245   2.671   6.721  16.680 -0.3866  0.3426 -0.2500
12610TIP3    H259246   2.768   6.623  16.618  0.1337  0.6722  0.0362
12611TIP3   OH259247   0.307   4.657  13.846 -0.9665  0.2494  0.3290
12611TIP3    H159248   0.285   4.649  13.939  0.4327 -1.5989  0.5443
12611TIP3    H259249   0.230   4.626  13.799 -0.6322 -1.5924  0.9599
12612TIP3   OH259250   0.299   0.107   2.809  0.0836  0.1037  0.5089
12612TIP3    H159251   0.340   0.029   2.846  1.0235 -0.8097 -2.3254
12612TIP3    H259252   0.222   0.073   2.764 -0.7286  1.1184  1.1217
12613TIP3   OH259253   3.954   0.432  12.776 -0.3494 -0.0944 -0.0565
12613TIP3    H159254   4.034   0.484  12.775  0.4798 -1.3359  0.1129
12613TIP3    H259255   3.891   0.484  12.826  1.2109 -0.3379  2.2090
12614TIP3   OH259256   4.372   0.761  11.061  0.7359  0.1465 -0.3692
12614TIP3    H159257   4.429   0.684  11.058  1.1820  0.4254  0.7339
12614TIP3    H259258   4.403   0.810  11.137 -0.4851  0.6914 -0.2264
12615TIP3   OH259259   1.774   2.130  16.983 -0.8959 -0.3420 -0.0971
12615TIP3    H159260   1.749   2.221  16.965  0.5173 -0.0031 -0.3774
12615TIP3    H259261   1.699   2.078  16.953 -0.1463  0.4551 -3.5687
12616TIP3   OH259262   5.082   3.704  15.118 -0.0797 -0.6196  0.4545
12616TIP3    H159263   5.089   3.735  15.208  0.4749 -0.3673  0.3247
12616TIP3    H259264   5.009   3.642  15.120 -0.5952  0.0021  0.9029
12617TIP3   OH259265   3.277   6.260   2.892  0.3786 -0.1215 -0.0817
12617TIP3    H159266   3.350   6.319   2.874 -2.0397  2.5654 -1.3909
12617TIP3    H259267   3.246   6.231   2.806 -1.1749  0.1332  0.3650
12618TIP3   OH259268   0.501   5.004   4.388  0.3751  0.0526 -0.2538
12618TIP3    H159269   0.521   4.983   4.296 -0.3324 -1.9706  0.0322
12618TIP3    H259270   0.429   4.946   4.410 -0.1813  1.3097  1.2785
12619TIP3   OH259271   5.836   6.623  12.062  0.1230 -0.1472  0.0123
12619TIP3    H159272   5.853   6.700  12.118 -0.2910  0.7722 -1.1142
12619TIP3    H259273   5.756   6.586  12.098  0.7173 -0.4896  1.0204
12620TIP3   OH259274   2.079   3.236  14.704  0.1427 -0.4347  0.3029
12620TIP3    H159275   2.108   3.170  14.767 -2.4157 -0.8641  1.0718
12620TIP3    H259276   2.114   3.318  14.738  2.2182 -1.1824  0.0531
12621TIP3   OH259277   5.295   1.318   1.728  0.4693 -0.2691 -0.1191
12621TIP3    H159278   5.232   1.372   1.680  0.4758 -0.1442  0.0119
12621TIP3    H259279   5.252   1.233   1.736 -0.3837  0.2842  1.4019
12622TIP3   OH259280   5.350   2.185   4.863  0.2523  0.0128 -0.6998
12622TIP3    H159281   5.406   2.115   4.829 -0.5161  0.1283 -2.2753
12622TIP3    H259282   5.317   2.229   4.784 -1.5464  0.3433  0.2271
12623TIP3   OH259283   3.113   0.790  12.570 -0.2759 -0.4062 -0.4467
12623TIP3    H159284   3.075   0.832  12.648  1.3397  1.5051 -0.6463
12623TIP3    H259285   3.132   0.701  12.598 -3.2935 -0.9306  0.1702
12624TIP3   OH259286   0.087   5.137  17.176 -0.0550  0.3893  0.0329
12624TIP3    H159287   0.175   5.126  17.210  0.0177  0.1271 -0.2357
12624TIP3    H259288   0.095   5.119  17.082 -0.2082  1.3483 -0.1628
12625TIP3   OH259289   3.413   1.398   2.702  0.6055  0.1890 -0.1799
12625TIP3    H159290   3.417   1.303   2.696 -0.6547 -0.0425  2.1401
12625TIP3    H259291   3.320   1.419   2.708  0.9331  1.3883  1.3154
12626TIP3   OH259292   2.763   5.232   0.392 -0.3987  0.1706 -1.0592
12626TIP3    H159293   2.689   5.172   0.387 -0.3955  0.0805 -0.1551
12626TIP3    H259294   2.805   5.212   0.475  0.0704  0.8840 -1.1129
12627TIP3   OH259295   0.680   5.602   5.288 -0.0373 -0.5924  0.3898
12627TIP3    H159296   0.748   5.667   5.304 -1.0475  0.5444  0.1233
12627TIP3    H259297   0.716   5.547   5.218  0.0524  0.8311 -0.7042
12628TIP3   OH259298   4.083   4.440   4.071  0.4898 -0.0796  0.1669
12628TIP3    H159299   4.104   4.384   3.996 -2.2820  1.0373 -1.5276
12628TIP3    H259300   4.143   4.411   4.140  2.1581 -2.0849 -2.0343
12629TIP3   OH259301   5.570   0.224   3.681 -0.3441  0.1723 -0.8287
12629TIP3    H159302   5.623   0.275   3.742 -3.0739  1.8375  0.2318
12629TIP3    H259303   5.570   0.275   3.600  0.1723 -0.1574 -1.0424
12630TIP3   OH259304   2.476   5.112   3.248 -0.4059 -0.1167  0.2568
12630TIP3    H159305   2.407   5.103   3.183 -0.2850  0.8342 -0.0057
12630TIP3    H259306   2.450   5.053   3.320 -1.7190  0.5949  0.3724
12631TIP3   OH259307   0.551   1.238  14.471 -0.3277  0.2470  0.2758
12631TIP3    H159308   0.606   1.314  14.492 -0.3414  0.4355 -0.3559
12631TIP3    H259309   0.576   1.214  14.382 -0.4195 -0.4112  0.4311
12632TIP3   OH259310   5.593   5.065  11.807 -0.2547  0.2185  0.4127
12632TIP3    H159311   5.542   5.013  11.744 -1.1441  0.0143  1.2877
12632TIP3    H259312   5.578   5.155  11.780 -0.7207  0.1359  0.3873
12633TIP3   OH259313   3.089   2.770   3.703  0.0831 -0.1943  0.2135
12633TIP3    H159314   3.133   2.721   3.634 -0.7315 -0.5601 -0.0500
12633TIP3    H259315   2.996   2.754   3.688 -0.2230  1.8971 -0.2094
12634TIP3   OH259316   2.128   0.800   2.308 -0.4791  0.0642 -0.1635
12634TIP3    H159317   2.124   0.895   2.295 -0.9878  0.2651  1.3460
12634TIP3    H259318   2.062   0.782   2.375 -1.0711 -1.4951 -1.1043
12635TIP3   OH259319   2.321   4.926   5.208 -0.0480 -0.1360 -0.2981
12635TIP3    H159320   2.360   4.984   5.142  0.3407 -1.4724 -1.2615
12635TIP3    H259321   2.360   4.954   5.290 -0.4721  1.5034 -0.6378
12636TIP3   OH259322   0.871   1.938  14.814 -0.0763  0.6680 -0.2608
12636TIP3    H159323   0.811   1.995  14.862 -1.9418 -1.3175 -0.1852
12636TIP3    H259324   0.940   1.997  14.784 -1.0035  2.6513  1.3594
12637TIP3   OH259325   2.817   1.739   4.941  0.2410  0.0496 -0.0823
12637TIP3    H159326   2.875   1.710   5.012  1.9111 -0.4303 -1.5972
12637TIP3    H259327   2.729   1.718   4.971  0.9295 -0.2374  1.8013
12638TIP3   OH259328   0.590   5.106   0.781 -0.0499  0.2896 -0.4085
12638TIP3    H159329   0.607   5.062   0.865  0.0967 -0.8767 -1.0493
12638TIP3    H259330   0.617   5.044   0.715  3.9706  2.8754 -1.3544
12639TIP3   OH259331   5.878   4.377  14.100  0.4045  0.0041  0.2160
12639TIP3    H159332   5.849   4.445  14.039  0.7053 -0.6267 -0.6459
12639TIP3    H259333   5.888   4.422  14.183 -0.6836  0.7327 -0.0410
12640TIP3   OH259334   3.278   6.642   1.984 -0.0677 -0.2136  0.5026
12640TIP3    H159335   3.285   6.666   1.891  0.3926 -0.7195  0.4087
12640TIP3    H259336   3.297   6.548   1.986  1.5931  0.1282  1.3323
12641TIP3   OH259337   4.569   3.518  15.528  0.2103  0.7683 -0.5814
12641TIP3    H159338   4.623   3.447  15.563  0.8256  2.0913  1.2659
12641TIP3    H259339   4.626   3.561  15.464  0.2273  0.2648 -0.9060
12642TIP3   OH259340   2.818   6.213  11.896  0.1172 -0.1806 -0.4342
12642TIP3    H159341   2.753   6.234  11.964  1.2381  0.5112  0.4370
12642TIP3    H259342   2.901   6.246  11.931  0.6103  0.7695 -2.4407
12643TIP3   OH259343   3.899   1.502   4.681  0.6543 -0.4059  0.0563
12643TIP3    H159344   3.872   1.440   4.749  0.3887 -1.2516 -0.8101
12643TIP3    H259345   3.973   1.459   4.639  0.6013 -0.0365 -0.4077
12644TIP3   OH259346   0.593   4.386   5.718  0.5045  0.1088  0.1670
12644TIP3    H159347   0.560   4.310   5.767  1.2819 -0.9814 -0.9721
12644TIP3    H259348   0.519   4.413   5.664  1.3056 -2.1349 -2.1419
12645TIP3   OH259349   5.512   2.479   2.402 -0.0558  0.3796 -0.1278
12645TIP3    H159350   5.541   2.525   2.323  1.5428 -0.0609  0.1803
12645TIP3    H259351   5.531   2.387   2.384 -3.2643 -0.2324 -0.7542
12646TIP3   OH259352   2.854   0.602  13.568 -0.1675 -0.4809  0.0925
12646TIP3    H159353   2.825   0.667  13.632  2.5983  2.2238 -1.2681
12646TIP3    H259354   2.773   0.571  13.527 -1.6316  1.2219  1.5989
12647TIP3   OH259355   1.881   3.700   5.627 -0.3735 -0.0301 -0.2184
12647TIP3    H159356   1.911   3.753   5.701 -0.3396  0.5061 -0.6105
12647TIP3    H259357   1.960   3.657   5.594  0.3713  2.9768 -2.5277
12648TIP3   OH259358   1.510   4.744   2.758  0.2424 -0.0591  0.0091
12648TIP3    H159359   1.457   4.696   2.695  1.7015 -0.6437 -0.8153
12648TIP3    H259360   1.517   4.685   2.833  1.4393 -0.8583 -0.7165
12649TIP3   OH259361   0.716   2.913  12.687 -0.8326  0.7489 -0.0822
12649TIP3    H159362   0.739   2.856  12.614  1.2195  1.1779  0.1963
12649TIP3    H259363   0.764   2.877  12.762 -3.5411 -0.1733  1.2879
12650TIP3   OH259364   5.934   5.829   1.128  0.1952 -0.2920 -0.6373
12650TIP3    H159365   6.002   5.766   1.153  0.1360  0.3045  1.0896
12650TIP3    H259366   5.983   5.903   1.089  0.7307  0.8964  2.1620
12651TIP3   OH259367   2.612   2.824   2.645 -0.6864  0.2171 -0.2187
12651TIP3    H159368   2.534   2.825   2.589 -0.4797  2.2314 -0.5033
12651TIP3    H259369   2.606   2.905   2.695  1.0035  0.1592  0.0785
12652TIP3   OH259370   4.484   6.164  11.317  0.6992  0.5868 -0.0398
12652TIP3    H159371   4.431   6.124  11.386  1.4234  1.0711  0.8064
12652TIP3    H259372   4.564   6.191  11.361  2.1287 -1.1019 -1.5124
12653TIP3   OH259373   4.110   4.504  14.046 -0.0082  0.0540  0.2755
12653TIP3    H159374   4.148   4.590  14.031 -0.9117  0.4289  0.1000
12653TIP3    H259375   4.052   4.489  13.972  2.1486 -1.8772 -1.0885
12654TIP3   OH259376   6.346   4.136  13.683  0.7144  0.0801 -0.2614
12654TIP3    H159377   6.381   4.190  13.754  0.5842 -0.7646  0.4470
12654TIP3    H259378   6.294   4.197  13.631 -0.3774  0.4325  1.1883
12655TIP3   OH259379   6.563   3.791   5.247  0.1764 -0.0687  0.0646
12655TIP3    H159380   6.623   3.809   5.174 -0.8054  0.7670 -0.5371
12655TIP3    H259381   6.621   3.767   5.319  1.2352  0.5391 -0.5640
12656TIP3   OH259382   4.429   6.521   1.870  0.7305 -0.5460  0.5938
12656TIP3    H159383   4.346   6.477   1.887  0.1698  0.4853  0.5454
12656TIP3    H259384   4.459   6.550   1.957  0.1462  0.6591  0.4011
12657TIP3   OH259385   0.736   2.494   1.794  0.1143 -0.0338  0.2877
12657TIP3    H159386   0.820   2.472   1.833 -0.3091  0.9680  1.8388
12657TIP3    H259387   0.684   2.528   1.867 -1.7396 -0.9007 -0.5673
12658TIP3   OH259388   5.919   3.016  16.224 -0.4487 -0.2979 -0.0938
12658TIP3    H159389   5.902   3.081  16.293  0.3378 -0.2981  0.1021
12658TIP3    H259390   5.835   3.008  16.178 -0.5339  0.9180 -0.1752
12659TIP3   OH259391   0.327   5.115  14.475  0.5567 -0.7797 -0.5725
12659TIP3    H159392   0.414   5.076  14.476  0.5373 -0.8054  0.2748
12659TIP3    H259393   0.272   5.055  14.526  0.4084  0.0602  0.2859
12660TIP3   OH259394   3.013   4.426  15.406  0.4778 -0.5450  0.6924
12660TIP3    H159395   3.082   4.492  15.401  1.8051 -1.8436  1.4252
12660TIP3    H259396   3.034   4.364  15.336 -1.1149  0.1035 -0.3970
12661TIP3   OH259397   0.111   1.628  13.783  0.3307  0.3807  0.1878
12661TIP3    H159398   0.036   1.569  13.769  1.5202 -0.7145 -1.8410
12661TIP3    H259399   0.106   1.690  13.710  1.6548  0.0156 -0.2192
12662TIP3   OH259400   3.923   2.134  13.314  0.1173 -0.1215  0.2933
12662TIP3    H159401   3.982   2.204  13.340  0.0368  0.8216 -1.9690
12662TIP3    H259402   3.860   2.128  13.386  0.8870  1.2484  1.0996
12663TIP3   OH259403   2.935   5.216  12.861 -0.1464 -0.0753 -0.1436
12663TIP3    H159404   2.968   5.225  12.950 -0.4297  0.7441 -0.1211
12663TIP3    H259405   2.857   5.160  12.871 -0.2557  0.1233  0.1429
12664TIP3   OH259406   1.280   6.351  12.795 -0.1145  0.3280  0.2057
12664TIP3    H159407   1.322   6.387  12.873 -2.2788  1.6118  0.8116
12664TIP3    H259408   1.321   6.398  12.722 -0.0210  1.0835  0.7353
12665TIP3   OH259409   6.398   1.672  14.965  0.1854 -0.1847 -0.1909
12665TIP3    H159410   6.358   1.743  15.015  0.8724  1.1442 -1.4617
12665TIP3    H259411   6.399   1.598  15.025  1.5479  1.5143  1.9946
12666TIP3   OH259412   3.217   5.015  12.816  0.1599  0.0298 -0.3275
12666TIP3    H159413   3.203   4.933  12.863 -0.4392 -1.0374 -2.3290
12666TIP3    H259414   3.138   5.067  12.833  0.0705 -0.2355  0.0624
12667TIP3   OH259415   1.146   3.055  14.786  0.5043 -0.0072 -0.3941
12667TIP3    H159416   1.226   3.099  14.817  0.5292 -0.9006  0.8583
12667TIP3    H259417   1.122   3.102  14.706  1.5226  1.1422 -0.0419
12668TIP3   OH259418   6.708   6.701  14.177 -0.2506 -0.2122  0.1402
12668TIP3    H159419   6.716   6.700  14.273  0.3691 -0.6868  0.0854
12668TIP3    H259420   6.616   6.676  14.161  0.1678 -2.1703  0.5595
12669TIP3   OH259421   1.655   5.454  12.110  0.1415 -0.7250  0.4218
12669TIP3    H159422   1.576   5.405  12.136 -0.5288  0.7643  1.2781
12669TIP3    H259423   1.660   5.526  12.173  2.1135 -0.7085  0.2670
12670TIP3   OH259424   5.146   5.817   2.448 -0.4385 -0.4765  0.4478
12670TIP3    H159425   5.119   5.844   2.536  0.1446  0.1531  0.4426
12670TIP3    H259426   5.075   5.847   2.391  0.1521  0.9976  0.4556
12671TIP3   OH259427   5.692   3.831  13.609  0.3696 -0.3365  0.5897
12671TIP3    H159428   5.652   3.830  13.522 -0.9852 -0.3240  1.2013
12671TIP3    H259429   5.630   3.880  13.664  2.6308  2.3484  0.8893
12672TIP3   OH259430   6.674   0.709  14.008 -0.5205 -0.0186 -0.2955
12672TIP3    H159431   6.599   0.717  13.949 -1.2467  2.2868  0.8873
12672TIP3    H259432   6.646   0.643  14.072 -1.6110  0.9197  0.2128
12673TIP3   OH259433   3.338   3.514  13.139  0.6876  0.6447  0.4695
12673TIP3    H159434   3.270   3.448  13.151  1.9674 -0.4581  1.7863
12673TIP3    H259435   3.325   3.576  13.211 -0.3246  1.7056 -0.5925
12674TIP3   OH259436   6.554   6.064  11.194  1.0090 -0.3720 -0.3454
12674TIP3    H159437   6.634   6.093  11.150  1.4535 -0.8229  0.1626
12674TIP3    H259438   6.492   6.136  11.180  1.9512  0.6161  0.4750
12675TIP3   OH259439   3.779   3.011   2.609  0.0084  0.1063  0.1666
12675TIP3    H159440   3.819   3.098   2.606  1.5018 -0.6020 -1.7211
12675TIP3    H259441   3.852   2.952   2.626 -0.8022 -0.9025  0.1630
12676TIP3   OH259442   1.373   1.916  11.698  0.3618 -0.6071 -0.2152
12676TIP3    H159443   1.324   1.862  11.636  0.5105 -0.3748 -0.5368
12676TIP3    H259444   1.418   1.981  11.644  0.9533 -0.7573  0.0815
12677TIP3   OH259445   4.686   5.207   3.178  0.3072  0.2817  0.0565
12677TIP3    H159446   4.740   5.269   3.128  0.8271 -2.0715 -2.4132
12677TIP3    H259447   4.600   5.212   3.136 -0.6840  1.9936  2.2199
12678TIP3   OH259448   4.302   3.876   0.039  0.1580 -0.1793 -0.3572
12678TIP3    H159449   4.389   3.894   0.075 -0.1904  0.6885  0.0575
12678TIP3    H259450   4.262   3.962   0.028 -0.8331 -0.6041 -0.1059
12679TIP3   OH259451   4.700   2.798  11.027 -0.0907  0.0627 -0.0972
12679TIP3    H159452   4.780   2.786  11.078 -0.6990 -3.2097  0.1402
12679TIP3    H259453   4.722   2.766  10.939 -1.4552 -1.9982  0.2790
12680TIP3   OH259454   0.259   3.781   5.081  0.1231 -0.3347  0.2078
12680TIP3    H159455   0.297   3.742   5.160 -1.9824  0.1488  1.4890
12680TIP3    H259456   0.246   3.873   5.103 -1.6971 -0.4733 -0.2252
12681TIP3   OH259457   3.183   6.282  10.884  0.4642  0.3821  0.3761
12681TIP3    H159458   3.238   6.347  10.840  0.3951 -1.0740 -1.9203
12681TIP3    H259459   3.192   6.203  10.832 -0.8681 -0.9690  2.1219
12682TIP3   OH259460   2.031   1.928  13.360  0.2808 -0.0271 -0.0678
12682TIP3    H159461   2.068   1.881  13.435 -1.0449  0.5991  1.0072
12682TIP3    H259462   1.950   1.967  13.394 -1.1097 -0.9484 -2.2301
12683TIP3   OH259463   3.292   6.646   5.816 -0.0471 -0.1714 -0.6462
12683TIP3    H159464   3.380   6.647   5.778  0.7105  1.7530  1.0816
12683TIP3    H259465   3.277   6.736   5.846 -1.7501 -0.9529  0.9860
12684TIP3   OH259466   1.753   0.288  14.647 -0.1613  0.0408 -0.7733
12684TIP3    H159467   1.709   0.255  14.726  2.5416 -0.6722  0.5295
12684TIP3    H259468   1.764   0.382  14.663  0.1898 -0.0647 -0.3742
12685TIP3   OH259469   6.309   3.442  14.122 -0.4623 -0.2334  0.0227
12685TIP3    H159470   6.216   3.423  14.118 -0.4662 -1.0330  2.9318
12685TIP3    H259471   6.340   3.429  14.032 -3.3999  1.5447 -1.3009
12686TIP3   OH259472   2.582   1.288  14.981 -0.0141  0.1423 -0.2252
12686TIP3    H159473   2.552   1.198  14.993  2.8793 -0.8474 -0.0542
12686TIP3    H259474   2.586   1.299  14.886 -0.6075  0.1787 -0.2473
12687TIP3   OH259475   4.745   1.078  16.042 -0.1515  0.1801 -0.0513
12687TIP3    H159476   4.676   1.026  16.001  1.1620 -1.5060 -0.1572
12687TIP3    H259477   4.758   1.152  15.982 -1.4147  0.1831 -0.3357
12688TIP3   OH259478   5.623   6.545  14.942  0.1577 -0.1344 -0.3576
12688TIP3    H159479   5.693   6.610  14.950 -1.5663  1.8081 -0.8940
12688TIP3    H259480   5.630   6.514  14.851 -0.1535  0.6134 -0.6408
12689TIP3   OH259481   5.937   3.389  12.928 -0.6450 -0.2140 -0.2897
12689TIP3    H159482   5.883   3.332  12.982  0.1866 -0.0923  0.6888
12689TIP3    H259483   5.948   3.342  12.845  0.7669 -1.8589  0.8214
12690TIP3   OH259484   3.854   1.520   5.834  0.4376 -0.0487  0.6730
12690TIP3    H159485   3.772   1.557   5.867  0.8232  0.8876  0.5946
12690TIP3    H259486   3.838   1.426   5.830 -0.6052  0.1214  0.7402
12691TIP3   OH259487   0.345   2.245   5.219 -0.7932 -0.1640 -0.0260
12691TIP3    H159488   0.400   2.270   5.293  0.3132 -0.2214 -0.8236
12691TIP3    H259489   0.370   2.155   5.199  0.0071  0.3439 -1.4212
12692TIP3   OH259490   3.654   6.076  16.838  0.5500  0.2359  0.5410
12692TIP3    H159491   3.644   6.160  16.883  1.0898  1.5901 -1.8033
12692TIP3    H259492   3.599   6.084  16.760  1.2986 -1.2685 -0.1495
12693TIP3   OH259493   6.689   2.688  13.449  0.1317 -0.0378  0.5760
12693TIP3    H159494   6.696   2.594  13.462 -1.8468 -0.3914 -0.8914
12693TIP3    H259495   6.730   2.726  13.528  0.3852 -2.0959  1.4533
12694TIP3   OH259496   5.777   5.556   0.330  0.9193 -0.3886 -0.0421
12694TIP3    H159497   5.845   5.593   0.274  0.5239  1.8089  0.8677
12694TIP3    H259498   5.724   5.502   0.272  1.5905  0.3931 -1.4038
12695TIP3   OH259499   5.505   3.362  13.610 -0.1403  0.8244  0.1350
12695TIP3    H159500   5.582   3.395  13.657 -0.6303 -0.0395  1.5707
12695TIP3    H259501   5.540   3.325  13.529  0.6203  3.1025 -0.5917
12696TIP3   OH259502   0.685   3.957  16.611  0.2638  0.0425 -0.8383
12696TIP3    H159503   0.689   3.874  16.562 -2.4988 -1.6624  1.6581
12696TIP3    H259504   0.741   3.941  16.688 -0.0400  0.5770 -0.5069
12697TIP3   OH259505   3.662   0.324  14.172  0.7500 -0.2492 -0.0379
12697TIP3    H159506   3.609   0.305  14.094  0.6400 -3.1232  0.6819
12697TIP3    H259507   3.599   0.352  14.238  0.8138  1.9378 -0.8505
12698TIP3   OH259508   5.901   3.614  11.754  0.1691  0.2358  0.1254
12698TIP3    H159509   5.832   3.598  11.690 -0.3108 -1.0307  0.9432
12698TIP3    H259510   5.879   3.699  11.793 -0.5072  0.1878 -0.1537
12699TIP3   OH259511   4.158   2.855  14.002  0.1989  0.4696 -0.3373
12699TIP3    H159512   4.134   2.763  13.995  0.5970  0.1248  2.1798
12699TIP3    H259513   4.074   2.901  14.009  0.0514  0.0015  1.1190
12700TIP3   OH259514   4.985   4.773   5.268  0.1927 -0.3429  0.1156
12700TIP3    H159515   4.979   4.702   5.204 -0.2478 -1.6566  1.5743
12700TIP3    H259516   4.965   4.852   5.219 -1.2426 -1.4572 -1.1360
12701TIP3   OH259517   4.596   0.574   0.300  0.3803  0.3482  0.2285
12701TIP3    H159518   4.597   0.490   0.255  1.1582  0.3738  0.1864
12701TIP3    H259519   4.688   0.594   0.315  0.1416  0.4814  1.5756
12702TIP3   OH259520   6.586   4.406   5.220  0.2283  0.1922  0.2799
12702TIP3    H159521   6.679   4.384   5.213  0.9795  3.1574  0.2617
12702TIP3    H259522   6.561   4.430   5.131 -1.0368 -2.2879 -0.0551
12703TIP3   OH259523   5.368   6.307   2.359 -0.2640  0.5763 -0.4043
12703TIP3    H159524   5.360   6.237   2.424  1.5133  0.8393  0.1261
12703TIP3    H259525   5.390   6.262   2.278 -0.4698  0.4161 -0.3726
12704TIP3   OH259526   2.821   3.592  11.163 -0.1840 -0.1178 -0.0684
12704TIP3    H159527   2.739   3.560  11.201 -1.3744  0.2992 -2.1927
12704TIP3    H259528   2.804   3.594  11.069  1.5392  2.0554 -0.3623
12705TIP3   OH259529   6.745   0.760   2.235 -0.4274 -0.7117  0.1179
12705TIP3    H159530   6.813   0.698   2.206 -1.6563 -2.2641  0.5023
12705TIP3    H259531   6.681   0.759   2.164 -1.2624 -1.1352  0.8796
12706TIP3   OH259532   3.510   6.134   5.640  0.1896 -0.0811 -0.1073
12706TIP3    H159533   3.549   6.120   5.726 -0.6466 -0.5058  0.2148
12706TIP3    H259534   3.539   6.059   5.588  2.0389  1.0128 -0.7030
12707TIP3   OH259535   2.057   0.355  15.131  0.6363  0.0469  0.1435
12707TIP3    H159536   1.980   0.382  15.080  2.8130 -1.4792 -4.2275
12707TIP3    H259537   2.026   0.351  15.221 -4.0503  0.7830 -1.3071
12708TIP3   OH259538   0.557   6.202   2.988  0.3167 -0.1220 -0.1951
12708TIP3    H159539   0.574   6.294   2.966  0.2107  0.1298  0.7813
12708TIP3    H259540   0.642   6.166   3.011 -0.0842  0.5251  2.3769
12709TIP3   OH259541   0.602   1.623  12.522 -0.3566 -0.1822  0.5915
12709TIP3    H159542   0.507   1.611  12.518 -0.3310 -0.4968  0.9687
12709TIP3    H259543   0.628   1.584  12.605 -0.3797  3.1449  2.2691
12710TIP3   OH259544   5.220   0.630  13.487  0.6121 -0.6514 -0.1499
12710TIP3    H159545   5.280   0.703  13.474 -1.4518  0.7209 -2.5485
12710TIP3    H259546   5.177   0.649  13.570  0.4144  0.6620 -0.5347
12711TIP3   OH259547   0.075   5.875   3.340 -0.1751 -0.6393 -0.1902
12711TIP3    H159548   0.058   5.830   3.257 -0.9513  1.7415 -1.3565
12711TIP3    H259549   0.162   5.845   3.367 -0.5425 -2.5782 -1.0843
12712TIP3   OH259550   4.480   1.334   2.410 -0.4715 -0.3068  0.4848
12712TIP3    H159551   4.497   1.424   2.383  0.3498 -0.8976 -1.0486
12712TIP3    H259552   4.531   1.321   2.489 -0.9061  0.6966  0.9274
12713TIP3   OH259553   5.028   5.630  13.258 -0.3136  0.4988  0.2780
12713TIP3    H159554   5.035   5.616  13.164 -0.5589 -0.0799  0.3448
12713TIP3    H259555   5.061   5.549  13.297 -2.2774 -0.1409  0.6637
12714TIP3   OH259556   3.779   6.781   0.402  0.6648  0.5741 -0.2103
12714TIP3    H159557   3.840   6.761   0.331  1.5216  2.2582  0.0154
12714TIP3    H259558   3.832   6.827   0.467 -0.7822  1.9191  0.0648
12715TIP3   OH259559   5.771   5.568   4.176  0.2313 -0.2584  0.3364
12715TIP3    H159560   5.807   5.618   4.103  1.8043 -0.5518  0.9050
12715TIP3    H259561   5.725   5.632   4.229 -0.0226  0.1318 -0.3526
12716TIP3   OH259562   1.738   0.730  11.711 -0.8090 -0.2242  0.6218
12716TIP3    H159563   1.642   0.733  11.706 -0.7163  1.9493 -0.5213
12716TIP3    H259564   1.764   0.822  11.719  1.2386 -0.7391  0.1260
12717TIP3   OH259565   2.262   5.964  13.959 -0.4497  0.2297 -0.1405
12717TIP3    H159566   2.186   5.948  14.015 -0.2117 -1.5157 -0.2819
12717TIP3    H259567   2.233   6.030  13.896 -1.5939  0.1630  0.3156
12718TIP3   OH259568   5.563   1.483   0.693 -0.2898 -0.3344 -0.0959
12718TIP3    H159569   5.622   1.549   0.728 -0.1824 -0.1467 -0.6278
12718TIP3    H259570   5.479   1.500   0.737  0.4378 -1.5910  1.8368
12719TIP3   OH259571   0.155   3.312   5.857  0.5084 -0.2805 -0.2534
12719TIP3    H159572   0.069   3.330   5.896  0.8719 -1.1606  0.9937
12719TIP3    H259573   0.212   3.298   5.932  1.4304 -1.1023 -1.1023
12720TIP3   OH259574   1.734   5.850  13.525  0.4695 -0.3160 -0.4890
12720TIP3    H159575   1.671   5.856  13.454 -1.8178  1.4308  1.5799
12720TIP3    H259576   1.683   5.821  13.601  1.7302  2.7018  1.6443
12721TIP3   OH259577   2.013   4.416  10.919 -0.1457  0.3342  0.2979
12721TIP3    H159578   1.988   4.398  10.828 -0.0400  2.2662 -0.1365
12721TIP3    H259579   2.095   4.368  10.931 -0.8146 -0.9714 -0.2126
12722TIP3   OH259580   0.110   2.068  15.460 -0.3701 -1.0013  0.3912
12722TIP3    H159581   0.179   2.015  15.501 -0.2116 -0.3951  0.9256
12722TIP3    H259582   0.149   2.098  15.378 -0.3948 -1.5573  0.1737
12723TIP3   OH259583   1.224   6.230  11.543  0.7896 -0.4352  0.1098
12723TIP3    H159584   1.133   6.213  11.569 -0.1380 -1.2763 -3.4266
12723TIP3    H259585   1.273   6.154  11.575  0.3525  0.1707  2.3113
12724TIP3   OH259586   1.544   4.979   5.007 -0.0252 -0.3034 -0.4142
12724TIP3    H159587   1.499   5.061   4.988  0.6623  0.3725  0.8488
12724TIP3    H259588   1.495   4.940   5.079  0.2898 -0.4747 -0.2895
12725TIP3   OH259589   6.499   6.248  15.191 -0.1674 -0.4933  0.8033
12725TIP3    H159590   6.508   6.336  15.227  0.2789  0.2201 -0.9456
12725TIP3    H259591   6.422   6.211  15.234 -1.5650  1.5124  0.1195
12726TIP3   OH259592   6.410   1.088   1.916 -0.3103  0.3128 -0.9404
12726TIP3    H159593   6.451   1.077   2.002 -2.2581  2.4089  0.3278
12726TIP3    H259594   6.335   1.027   1.917 -2.3812  2.8028  0.2652
12727TIP3   OH259595   2.024   5.043  13.703 -0.2051  0.3064 -0.2525
12727TIP3    H159596   2.085   5.044  13.777  0.0231  2.3318 -0.4373
12727TIP3    H259597   2.038   5.128  13.661 -1.2549 -0.3234 -1.8629
12728TIP3   OH259598   1.728   2.237  13.740 -0.2155 -0.0841  0.5784
12728TIP3    H159599   1.732   2.320  13.787 -0.3278  0.1839  0.1223
12728TIP3    H259600   1.684   2.259  13.657 -0.2681 -0.6021  0.4685
12729TIP3   OH259601   5.678   4.088  17.015 -0.2783  0.5796 -0.2877
12729TIP3    H159602   5.620   4.048  16.950 -0.1300  0.2201 -0.1982
12729TIP3    H259603   5.633   4.169  17.039 -1.0875 -0.0238  0.2835
12730TIP3   OH259604   4.987   2.713   5.407  0.1253 -1.0476 -0.4986
12730TIP3    H159605   4.937   2.729   5.487  2.6666  1.6349  0.6605
12730TIP3    H259606   5.070   2.677   5.438  0.6266 -1.2611 -2.0352
12731TIP3   OH259607   5.422   2.440   4.692  0.1867  0.2355  0.4919
12731TIP3    H159608   5.367   2.516   4.671 -0.8073 -0.2003  1.4571
12731TIP3    H259609   5.425   2.391   4.610 -1.9127 -0.3625  0.7236
12732TIP3   OH259610   4.816   3.941   5.463 -0.1280 -0.1486 -0.1839
12732TIP3    H159611   4.852   3.884   5.395  1.4731  0.0335  0.4952
12732TIP3    H259612   4.823   4.029   5.427 -0.0594 -0.1272 -0.1179
12733TIP3   OH259613   2.117   5.933   1.629 -0.0314  0.5806  0.1701
12733TIP3    H159614   2.128   6.028   1.638  0.3383  0.7394 -1.8404
12733TIP3    H259615   2.029   5.922   1.594 -0.0959  0.1804  0.4583
12734TIP3   OH259616   0.021   1.684  13.182  0.2091 -0.2764  0.1725
12734TIP3    H159617   0.052   1.771  13.156  2.3208 -0.8451  0.6687
12734TIP3    H259618  -0.070   1.682  13.154  0.0337  2.1992  0.3715
12735TIP3   OH259619   1.837   3.407   1.382 -0.1194 -0.3777 -0.1101
12735TIP3    H159620   1.792   3.473   1.330  0.6405  0.6324  0.4933
12735TIP3    H259621   1.907   3.454   1.426  0.7911 -1.7004 -0.1024
12736TIP3   OH259622   6.439   4.718   4.640 -0.3284  0.5077 -0.9578
12736TIP3    H159623   6.517   4.664   4.652 -0.8385  0.0273  0.3512
12736TIP3    H259624   6.371   4.655   4.616 -0.5528  0.7813 -1.0357
12737TIP3   OH259625   1.480   6.339   3.261 -0.0186 -0.3656  0.0107
12737TIP3    H159626   1.479   6.257   3.211  0.6498 -0.8032  0.6940
12737TIP3    H259627   1.426   6.399   3.211 -1.7273 -1.6777  0.2589
12738TIP3   OH259628   4.188   1.912  12.143 -0.0011  0.0528 -0.6740
12738TIP3    H159629   4.129   1.876  12.209  0.5727 -1.1514 -0.8090
12738TIP3    H259630   4.237   1.836  12.110  0.0269  0.6914 -2.1673
12739TIP3   OH259631   0.595   4.199  13.672 -0.4113 -0.4103  0.8786
12739TIP3    H159632   0.540   4.128  13.637 -0.4149 -0.0685  0.1948
12739TIP3    H259633   0.533   4.261  13.709 -0.4971  0.0953 -0.1171
12740TIP3   OH259634   4.493   4.819   0.432 -0.0377 -0.1631  0.2426
12740TIP3    H159635   4.466   4.833   0.523  0.5484  0.9267  0.2493
12740TIP3    H259636   4.469   4.900   0.387  0.2756 -0.4465 -0.4418
12741TIP3   OH259637   0.838   0.062   3.096  0.3893  0.3196  0.5620
12741TIP3    H159638   0.794   0.140   3.128 -1.8354 -1.4982  2.0549
12741TIP3    H259639   0.827   0.065   3.001 -1.2448  0.9169  0.7544
12742TIP3   OH259640   0.961   4.744   0.577  0.5695 -0.3977  0.2311
12742TIP3    H159641   1.046   4.761   0.618  0.8298  1.6235 -1.0663
12742TIP3    H259642   0.973   4.768   0.486 -1.2870 -0.4729 -0.0534
12743TIP3   OH259643   4.534   3.939  11.408 -0.5285 -0.5992 -0.6632
12743TIP3    H159644   4.529   4.031  11.381 -0.6010 -0.6626 -0.8622
12743TIP3    H259645   4.468   3.895  11.356 -2.1272 -0.3671  1.1133
12744TIP3   OH259646   4.089   0.290  15.828  0.0581  0.3121 -0.3933
12744TIP3    H159647   4.170   0.304  15.878  0.1783  0.3784 -0.6035
12744TIP3    H259648   4.026   0.259  15.892  0.2327  0.3332 -0.2117
12745TIP3   OH259649   3.405   0.792  11.123 -0.5472 -0.0302 -0.0911
12745TIP3    H159650   3.433   0.798  11.032  0.3227 -0.2928  0.1502
12745TIP3    H259651   3.335   0.856  11.131 -0.3792  0.2555 -0.8518
12746TIP3   OH259652   6.766   0.834   1.335  0.2947 -0.1158  0.2583
12746TIP3    H159653   6.850   0.855   1.296  1.1192 -1.9667  0.9842
12746TIP3    H259654   6.701   0.856   1.268  1.3149  1.5213 -0.2182
12747TIP3   OH259655   4.407   3.407  13.920 -0.3118  0.3782 -0.3030
12747TIP3    H159656   4.476   3.345  13.898  1.5403  0.7040  4.0287
12747TIP3    H259657   4.451   3.491  13.931 -0.9533  0.2811  4.0994
12748TIP3   OH259658   3.306   0.285  15.840  0.4620 -0.0819 -0.2318
12748TIP3    H159659   3.261   0.231  15.904 -0.5220  0.4073 -0.4867
12748TIP3    H259660   3.381   0.234  15.812 -0.1066 -1.0450 -0.0036
12749TIP3   OH259661   0.111   0.776   5.558  0.1070 -0.1560  0.4294
12749TIP3    H159662   0.131   0.806   5.647  0.6407  0.7271  0.0178
12749TIP3    H259663   0.194   0.787   5.511 -0.1454 -0.7380 -0.1438
12750TIP3   OH259664   4.367   0.709   6.507 -0.7977  0.7985  0.5685
12750TIP3    H159665   4.377   0.772   6.436 -2.2701 -0.9316 -1.2148
12750TIP3    H259666   4.375   0.762   6.587 -0.3418  2.9579 -0.8573
12751TIP3   OH259667   5.768   5.017   0.767  0.2624  0.3860  0.1164
12751TIP3    H159668   5.777   5.107   0.736 -1.3953  0.3744 -0.4511
12751TIP3    H259669   5.681   5.013   0.807 -0.3715 -1.3833 -1.3481
12752TIP3   OH259670   5.826   3.704  12.486 -0.2870  0.5652 -0.4012
12752TIP3    H159671   5.790   3.786  12.453  0.2919  1.0625  0.2113
12752TIP3    H259672   5.767   3.678  12.557  0.2312  1.0937  0.2304
12753TIP3   OH259673   3.118   2.667   2.084 -0.0768  0.6543  0.4593
12753TIP3    H159674   3.133   2.725   2.160  1.5297 -0.7490  1.2493
12753TIP3    H259675   3.204   2.659   2.043 -1.0227  1.7646 -1.8190
12754TIP3   OH259676   2.447   1.009   3.127  0.0001  0.0486  0.0821
12754TIP3    H159677   2.418   1.012   3.036 -1.7330  0.1156  0.6272
12754TIP3    H259678   2.369   1.028   3.178  0.9736  0.0787  1.5959
12755TIP3   OH259679   3.822   3.138  16.577 -0.0728  0.2265 -0.3466
12755TIP3    H159680   3.913   3.146  16.548 -0.0179  0.8713 -0.0079
12755TIP3    H259681   3.826   3.150  16.672 -0.4450 -0.2861 -0.2705
12756TIP3   OH259682   6.393   2.477   2.500 -0.1874 -0.0273  0.5324
12756TIP3    H159683   6.441   2.458   2.581  1.1392 -0.1123 -0.2697
12756TIP3    H259684   6.448   2.541   2.454 -0.2758 -0.9905 -0.9249
12757TIP3   OH259685   5.630   0.530   5.136 -0.1553  0.1914  0.2432
12757TIP3    H159686   5.630   0.623   5.114  1.0171  0.2073  0.3274
12757TIP3    H259687   5.537   0.507   5.141 -0.4693  1.7250  1.7995
12758TIP3   OH259688   2.246   1.918  11.098  0.2303 -0.4247  0.1324
12758TIP3    H159689   2.175   1.914  11.161  0.1179 -1.4399 -0.0530
12758TIP3    H259690   2.212   1.874  11.020  0.2544  1.1022 -0.7506
12759TIP3   OH259691   4.490   2.660   1.157 -0.0521  0.3200 -0.1844
12759TIP3    H159692   4.506   2.744   1.114 -0.1958  0.9638  0.9871
12759TIP3    H259693   4.485   2.682   1.250  0.6087 -1.0997  0.1908
12760TIP3   OH259694   5.421   6.711   2.888  0.2765  0.5958  0.0709
12760TIP3    H159695   5.372   6.651   2.944  1.8805 -0.7120  0.1184
12760TIP3    H259696   5.375   6.709   2.805  0.5651 -1.0919 -0.0691
12761TIP3   OH259697   4.887   0.325   5.228 -0.2263  0.3935 -0.2767
12761TIP3    H159698   4.901   0.348   5.320 -1.9624  0.2347  0.0418
12761TIP3    H259699   4.850   0.237   5.230 -1.2906  0.8003 -1.0517
12762TIP3   OH259700   4.845   1.990  12.107  0.4193 -0.1304  0.3250
12762TIP3    H159701   4.846   2.085  12.115  1.2446 -0.2833  2.2476
12762TIP3    H259702   4.752   1.968  12.096  0.1400  0.8279  0.7231
12763TIP3   OH259703   0.968   6.662   3.545 -0.5036  0.4895 -0.5259
12763TIP3    H159704   0.894   6.623   3.499  0.0748 -0.9205 -0.2832
12763TIP3    H259705   1.026   6.588   3.565  0.5216  1.4450  0.1107
12764TIP3   OH259706   3.028   3.384  15.966  0.8900  0.0449 -0.1352
12764TIP3    H159707   2.988   3.459  16.011 -0.2402 -0.0720 -0.9174
12764TIP3    H259708   2.960   3.353  15.906  0.7701 -2.6082  1.3015
12765TIP3   OH259709   3.053   0.320  16.505 -0.2097 -0.0584  0.5806
12765TIP3    H159710   3.095   0.341  16.589  0.6738 -1.0818  0.4040
12765TIP3    H259711   3.121   0.336  16.440 -0.2745 -1.1614  0.2388
12766TIP3   OH259712   0.510   2.319   3.526 -0.5816 -0.2261  0.2959
12766TIP3    H159713   0.598   2.354   3.539 -0.2208 -0.8754 -0.3424
12766TIP3    H259714   0.455   2.396   3.514 -0.2393  0.2155  1.5534
12767TIP3   OH259715   3.981   4.787  17.188  0.4985  0.3149 -0.6455
12767TIP3    H159716   3.936   4.713  17.229  1.5592 -0.2766 -0.5428
12767TIP3    H259717   4.054   4.747  17.140  2.4078  1.4869  1.2085
12768TIP3   OH259718   5.882   2.208  15.399 -0.3063  0.4063 -0.2531
12768TIP3    H159719   5.904   2.116  15.386 -1.4036  0.2802 -1.3384
12768TIP3    H259720   5.795   2.217  15.361 -1.2982  1.3251  2.1237
12769TIP3   OH259721   3.541   5.574   3.825 -0.0014  0.2662  0.5174
12769TIP3    H159722   3.460   5.566   3.775  0.4491  1.6372 -0.4639
12769TIP3    H259723   3.515   5.620   3.905 -0.4033 -0.3635  0.7524
12770TIP3   OH259724   4.682   6.755  15.744 -0.4258 -0.1414 -0.2961
12770TIP3    H159725   4.660   6.737  15.835  0.8759  0.0248  0.0646
12770TIP3    H259726   4.659   6.675  15.697 -0.1669 -0.5905  0.3366
12771TIP3   OH259727   1.035   0.928   6.641  0.9356 -0.2239 -0.7684
12771TIP3    H159728   1.009   0.842   6.673  0.0946  0.0365 -0.7200
12771TIP3    H259729   0.957   0.960   6.594  0.2822  1.6024  1.4782
12772TIP3   OH259730   3.591   0.272  15.744 -0.3529 -0.0706 -0.3691
12772TIP3    H159731   3.577   0.275  15.839 -0.3930  0.8390 -0.3927
12772TIP3    H259732   3.642   0.193  15.729 -1.9549 -1.2154  0.1852
12773TIP3   OH259733   5.861   1.989  13.536 -0.1248  0.5525 -0.3782
12773TIP3    H159734   5.906   1.938  13.603 -2.0464  0.6084  1.0069
12773TIP3    H259735   5.826   1.924  13.475  0.5147  0.4259 -0.6127
12774TIP3   OH259736   1.769   2.538  13.905  0.4999 -0.1113 -0.6012
12774TIP3    H159737   1.726   2.485  13.972  0.6944  1.3862  0.7363
12774TIP3    H259738   1.858   2.503  13.899  0.8568  0.5356  0.8207
12775TIP3   OH259739   0.274   4.830  13.169 -0.4610 -0.4777  0.0364
12775TIP3    H159740   0.272   4.738  13.196 -0.4329 -0.3650  0.4293
12775TIP3    H259741   0.366   4.849  13.152 -0.2656 -0.1044  1.4312
12776TIP3   OH259742   4.094   4.418  15.028  0.2370  0.0902 -0.0831
12776TIP3    H159743   4.115   4.333  14.991 -0.9219  0.0134 -0.6004
12776TIP3    H259744   4.155   4.429  15.101 -0.4239 -1.7443  0.7671
12777TIP3   OH259745   4.178   6.482   2.259  0.4044 -0.0577  0.5055
12777TIP3    H159746   4.211   6.571   2.275  0.8068 -0.0276 -0.4433
12777TIP3    H259747   4.257   6.430   2.246  0.1015  0.1034 -2.2751
12778TIP3   OH259748   1.781   0.399   0.669 -0.0271  0.2358  0.1752
12778TIP3    H159749   1.846   0.437   0.609  1.7508  1.2211  2.6275
12778TIP3    H259750   1.808   0.307   0.678 -1.5802 -0.4925 -2.1452
12779TIP3   OH259751   1.477   2.546   0.882  0.4487 -0.1850 -0.4399
12779TIP3    H159752   1.491   2.548   0.977 -0.6875 -2.9133 -0.1778
12779TIP3    H259753   1.384   2.568   0.872  0.3094 -0.9718 -0.8522
12780TIP3   OH259754   0.262   5.772  15.128  0.4397 -0.4275  0.2499
12780TIP3    H159755   0.322   5.785  15.202  1.4166  1.8344 -0.8801
12780TIP3    H259756   0.298   5.826  15.058 -0.5257 -2.4448 -1.8840
12781TIP3   OH259757   0.395   4.543   1.412  0.9025  0.4283  0.4963
12781TIP3    H159758   0.399   4.627   1.366  0.2034  1.1361  1.6796
12781TIP3    H259759   0.347   4.563   1.493 -0.4201 -1.3940  0.1863
12782TIP3   OH259760   5.071   3.865  16.639 -0.1585 -0.5184 -0.6418
12782TIP3    H159761   5.037   3.878  16.728 -1.4314 -1.5145 -0.9688
12782TIP3    H259762   5.074   3.953  16.602  0.0266 -0.1391  0.2563
12783TIP3   OH259763   3.499   1.231   1.409 -0.7612 -0.2700  0.3942
12783TIP3    H159764   3.468   1.154   1.456  0.1090 -0.6688  0.3229
12783TIP3    H259765   3.560   1.274   1.468 -3.0706  1.7535  1.4280
12784TIP3   OH259766   5.142   1.725  16.213 -0.5239  0.8133 -0.1411
12784TIP3    H159767   5.149   1.644  16.265  0.3713  1.1173  0.2204
12784TIP3    H259768   5.175   1.700  16.127 -0.0781  0.8313  0.0179
12785TIP3   OH259769   6.484   2.389   3.068 -0.3572 -0.0106 -0.3344
12785TIP3    H159770   6.446   2.324   3.126  0.0939  0.5016  0.5442
12785TIP3    H259771   6.420   2.460   3.067  0.0558  0.3772  0.2758
12786TIP3   OH259772   3.480   3.432  15.791  0.2726 -0.1482 -0.3432
12786TIP3    H159773   3.517   3.347  15.815 -1.1201 -1.0839 -1.4251
12786TIP3    H259774   3.387   3.424  15.811  0.3997  1.7029  1.0615
12787TIP3   OH259775   5.071   5.910  14.582  0.6017  0.4954 -0.2816
12787TIP3    H159776   4.976   5.895  14.574  0.6934 -0.7990  0.9135
12787TIP3    H259777   5.105   5.888  14.495 -0.0590 -0.1510 -0.3910
12788TIP3   OH259778   1.055   3.692   2.133 -0.0896  0.2160  0.1053
12788TIP3    H159779   0.961   3.710   2.134 -0.2693 -0.5661 -1.4540
12788TIP3    H259780   1.064   3.604   2.170  0.1358  0.6877  1.1966
12789TIP3   OH259781   1.503   4.045  10.897  0.0492  0.0035 -0.5180
12789TIP3    H159782   1.482   4.042  10.804  1.6932  1.3214 -0.9567
12789TIP3    H259783   1.599   4.044  10.901  0.0068 -1.4244  1.2320
12790TIP3   OH259784   4.129   5.959  15.531 -0.5630  0.0383 -0.3327
12790TIP3    H159785   4.111   6.046  15.567  0.2692  0.2512 -0.4198
12790TIP3    H259786   4.146   5.904  15.607  1.6876  0.6007 -0.4106
12791TIP3   OH259787   3.971   4.375   0.715 -0.2177 -1.0722 -0.4995
12791TIP3    H159788   3.939   4.354   0.803  0.5087  0.6973  0.2097
12791TIP3    H259789   3.971   4.291   0.669 -0.0510 -2.1331  1.3775
12792TIP3   OH259790   1.116   5.427   5.739  0.0662 -0.2872  0.2094
12792TIP3    H159791   1.119   5.495   5.807  1.7706  0.8249 -0.9556
12792TIP3    H259792   1.114   5.476   5.657 -0.9812 -1.6432 -0.5800
12793TIP3   OH259793   3.105   2.921   3.257 -0.6295  0.2299 -0.3753
12793TIP3    H159794   3.048   2.993   3.282 -1.7263 -0.6908 -0.1428
12793TIP3    H259795   3.047   2.861   3.209  0.2606 -0.4883 -0.5642
12794TIP3   OH259796   5.644   0.153  14.702 -0.1866  0.0250  0.1793
12794TIP3    H159797   5.602   0.175  14.785 -1.1860  1.5697 -0.7164
12794TIP3    H259798   5.610   0.066  14.680  1.7830 -1.3848  2.4446
12795TIP3   OH259799   0.443   4.984   0.485  0.5641 -0.3046  0.6993
12795TIP3    H159800   0.533   4.979   0.516  0.8859 -0.4484 -0.2273
12795TIP3    H259801   0.415   5.073   0.506 -0.1257 -1.1743  3.7476
12796TIP3   OH259802   5.961   1.624  15.269 -0.1898  0.3719 -0.5236
12796TIP3    H159803   5.953   1.719  15.259  1.3170  0.4957 -0.5601
12796TIP3    H259804   6.052   1.609  15.294 -0.4385 -1.0614 -0.4002
12797TIP3   OH259805   4.986   1.943  12.368 -0.2912  0.1661 -0.1339
12797TIP3    H159806   4.937   1.987  12.298 -1.0702 -0.2138  0.1786
12797TIP3    H259807   5.000   2.011  12.434  0.6989  0.6069 -0.7694
12798TIP3   OH259808   4.608   1.684  13.640 -0.3992 -0.4310  0.3781
12798TIP3    H159809   4.612   1.769  13.685 -1.4355 -0.7420  1.0652
12798TIP3    H259810   4.553   1.630  13.696 -0.2057 -1.3879 -0.3519
12799TIP3   OH259811   1.734   1.970  12.464  0.3847 -0.0312  0.2986
12799TIP3    H159812   1.648   1.930  12.455  0.2690  0.3575 -0.3655
12799TIP3    H259813   1.738   2.000  12.554 -0.4695  0.6318  0.1170
12800TIP3   OH259814   0.938   1.807   5.756 -0.3464 -0.0318 -0.6428
12800TIP3    H159815   0.898   1.723   5.733 -0.5791  0.0087 -0.3829
12800TIP3    H259816   0.969   1.795   5.845  1.2629 -0.4450 -1.2305
12801TIP3   OH259817   1.219   1.009   1.162 -0.6099  0.3485  0.2809
12801TIP3    H159818   1.300   0.964   1.184 -0.3865  0.7076  0.1977
12801TIP3    H259819   1.223   1.092   1.210 -1.6729 -0.3244  1.5727
12802TIP3   OH259820   2.721   4.115  15.757 -0.0815  0.3966  0.1960
12802TIP3    H159821   2.780   4.125  15.831  1.4606  3.0211 -1.2910
12802TIP3    H259822   2.633   4.125  15.794  0.5651 -0.0583  1.8996
12803TIP3   OH259823   4.686   5.310   3.612  0.2868  0.0814 -0.3749
12803TIP3    H159824   4.650   5.340   3.528  0.4214  2.0310  0.2327
12803TIP3    H259825   4.613   5.264   3.654 -0.4725  1.0647 -0.5985
12804TIP3   OH259826   0.053   1.132   4.318 -0.2374  0.2526  0.2171
12804TIP3    H159827   0.031   1.059   4.260 -0.2354  0.1666  0.3238
12804TIP3    H259828   0.072   1.091   4.402 -1.0481  0.4398  0.5028
12805TIP3   OH259829   0.141   5.525  17.037  0.2961 -0.4039 -0.2278
12805TIP3    H159830   0.190   5.599  17.001 -0.0479  0.8028  1.7064
12805TIP3    H259831   0.205   5.479  17.092  0.4975 -1.5353 -1.3960
12806TIP3   OH259832   6.519   0.453  16.230  0.3322  0.1600  0.2253
12806TIP3    H159833   6.554   0.367  16.252 -1.6842 -0.5385  0.7747
12806TIP3    H259834   6.466   0.478  16.306 -1.0293  0.8111 -0.9154
12807TIP3   OH259835   1.651   3.154  13.582  0.7814  0.0320 -0.2011
12807TIP3    H159836   1.734   3.128  13.542  0.5834 -0.1159 -0.5266
12807TIP3    H259837   1.589   3.088  13.551  0.4661  0.3608 -0.2732
12808TIP3   OH259838   6.782   4.160  17.235 -0.0897 -0.2811 -0.6029
12808TIP3    H159839   6.868   4.177  17.196 -0.3708  0.9338 -0.7068
12808TIP3    H259840   6.719   4.190  17.169 -0.5777  1.5843  0.6622
12809TIP3   OH259841   1.092   4.060   1.991  0.0189 -0.6400  0.3052
12809TIP3    H159842   1.023   3.994   1.980  0.4524 -1.1694  0.7467
12809TIP3    H259843   1.142   4.055   1.910 -0.3961 -0.3265  0.0260
12810TIP3   OH259844   1.046   2.091  15.757  0.3923 -0.0604 -0.3754
12810TIP3    H159845   0.986   2.028  15.716 -3.0864  1.8255  1.5290
12810TIP3    H259846   1.074   2.147  15.685  0.2728 -1.2939 -1.4048
12811TIP3   OH259847   5.594   2.505   1.718 -0.3451  0.2244  0.0793
12811TIP3    H159848   5.654   2.450   1.667 -1.0890 -1.5094  1.0617
12811TIP3    H259849   5.545   2.554   1.652  1.2993  0.7683 -0.7663
12812TIP3   OH259850   4.625   2.524   2.954 -0.0187 -0.0215 -0.1608
12812TIP3    H159851   4.647   2.457   2.890 -1.8455  0.3833 -1.2606
12812TIP3    H259852   4.615   2.477   3.036 -0.2479 -0.9327 -0.7063
12813TIP3   OH259853   3.685   6.532   2.424 -0.1480  0.9664  0.0766
12813TIP3    H159854   3.672   6.513   2.331  0.6447  2.0926 -0.2848
12813TIP3    H259855   3.780   6.540   2.434 -0.3176  2.5715  0.6085
12814TIP3   OH259856   5.261   2.077  14.971  0.1580  0.1886 -0.2030
12814TIP3    H159857   5.200   2.005  14.957  0.3435  0.2706 -1.4977
12814TIP3    H259858   5.346   2.042  14.945  0.4706  0.4494  0.4597
12815TIP3   OH259859   2.184   1.801  13.669 -0.4335 -0.4735  0.3165
12815TIP3    H159860   2.275   1.773  13.659 -0.1939  0.2428  0.4762
12815TIP3    H259861   2.132   1.726  13.639  0.2181 -0.4872 -0.7666
12816TIP3   OH259862   4.799   4.486  15.321  0.0572  0.1037 -0.2683
12816TIP3    H159863   4.734   4.481  15.391  0.9444  1.0346  0.6529
12816TIP3    H259864   4.768   4.557  15.265 -0.3090 -0.2035 -0.4545
12817TIP3   OH259865   4.058   1.731   0.819  0.5538  0.2850 -0.0272
12817TIP3    H159866   4.023   1.729   0.730 -1.3685  0.0081  0.6970
12817TIP3    H259867   4.053   1.640   0.848  0.7481  0.4498  0.5206
12818TIP3   OH259868   2.168   2.754   4.545  0.0281  0.1313  0.1347
12818TIP3    H159869   2.253   2.745   4.589  0.9787 -0.2213 -1.7572
12818TIP3    H259870   2.189   2.787   4.458 -1.7080 -0.7714 -0.6542
12819TIP3   OH259871   0.326   0.317  16.945 -0.1027  0.4085 -0.0100
12819TIP3    H159872   0.289   0.321  17.033  0.6880 -2.4346  0.5058
12819TIP3    H259873   0.254   0.285  16.890  0.7089 -2.4499  0.5038
12820TIP3   OH259874   3.356   0.650   1.926 -0.1903  0.3357  0.3339
12820TIP3    H159875   3.429   0.655   1.865 -0.0812 -2.5649  0.1686
12820TIP3    H259876   3.279   0.678   1.875  0.4739  1.5826 -0.0087
12821TIP3   OH259877   5.916   4.248   0.353  0.3342 -0.3104  0.4626
12821TIP3    H159878   5.931   4.200   0.434 -0.1235 -0.5291  0.4179
12821TIP3    H259879   5.836   4.297   0.368 -1.8600 -3.2580 -1.1748
12822TIP3   OH259880   6.360   4.899  11.754  0.2562  0.0112 -0.1404
12822TIP3    H159881   6.363   4.827  11.817 -1.1406 -0.7525 -0.9217
12822TIP3    H259882   6.449   4.905  11.719  0.5164 -0.9507  0.3440
12823TIP3   OH259883   3.054   0.263   3.251  0.2205 -0.1215 -0.3930
12823TIP3    H159884   3.081   0.278   3.160  0.3082  1.8056 -0.0796
12823TIP3    H259885   3.124   0.301   3.303  0.0875 -1.0783  0.4820
12824TIP3   OH259886   6.052   0.477  12.639 -0.3602 -0.2122 -0.3992
12824TIP3    H159887   6.013   0.564  12.648 -1.1445 -0.4270 -1.5914
12824TIP3    H259888   6.132   0.481  12.692 -0.3070  1.2746 -0.5677
12825TIP3   OH259889   0.264   2.555  15.535 -0.4224 -0.4113 -0.6687
12825TIP3    H159890   0.304   2.635  15.500 -0.5055  1.4857  3.2830
12825TIP3    H259891   0.338   2.502  15.564 -0.4867 -0.3753 -0.4401
12826TIP3   OH259892   2.709   2.015   4.732 -1.1220  0.0342  0.7450
12826TIP3    H159893   2.796   1.989   4.761 -0.4495  0.9740 -0.3902
12826TIP3    H259894   2.669   2.057   4.808 -0.3401  0.1924  1.0690
12827TIP3   OH259895   6.102   1.990   3.747 -0.0425  0.2501  0.4780
12827TIP3    H159896   6.175   1.994   3.809  0.9877 -0.1190 -0.7071
12827TIP3    H259897   6.108   1.903   3.709 -0.9504  0.3165  0.1687
12828TIP3   OH259898   5.283   3.504   2.266 -0.2467 -0.7713 -0.3406
12828TIP3    H159899   5.349   3.475   2.329  0.2943  1.0408 -0.0583
12828TIP3    H259900   5.210   3.442   2.278  0.9437 -2.1155  0.1133
12829TIP3   OH259901   6.577   2.128  16.554 -0.1570  1.0455  0.3947
12829TIP3    H159902   6.505   2.079  16.595 -0.0766  1.2433  0.7761
12829TIP3    H259903   6.631   2.156  16.628  1.4718 -0.9224 -0.0303
12830TIP3   OH259904   0.417   1.779  13.906  0.5884 -0.2532 -0.7194
12830TIP3    H159905   0.435   1.833  13.829 -0.9316 -1.1504 -1.7406
12830TIP3    H259906   0.333   1.737  13.887  0.6795 -1.2819  0.9952
12831TIP3   OH259907   3.247   4.192   5.219  0.2208 -0.1958  0.5866
12831TIP3    H159908   3.188   4.254   5.175  1.2482  0.2733 -0.1649
12831TIP3    H259909   3.333   4.234   5.216  0.8310 -1.3955  0.5699
12832TIP3   OH259910   4.466   5.946   2.471 -0.3158  0.2258 -0.1920
12832TIP3    H159911   4.499   5.989   2.392  0.8209 -0.0078  0.1492
12832TIP3    H259912   4.534   5.960   2.536 -1.0603  0.0442  0.6289
12833TIP3   OH259913   3.608   4.666  11.160  0.2189 -0.7305 -0.7470
12833TIP3    H159914   3.633   4.679  11.252  1.0696 -3.3232 -0.5863
12833TIP3    H259915   3.521   4.627  11.165 -0.3993  0.5550 -1.1217
12834TIP3   OH259916   5.427   3.186   3.924  0.3378 -0.4020  0.4743
12834TIP3    H159917   5.495   3.228   3.977 -1.2210  2.0985  0.5903
12834TIP3    H259918   5.371   3.141   3.987  0.0483  0.2735  0.7039
12835TIP3   OH259919   0.857   5.799  11.945  0.1193  0.2399 -0.0053
12835TIP3    H159920   0.871   5.889  11.974 -0.5107  0.8030 -1.3858
12835TIP3    H259921   0.800   5.808  11.869  0.4550 -1.3037 -0.4411
12836TIP3   OH259922   4.945   5.786  11.952 -0.4156 -0.4531  0.3917
12836TIP3    H159923   4.984   5.714  11.901 -0.8849 -0.8247  0.5579
12836TIP3    H259924   4.953   5.758  12.043 -0.2073 -0.0985  0.4834
12837TIP3   OH259925   2.898   4.844   3.769  0.2533 -0.1185 -0.0950
12837TIP3    H159926   2.936   4.877   3.688  1.4540  0.3612  0.6502
12837TIP3    H259927   2.808   4.877   3.769  0.9234  1.7130 -0.1705
12838TIP3   OH259928   0.021   6.302  13.392  0.2787  0.1979 -0.0428
12838TIP3    H159929  -0.019   6.283  13.477 -0.4317 -0.1426 -0.4476
12838TIP3    H259930   0.020   6.218  13.346  1.2629  0.2352 -0.1385
12839TIP3   OH259931   3.971   2.324   5.027  0.2676 -0.0766  0.3602
12839TIP3    H159932   4.014   2.410   5.025 -0.5828  0.3393 -1.6577
12839TIP3    H259933   3.878   2.344   5.025  0.0586 -1.0292 -1.9635
12840TIP3   OH259934   4.962   1.362  13.553  0.2589  0.1152  0.0129
12840TIP3    H159935   4.985   1.311  13.631  0.8363 -1.5651 -1.2184
12840TIP3    H259936   5.007   1.445  13.565 -1.4890  0.7813  2.5479
12841TIP3   OH259937   3.157   4.700   0.748  0.1320  0.0730  0.0491
12841TIP3    H159938   3.156   4.662   0.660  2.4710 -0.7029  0.3366
12841TIP3    H259939   3.231   4.760   0.747  1.0986 -1.0500  1.9335
12842TIP3   OH259940   5.990   5.615  14.579 -0.9357  0.1630  0.2820
12842TIP3    H159941   5.917   5.571  14.621  0.4948 -1.0817  1.4844
12842TIP3    H259942   6.005   5.693  14.632 -1.4061  0.4462  0.0062
12843TIP3   OH259943   2.618   4.176   0.026 -0.4929  0.0324  0.0633
12843TIP3    H159944   2.692   4.223  -0.012  0.9975 -1.0074  1.6166
12843TIP3    H259945   2.572   4.137  -0.048 -0.4389  2.0148 -1.0487
12844TIP3   OH259946   1.687   2.399   5.330 -0.0902 -0.0145 -0.4129
12844TIP3    H159947   1.616   2.358   5.380 -0.4754  1.1995  0.0593
12844TIP3    H259948   1.653   2.486   5.308  0.9521  0.2776 -0.8698
12845TIP3   OH259949   4.730   4.938   0.224  0.1535  0.7713 -0.0400
12845TIP3    H159950   4.730   5.004   0.293 -0.9722  0.5624  0.1757
12845TIP3    H259951   4.746   4.856   0.269 -2.4995  0.3809  0.2653
12846TIP3   OH259952   5.011   0.966   0.356  0.2526 -0.3158 -0.2767
12846TIP3    H159953   4.917   0.955   0.369 -0.0665 -0.4917 -2.6061
12846TIP3    H259954   5.029   1.056   0.384 -1.0199  0.4878 -2.0063
12847TIP3   OH259955   1.864   3.192  11.320 -0.2679 -0.2770  0.5007
12847TIP3    H159956   1.946   3.158  11.356  0.0739  0.2581  0.2388
12847TIP3    H259957   1.877   3.192  11.225 -0.4816  0.0166  0.4696
12848TIP3   OH259958   1.836   3.852  12.953  0.1056  0.3285 -0.3272
12848TIP3    H159959   1.808   3.777  12.900  0.2118 -0.6486  0.9688
12848TIP3    H259960   1.872   3.914  12.890 -0.4996 -0.4814 -1.4823
12849TIP3   OH259961   5.379   0.303   2.240 -0.2654  0.1118 -0.4075
12849TIP3    H159962   5.376   0.233   2.306  2.1865  0.1742 -0.1775
12849TIP3    H259963   5.344   0.380   2.286 -1.1773 -0.4925 -0.0664
12850TIP3   OH259964   2.860   3.542   1.995 -0.1201 -0.2653  0.7165
12850TIP3    H159965   2.956   3.552   1.997 -0.1042 -0.4767  0.9785
12850TIP3    H259966   2.832   3.601   1.925  0.3924 -1.6482 -0.6976
12851TIP3   OH259967   5.897   3.861   5.049 -0.2198 -0.4493  0.0554
12851TIP3    H159968   5.816   3.859   5.100  0.8792  1.1625  1.9321
12851TIP3    H259969   5.923   3.769   5.043  0.4511 -0.6176  3.8873
12852TIP3   OH259970   5.781   6.295   3.023  0.4246  0.1821  0.3191
12852TIP3    H159971   5.785   6.231   3.094  2.1616  0.2824  0.3215
12852TIP3    H259972   5.735   6.369   3.060  0.2660 -0.2393  0.9699
12853TIP3   OH259973   4.778   2.733  15.411 -0.5642  0.9095 -0.2623
12853TIP3    H159974   4.769   2.743  15.505 -0.2233  2.7160 -0.4121
12853TIP3    H259975   4.703   2.779  15.374 -0.3783  0.7094 -0.9057
12854TIP3   OH259976   3.813   0.769  13.969  0.6628 -0.2600 -0.2455
12854TIP3    H159977   3.737   0.747  14.023 -0.0068  0.1052 -1.0457
12854TIP3    H259978   3.852   0.684  13.948 -1.0595 -0.6172 -2.0776
12855TIP3   OH259979   1.742   4.777   2.015  0.6719 -0.4178  0.0641
12855TIP3    H159980   1.648   4.763   2.009  0.8376 -1.1845 -0.6954
12855TIP3    H259981   1.771   4.788   1.924  0.9917  1.9853  0.4103
12856TIP3   OH259982   2.802   0.085  15.808 -0.0264  0.3019 -1.0149
12856TIP3    H159983   2.876   0.072  15.749 -0.0821  0.5427 -1.1392
12856TIP3    H259984   2.791   0.180  15.813 -0.0746  0.2802 -0.6824
12857TIP3   OH259985   5.419   3.278  11.529  0.4993  0.4804 -0.5392
12857TIP3    H159986   5.452   3.308  11.614 -1.1964  0.0157  0.3044
12857TIP3    H259987   5.362   3.348  11.499  1.0849  0.6389 -1.3077
12858TIP3   OH259988   2.840   2.454  13.374  0.0482 -0.9528  0.0607
12858TIP3    H159989   2.890   2.535  13.377  0.4025 -1.1533 -0.3828
12858TIP3    H259990   2.875   2.407  13.298  0.9691 -2.2356  1.2442
12859TIP3   OH259991   5.720   1.244  12.130  0.2512 -0.0599 -0.1434
12859TIP3    H159992   5.815   1.248  12.142  0.4869 -0.2783 -1.9442
12859TIP3    H259993   5.708   1.203  12.045 -1.5023 -1.4335  0.7477
12860TIP3   OH259994   3.977   0.048  15.507  1.0949 -0.0628 -0.6111
12860TIP3    H159995   4.072   0.057  15.501  1.0312  1.0303  0.1085
12860TIP3    H259996   3.943   0.111  15.443  0.8440 -0.2483 -0.6617
12861TIP3   OH259997   1.823   4.993   6.065  0.2907  0.2017 -0.0041
12861TIP3    H159998   1.747   4.961   6.113  1.4503 -1.3783  0.8062
12861TIP3    H259999   1.889   5.011   6.132  0.9050  0.8535 -0.7612
12862TIP3   OH260000   4.438   0.471  16.831 -0.4392 -0.2961  0.1974
12862TIP3    H160001   4.443   0.387  16.786  2.6541 -0.0912  0.0680
12862TIP3    H260002   4.401   0.531  16.766  2.4952 -0.3595 -1.5968
12863TIP3   OH260003   4.326   2.484   1.533 -0.0073 -0.6236 -0.5781
12863TIP3    H160004   4.389   2.459   1.466 -0.7040  0.7899 -1.7985
12863TIP3    H260005   4.353   2.435   1.611  1.9176 -0.8844 -1.3777
12864TIP3   OH260006   0.910   4.729  13.868 -0.6099  0.2226 -0.4393
12864TIP3    H160007   0.869   4.658  13.820 -1.8589  0.5011  0.1954
12864TIP3    H260008   0.878   4.720  13.957  0.8105  0.3805  0.1073
12865TIP3   OH260009   0.483   3.214   2.175 -0.6290  0.1294  0.1812
12865TIP3    H160010   0.507   3.306   2.189  0.3987 -0.3501  1.5998
12865TIP3    H260011   0.565   3.166   2.184 -0.9180 -0.8208 -1.8634
12866TIP3   OH260012   6.732   3.371  17.192 -0.3289 -0.1255 -0.5904
12866TIP3    H160013   6.753   3.458  17.158 -1.0550 -0.1395 -1.0926
12866TIP3    H260014   6.707   3.321  17.114  0.1521 -0.7993 -0.3101
12867TIP3   OH260015   4.375   5.087  12.529  0.2493 -0.0890 -0.0094
12867TIP3    H160016   4.282   5.111  12.525 -0.3280 -1.7763  2.3971
12867TIP3    H260017   4.418   5.150  12.470 -2.6026 -0.3680 -2.5532
12868TIP3   OH260018   1.988   2.601  14.366 -0.5652  0.2315  0.2280
12868TIP3    H160019   2.058   2.623  14.306 -0.1004  1.2004  1.1291
12868TIP3    H260020   2.027   2.606  14.453 -1.3578 -0.6914  0.6573
12869TIP3   OH260021   6.570   1.536  17.217  0.6842  0.7164 -0.5121
12869TIP3    H160022   6.627   1.592  17.269 -0.6781  0.3403  1.4195
12869TIP3    H260023   6.486   1.538  17.262 -0.4186  0.0340 -2.4644
12870TIP3   OH260024   1.340   0.201  12.087  0.3724 -0.1342  0.3374
12870TIP3    H160025   1.271   0.219  12.023 -0.7487  0.8329  1.7928
12870TIP3    H260026   1.324   0.111  12.115  0.2986 -0.2394 -0.0356
12871TIP3   OH260027   3.743   3.276   1.964  0.0714 -0.3956  0.2829
12871TIP3    H160028   3.764   3.235   2.048  1.7465  1.2041  0.6798
12871TIP3    H260029   3.816   3.336   1.948 -0.4590 -0.3446 -2.0985
12872TIP3   OH260030   0.568   6.552   5.605  0.4296 -0.2607  0.5740
12872TIP3    H160031   0.640   6.489   5.600  2.2767  1.6684  1.9642
12872TIP3    H260032   0.526   6.547   5.519  2.3231 -1.2880 -0.3292
12873TIP3   OH260033   4.465   4.532  11.407  0.1114 -0.3029 -0.0649
12873TIP3    H160034   4.409   4.480  11.465 -0.4020 -0.7056 -0.9107
12873TIP3    H260035   4.457   4.490  11.322  1.7558 -0.4108 -0.1956
12874TIP3   OH260036   5.920   6.651   1.531  0.2085 -0.0875  0.1674
12874TIP3    H160037   5.906   6.598   1.453  0.4625  0.1415 -0.0383
12874TIP3    H260038   5.834   6.688   1.551 -0.2233 -1.5245  1.0169
12875TIP3   OH260039   2.469   2.411  11.782 -0.5397  0.1481  0.5338
12875TIP3    H160040   2.393   2.466  11.801 -0.5007  0.1479  0.6903
12875TIP3    H260041   2.458   2.385  11.690 -0.1280  1.0889  0.2113
12876TIP3   OH260042   4.865   1.997  11.380 -0.0397 -0.2279  0.3001
12876TIP3    H160043   4.897   2.035  11.298 -1.1874 -2.5753 -1.2929
12876TIP3    H260044   4.850   2.072  11.437  0.0352  1.5198 -1.9059
12877TIP3   OH260045   3.963   4.354  12.918  0.0043  0.6503  0.3313
12877TIP3    H160046   3.989   4.425  12.858 -1.2635 -0.5516 -1.6787
12877TIP3    H260047   4.006   4.276  12.884 -0.0843  0.0819  1.4796
12878TIP3   OH260048   1.654   1.075   2.156 -0.0276 -0.2958 -0.2869
12878TIP3    H160049   1.639   1.106   2.067 -1.3940 -2.0110 -0.6780
12878TIP3    H260050   1.647   0.980   2.150  1.6096 -0.5366  1.3345
12879TIP3   OH260051   1.128   5.586  11.157  0.3562 -0.6471 -0.2025
12879TIP3    H160052   1.088   5.530  11.091 -1.4933  0.1794  0.1782
12879TIP3    H260053   1.074   5.572  11.236  1.8361 -0.7652  0.7996
12880TIP3   OH260054   0.609   0.498   2.029  0.4421 -0.6603 -0.2611
12880TIP3    H160055   0.624   0.572   2.087 -0.0355 -0.4119 -0.4565
12880TIP3    H260056   0.647   0.525   1.945  1.1074 -1.0081 -0.0799
12881TIP3   OH260057   4.778   0.450   1.754 -0.1623  0.0235 -0.2581
12881TIP3    H160058   4.857   0.431   1.703 -0.2940 -0.3417 -0.3264
12881TIP3    H260059   4.751   0.365   1.789 -0.4233  0.1764 -0.0875
12882TIP3   OH260060   2.054   5.978   4.195  0.0624 -0.0123  0.1216
12882TIP3    H160061   2.103   6.055   4.165  1.0207 -0.9435 -0.7157
12882TIP3    H260062   1.964   5.995   4.168 -0.3791  2.2760  2.7158
12883TIP3   OH260063   1.405   3.954   1.180 -0.4118  0.1847 -0.2028
12883TIP3    H160064   1.349   4.031   1.188 -0.3262  0.2360 -0.1002
12883TIP3    H260065   1.469   3.978   1.113 -2.5173 -1.0689 -2.7580
12884TIP3   OH260066   4.269   1.022   2.124  0.1884  0.4746  0.3318
12884TIP3    H160067   4.211   0.948   2.107  1.0842  0.0945 -1.1220
12884TIP3    H260068   4.312   1.001   2.207  1.9560 -1.6119 -1.0665
12885TIP3   OH260069   2.546   4.176   4.578  0.2113  0.2389  0.1760
12885TIP3    H160070   2.579   4.265   4.591 -1.3942  0.5871  2.2147
12885TIP3    H260071   2.603   4.138   4.512  0.7312  2.9008 -0.9623
12886TIP3   OH260072   3.548   4.640  15.774  0.2299  0.3856  0.4392
12886TIP3    H160073   3.602   4.717  15.754  1.6876 -0.2840  1.6615
12886TIP3    H260074   3.590   4.569  15.726  1.1554 -0.3627  2.3071
12887TIP3   OH260075   0.397   5.510  11.169 -0.9113 -0.2292 -0.1860
12887TIP3    H160076   0.422   5.539  11.082 -0.8070  1.6820  0.4675
12887TIP3    H260077   0.391   5.414  11.161  1.3866 -0.2901 -1.6736
12888TIP3   OH260078   5.627   3.295   3.625 -0.8985  0.3967 -0.4164
12888TIP3    H160079   5.617   3.244   3.545 -1.9120 -0.3529  0.1704
12888TIP3    H260080   5.542   3.337   3.639 -1.9430 -2.3528  2.1520
12889TIP3   OH260081   4.985   3.403   5.258 -0.2145  0.0936 -0.0097
12889TIP3    H160082   4.987   3.484   5.309  1.1241 -0.2438  0.5102
12889TIP3    H260083   4.975   3.334   5.323  1.2023 -0.3180 -0.1960
12890TIP3   OH260084   1.339   3.012  16.089 -0.1049  0.6123 -0.4064
12890TIP3    H160085   1.269   2.970  16.139  0.7344 -1.1836 -0.7235
12890TIP3    H260086   1.321   3.106  16.098 -1.2212  0.2514  1.4381
12891TIP3   OH260087   5.999   3.497  13.998  0.0238 -0.1302 -0.2306
12891TIP3    H160088   6.023   3.423  13.943 -0.2597  0.4355 -1.1282
12891TIP3    H260089   5.910   3.479  14.025  0.2718 -0.5629  0.3038
12892TIP3   OH260090   4.162   5.017  17.202  0.6119 -0.0749  0.2835
12892TIP3    H160091   4.142   4.939  17.150  1.6104  0.3795 -0.8231
12892TIP3    H260092   4.167   5.087  17.137 -0.6642  0.9760  1.3245
12893TIP3   OH260093   1.853   3.437  12.514 -0.4222 -0.3945 -0.1718
12893TIP3    H160094   1.908   3.364  12.487  2.5402  1.1896  1.3784
12893TIP3    H260095   1.856   3.498  12.439  0.0240 -0.2682 -0.0522
12894TIP3   OH260096   3.627   5.663  13.431 -0.8943 -0.1156 -0.2397
12894TIP3    H160097   3.532   5.669  13.418 -0.8911 -0.5995 -0.4926
12894TIP3    H260098   3.662   5.645  13.344 -0.6930 -1.3398  0.0794
12895TIP3   OH260099   6.351   3.786  16.416 -0.3527  0.4756  0.5557
12895TIP3    H160100   6.311   3.873  16.422 -0.3137  0.4782  0.7799
12895TIP3    H260101   6.301   3.742  16.346 -1.0920  0.3047  1.1830
12896TIP3   OH260102   3.893   2.969  13.983  0.1037  0.1592  0.2356
12896TIP3    H160103   3.842   2.952  13.904 -0.5657 -0.8187  0.8757
12896TIP3    H260104   3.928   3.058  13.970  0.0464 -0.0066 -1.1734
12897TIP3   OH260105   2.751   6.083   6.582  0.0712 -0.6189 -0.5833
12897TIP3    H160106   2.666   6.079   6.538 -0.3817  2.5817 -0.1189
12897TIP3    H260107   2.783   6.172   6.566  1.7757 -0.6813  2.0732
12898TIP3   OH260108   0.780   2.365  14.517  0.8880  0.3563  0.1676
12898TIP3    H160109   0.754   2.339  14.605  0.8323 -1.0663 -0.2580
12898TIP3    H260110   0.820   2.451  14.528  0.7885  0.2319  1.5625
12899TIP3   OH260111   4.608   3.170   5.712  0.3534 -0.5307  0.1388
12899TIP3    H160112   4.645   3.210   5.791  0.7977  0.2263 -0.4530
12899TIP3    H260113   4.621   3.076   5.726 -1.3098 -0.5551  1.8326
12900TIP3   OH260114   5.662   0.399  16.412 -0.4022 -0.0246  0.1157
12900TIP3    H160115   5.669   0.451  16.492  0.2095 -0.2593  0.2110
12900TIP3    H260116   5.570   0.407  16.387 -0.0745  2.0338 -0.4968
12901TIP3   OH260117   3.543   1.167  17.017 -0.3468  0.2215 -0.2024
12901TIP3    H160118   3.591   1.087  17.037 -0.9976 -0.0456  0.3382
12901TIP3    H260119   3.512   1.156  16.928  0.0490  0.1174 -0.3253
12902TIP3   OH260120   1.088   1.603  16.457  0.3813  0.3071  0.2983
12902TIP3    H160121   1.044   1.518  16.458  0.3902  0.3021  0.2659
12902TIP3    H260122   1.078   1.633  16.366  0.4829  0.2861  0.2818
12903TIP3   OH260123   1.528   5.069   1.722 -0.4149 -0.3224 -0.0658
12903TIP3    H160124   1.600   5.005   1.721 -1.5483 -1.6056 -1.6527
12903TIP3    H260125   1.468   5.037   1.789  0.3221  0.6023  1.0670
12904TIP3   OH260126   5.144   0.566   3.186  0.1595 -0.1072  0.3768
12904TIP3    H160127   5.114   0.608   3.105  0.3018  0.5100  0.6444
12904TIP3    H260128   5.149   0.473   3.164 -0.2962 -0.0026 -0.1760
12905TIP3   OH260129   1.672   0.318   1.908 -1.0687 -0.1575  0.1438
12905TIP3    H160130   1.699   0.408   1.927 -0.0835 -0.3408 -0.3572
12905TIP3    H260131   1.741   0.264   1.947 -1.9610 -0.7296  0.9757
12906TIP3   OH260132   3.917   4.543   5.105  0.2990  0.1437 -0.3152
12906TIP3    H160133   3.898   4.517   5.195 -2.1820  3.2945  0.1538
12906TIP3    H260134   3.963   4.627   5.113 -1.7082  1.4518 -1.9930
12907TIP3   OH260135   4.623   0.141  16.910  0.3697  0.2960 -0.1692
12907TIP3    H160136   4.561   0.191  16.855 -0.4000 -0.9860 -0.4867
12907TIP3    H260137   4.567   0.088  16.967  1.1673 -0.9584 -0.5289
12908TIP3   OH260138   3.169   4.354  14.063  0.3230  0.1271 -0.5505
12908TIP3    H160139   3.100   4.411  14.097  0.8272 -0.6056  1.7530
12908TIP3    H260140   3.171   4.279  14.122  1.9933 -0.6561 -1.5502
12909TIP3   OH260141   5.124   6.580   4.084 -0.1194 -0.1427 -0.6976
12909TIP3    H160142   5.044   6.533   4.057  1.3722 -1.8592 -2.2776
12909TIP3    H260143   5.181   6.511   4.117  0.9365  1.0115 -0.1044
12910TIP3   OH260144   1.228   5.376  12.700 -0.0770 -0.0788 -0.0321
12910TIP3    H160145   1.276   5.294  12.710 -2.1779 -1.5238 -1.5233
12910TIP3    H260146   1.153   5.366  12.758  0.0893  1.1606  0.4107
12911TIP3   OH260147   2.989   1.619  10.497  0.1767  0.3224  0.3742
12911TIP3    H160148   3.003   1.526  10.511 -0.3426  0.0134 -1.0463
12911TIP3    H260149   2.894   1.629  10.491  0.0863  1.3164  2.8715
12912TIP3   OH260150   5.277   2.899   1.142  0.0972  0.1815  0.4370
12912TIP3    H160151   5.334   2.856   1.078  0.5884  0.2378  0.8294
12912TIP3    H260152   5.318   2.984   1.157 -1.5216  1.2975 -1.2450
12913TIP3   OH260153   6.729   5.591  15.703 -0.1633 -0.6982  0.0667
12913TIP3    H160154   6.766   5.503  15.708  2.2915  0.3284  0.4305
12913TIP3    H260155   6.690   5.606  15.789 -0.8761 -1.5341 -0.1000
12914TIP3   OH260156   1.909   3.328   0.940 -0.0757  0.3815 -0.1168
12914TIP3    H160157   1.876   3.376   0.864 -0.1098 -1.1290 -1.0589
12914TIP3    H260158   1.878   3.239   0.928  2.1021 -0.4693  0.3442
12915TIP3   OH260159   3.317   5.269  11.992 -0.4128 -0.2332 -0.1684
12915TIP3    H160160   3.236   5.320  11.989 -0.6498 -0.5980  0.0488
12915TIP3    H260161   3.379   5.326  12.038 -0.9962 -0.5824  1.0581
12916TIP3   OH260162   4.566   6.015   0.617  0.2193  0.2724  0.0272
12916TIP3    H160163   4.658   5.989   0.611 -0.4310 -1.7448 -2.6259
12916TIP3    H260164   4.564   6.105   0.584  1.0721 -0.1953 -1.3456
12917TIP3   OH260165   2.091   2.879  15.861  0.0556 -0.0243 -0.2774
12917TIP3    H160166   2.126   2.930  15.788 -1.4174  0.4247 -0.7004
12917TIP3    H260167   2.113   2.788  15.840  6.0370  0.6316  2.3380
12918TIP3   OH260168   3.969   4.355   2.004 -0.0402  0.5915  0.2372
12918TIP3    H160169   3.973   4.448   1.985  0.3132  1.3325  3.7037
12918TIP3    H260170   3.883   4.328   1.971 -0.6948  2.4294  0.3861
12919TIP3   OH260171   3.471   3.487   4.101 -0.0660 -0.0267 -0.2900
12919TIP3    H160172   3.538   3.424   4.074  0.3167  0.7731 -1.2546
12919TIP3    H260173   3.397   3.470   4.043 -1.3640 -2.0460  1.8959
12920TIP3   OH260174   1.772   0.272   0.076 -1.2367  0.0893  0.3557
12920TIP3    H160175   1.811   0.227   0.001 -0.4297  1.2668  0.0657
12920TIP3    H260176   1.846   0.315   0.119 -1.9559  0.8191  0.8654
12921TIP3   OH260177   1.733   6.158   0.536  0.2995  0.2872  0.0221
12921TIP3    H160178   1.643   6.157   0.503 -0.2765  0.3571  1.5636
12921TIP3    H260179   1.724   6.153   0.631  1.9233  0.5135  0.2012
12922TIP3   OH260180   4.675   2.875   3.606 -0.2640  0.5647  0.1250
12922TIP3    H160181   4.675   2.783   3.578 -1.2518  0.3576  0.7920
12922TIP3    H260182   4.767   2.893   3.626  0.4544  0.6356 -2.9614
12923TIP3   OH260183   1.145   0.504   4.902 -0.9453  0.1760 -0.2646
12923TIP3    H160184   1.050   0.513   4.914 -0.9246  0.5905 -0.4205
12923TIP3    H260185   1.161   0.532   4.812 -0.2690  3.1416  0.7165
12924TIP3   OH260186   2.454   2.099  15.693 -0.2815  0.8187  0.2550
12924TIP3    H160187   2.432   2.125  15.783 -0.0443 -3.0778  1.5312
12924TIP3    H260188   2.548   2.085  15.695 -0.0246  2.3210 -1.0662
12925TIP3   OH260189   4.203   3.417   5.511 -0.7236  0.2136  0.6068
12925TIP3    H160190   4.252   3.347   5.555 -3.0162 -2.2536 -0.5849
12925TIP3    H260191   4.158   3.464   5.581  0.0083 -0.1689  1.3405
12926TIP3   OH260192   2.590   3.182   3.593  0.1264 -0.5005  0.1916
12926TIP3    H160193   2.592   3.224   3.680 -0.9282  0.9439 -0.4518
12926TIP3    H260194   2.663   3.221   3.546 -0.6987  0.4632 -0.3217
12927TIP3   OH260195   1.790   6.296   5.859  0.0806 -0.7744  0.0462
12927TIP3    H160196   1.742   6.343   5.928 -1.4258 -2.6885  0.3521
12927TIP3    H260197   1.751   6.327   5.777  2.7455  2.4760 -0.0958
12928TIP3   OH260198   4.657   4.405   1.670 -0.5369 -0.2269 -0.4407
12928TIP3    H160199   4.626   4.337   1.610  0.1854  0.6870 -1.8778
12928TIP3    H260200   4.734   4.366   1.713 -0.7508 -0.7027 -0.4842
12929TIP3   OH260201   5.797   5.415   2.879  0.0160 -0.0060 -0.4031
12929TIP3    H160202   5.821   5.470   2.805  1.7708  0.2232  0.3161
12929TIP3    H260203   5.720   5.457   2.917  0.9319  1.5659 -0.2668
12930TIP3   OH260204   4.818   4.032   0.061 -0.6735  0.5440  0.1056
12930TIP3    H160205   4.881   4.081   0.114 -0.0992  0.7126 -0.7146
12930TIP3    H260206   4.865   3.952   0.037 -0.9179  0.4833 -0.1689
12931TIP3   OH260207   0.070   5.675   5.885 -0.3495  0.5187 -0.0375
12931TIP3    H160208   0.101   5.760   5.855 -2.0327  0.9236 -0.6975
12931TIP3    H260209   0.049   5.689   5.978  0.2765  0.5565  0.1022
12932TIP3   OH260210   0.779   2.386  11.413 -0.2551 -0.2711 -0.1979
12932TIP3    H160211   0.843   2.314  11.421 -0.6001 -0.5160  0.3261
12932TIP3    H260212   0.740   2.393  11.499  0.0994  0.8584 -0.1220
12933TIP3   OH260213   1.622   2.719  14.169 -0.0365 -0.2587  0.1831
12933TIP3    H160214   1.680   2.793  14.186  0.1973 -0.5196  0.5255
12933TIP3    H260215   1.595   2.730  14.077 -1.2252  1.0999  0.6832
12934TIP3   OH260216   4.933   0.994   2.100  0.4943 -0.0595 -0.0540
12934TIP3    H160217   4.968   0.907   2.119  2.9674  0.8100 -0.3351
12934TIP3    H260218   4.925   1.036   2.185  0.8738  0.0020 -0.0483
12935TIP3   OH260219   3.592   4.239   5.116  0.4840 -0.3645 -0.2360
12935TIP3    H160220   3.680   4.240   5.080  0.5862 -1.5304 -0.0588
12935TIP3    H260221   3.575   4.146   5.135 -0.9222 -0.2058 -0.6310
12936TIP3   OH260222   1.865   3.007  16.955 -0.1158 -0.1516  0.1752
12936TIP3    H160223   1.879   2.922  16.912 -0.3587  0.9865 -2.2151
12936TIP3    H260224   1.775   3.031  16.932 -0.6013  0.0483  2.1589
12937TIP3   OH260225   4.972   3.585   5.458 -0.0579 -0.2455 -0.2131
12937TIP3    H160226   4.982   3.671   5.498  2.0110 -0.1319 -0.9008
12937TIP3    H260227   4.949   3.527   5.530 -0.9017  0.7850  0.3468
12938TIP3   OH260228   5.877   3.452  11.394 -0.0181  0.3300 -0.0661
12938TIP3    H160229   5.972   3.464  11.392  0.0346  0.7824  2.8219
12938TIP3    H260230   5.863   3.380  11.455 -1.5831  1.3164  0.7877
12939TIP3   OH260231   1.264   5.542   4.148  0.3721  0.0286 -0.1420
12939TIP3    H160232   1.184   5.569   4.193  0.3416  0.1139 -0.2481
12939TIP3    H260233   1.328   5.608   4.172 -0.0330  0.8947 -1.4090
12940TIP3   OH260234   1.781   5.025  12.841  0.0059 -0.0322  0.3098
12940TIP3    H160235   1.743   5.012  12.928 -0.1078 -0.7347  0.1587
12940TIP3    H260236   1.867   4.983  12.845 -0.6154 -1.4022 -0.3721
12941TIP3   OH260237   2.261   2.598  11.908 -0.6187  0.6777 -0.3541
12941TIP3    H160238   2.167   2.581  11.900 -0.7388  0.8398  0.6470
12941TIP3    H260239   2.268   2.667  11.975  0.4432 -2.1482  2.5991
12942TIP3   OH260240   4.077   2.016   2.485 -0.3293 -0.4258  0.9497
12942TIP3    H160241   4.034   1.931   2.493  0.0375 -0.8719 -1.4452
12942TIP3    H260242   4.097   2.024   2.392 -3.1083  3.6193  0.5603
12943TIP3   OH260243   0.521   4.466  12.203  0.4617 -0.2787  0.6116
12943TIP3    H160244   0.504   4.377  12.174  0.8012  0.4375 -1.8293
12943TIP3    H260245   0.577   4.504  12.136 -2.7750  2.9717 -0.4220
12944TIP3   OH260246   6.595   2.643  16.432 -0.3254 -0.5291 -0.3657
12944TIP3    H160247   6.637   2.560  16.410  1.1926  0.4566 -1.3157
12944TIP3    H260248   6.544   2.624  16.510  0.4985 -2.2064 -0.2082
12945TIP3   OH260249   3.419   2.871  13.288  0.1814  0.2441  0.1417
12945TIP3    H160250   3.327   2.847  13.280  0.4295 -0.4685 -0.5730
12945TIP3    H260251   3.417   2.966  13.301 -0.7081  0.0758  1.3676
12946TIP3   OH260252   6.643   2.067  17.168 -0.5036 -0.1315  0.2642
12946TIP3    H160253   6.678   1.996  17.113 -1.6882 -0.1520 -0.4846
12946TIP3    H260254   6.720   2.107  17.207  0.3153 -0.5687 -0.8683
12947TIP3   OH260255   1.004   6.621  14.819  0.0663 -0.2197 -0.3375
12947TIP3    H160256   1.014   6.635  14.913  1.7449 -0.4876 -0.4572
12947TIP3    H260257   0.933   6.680  14.793 -0.0105  0.2805  0.9947
12948TIP3   OH260258   3.627   0.057   3.513 -0.1300  0.1294 -0.8266
12948TIP3    H160259   3.713   0.101   3.508 -0.1528  0.3730  0.6406
12948TIP3    H260260   3.592   0.084   3.598 -1.7290  0.1333 -1.4756
12949TIP3   OH260261   3.781   6.173  13.985  0.0958  0.3282  0.4302
12949TIP3    H160262   3.781   6.239  14.055 -0.0797  1.8488 -0.9710
12949TIP3    H260263   3.746   6.219  13.908  2.5941 -0.5646 -1.3154
12950TIP3   OH260264   3.930   5.457  15.416  0.0143 -0.5404  0.4427
12950TIP3    H160265   4.020   5.487  15.426  0.0533 -0.3915 -0.3994
12950TIP3    H260266   3.928   5.373  15.461  0.3692 -0.1683  1.1638
12951TIP3   OH260267   6.327   1.630   2.227  0.2945 -0.2113  0.3561
12951TIP3    H160268   6.338   1.536   2.238  1.4913 -0.2759 -1.1091
12951TIP3    H260269   6.403   1.657   2.175  0.6830  1.7928  1.8884
12952TIP3   OH260270   4.356   5.913  13.078 -0.1117  0.3019 -0.4409
12952TIP3    H160271   4.344   6.008  13.074  0.9448  0.4330 -0.6597
12952TIP3    H260272   4.422   5.900  13.147 -1.0341 -0.3473  0.3285
12953TIP3   OH260273   1.994   2.173  13.194 -0.7342  0.2402 -0.0968
12953TIP3    H160274   2.012   2.093  13.243  0.6695 -0.2874 -1.4315
12953TIP3    H260275   2.067   2.231  13.216 -0.4838  0.2664 -0.9662
12954TIP3   OH260276   5.565   1.707  15.477 -0.0122 -0.1332  0.6212
12954TIP3    H160277   5.521   1.722  15.561 -0.5845 -0.4704  0.3864
12954TIP3    H260278   5.587   1.794  15.445 -2.0488  0.1704 -0.0663
12955TIP3   OH260279   3.884   2.358  14.978  0.0611 -0.3393 -0.0557
12955TIP3    H160280   3.917   2.288  15.034  0.4119  0.6899  1.0460
12955TIP3    H260281   3.872   2.432  15.038  1.9563  1.2589 -1.6266
12956TIP3   OH260282   2.849   4.940   2.231  0.4225  0.4948 -0.3753
12956TIP3    H160283   2.813   4.870   2.176 -0.9026  1.1263 -0.3306
12956TIP3    H260284   2.943   4.923   2.233  0.3525 -0.1247 -1.9956
12957TIP3   OH260285   5.263   1.202   5.490 -0.1035 -0.0179 -0.4361
12957TIP3    H160286   5.338   1.261   5.495 -1.0476  1.2248 -0.6456
12957TIP3    H260287   5.291   1.123   5.537  0.5486  1.2733  1.4009
12958TIP3   OH260288   3.206   4.084  16.381  0.1587 -0.1073 -0.1534
12958TIP3    H160289   3.274   4.122  16.438  0.1461  0.3195 -0.4208
12958TIP3    H260290   3.201   3.993  16.409 -1.2705  0.5738  1.9342
12959TIP3   OH260291   3.039   3.496  16.343 -0.1188 -0.3028 -0.1254
12959TIP3    H160292   3.082   3.561  16.287  0.1347  0.7542  1.2471
12959TIP3    H260293   2.947   3.502  16.319  0.1547 -0.8404 -1.3713
12960TIP3   OH260294   0.551   3.847   1.630 -0.5349  0.5007  0.8040
12960TIP3    H160295   0.540   3.775   1.693  1.9536  1.7240  2.6832
12960TIP3    H260296   0.479   3.907   1.650 -0.3972  0.3551  1.7952
12961TIP3   OH260297   5.233   2.122  12.711  0.2268 -0.6126 -0.6868
12961TIP3    H160298   5.312   2.127  12.657  0.9594 -1.5873  0.2528
12961TIP3    H260299   5.264   2.141  12.800 -0.9329  0.8562 -0.5839
12962TIP3   OH260300   1.466   2.524   2.736  0.5649 -0.5209 -0.6908
12962TIP3    H160301   1.511   2.447   2.770  0.6814 -1.1932 -2.3087
12962TIP3    H260302   1.535   2.573   2.690  0.2662 -0.0272 -0.6127
12963TIP3   OH260303   4.604   0.466  11.378 -0.8286  0.5846  0.3468
12963TIP3    H160304   4.526   0.449  11.431  0.5778  0.1480  2.3364
12963TIP3    H260305   4.637   0.550  11.409  0.2208  0.1469  0.4375
12964TIP3   OH260306   5.049   3.159   2.335  0.0086  0.0396 -0.1243
12964TIP3    H160307   5.093   3.117   2.409  0.9342  2.0463  0.4812
12964TIP3    H260308   5.099   3.131   2.258 -0.6144 -1.5828  0.0328
12965TIP3   OH260309   1.224   1.247  13.070 -0.7676  0.1460  0.4727
12965TIP3    H160310   1.138   1.205  13.068 -0.5239 -0.3276  0.0535
12965TIP3    H260311   1.230   1.284  13.158 -0.2025 -2.3081  1.5000
12966TIP3   OH260312   4.536   6.736   5.780  0.0994 -0.0604 -0.1179
12966TIP3    H160313   4.626   6.738   5.812  0.2910  0.7061 -0.6735
12966TIP3    H260314   4.484   6.715   5.857  0.9597 -3.1132 -0.3082
12967TIP3   OH260315   2.693   4.962  11.136 -0.0647 -0.5255  0.2033
12967TIP3    H160316   2.765   4.940  11.077 -1.9782  2.0374 -3.2879
12967TIP3    H260317   2.727   5.036  11.187 -0.7064  1.8706 -2.6939
12968TIP3   OH260318   2.276   6.722  12.382  0.0851 -0.0037 -0.3554
12968TIP3    H160319   2.185   6.729  12.353 -0.8098 -1.4316  1.9862
12968TIP3    H260320   2.308   6.812  12.380 -0.3735  0.1779 -4.1552
12969TIP3   OH260321   0.173   1.145  17.115  0.3451  0.3476 -0.1739
12969TIP3    H160322   0.141   1.224  17.159  0.0525  0.4218 -0.5137
12969TIP3    H260323   0.204   1.176  17.030  0.6336  0.1583 -0.1410
12970TIP3   OH260324   5.513   5.863  13.967  0.1317  0.2076 -0.4018
12970TIP3    H160325   5.476   5.776  13.949 -1.6816  0.4687  1.7236
12970TIP3    H260326   5.436   5.919  13.978  1.2927  2.0294 -1.4924
12971TIP3   OH260327   2.721   4.753   2.107 -0.1727  0.2475  0.0435
12971TIP3    H160328   2.727   4.714   2.020  0.5654  1.7388 -0.5939
12971TIP3    H260329   2.704   4.679   2.166 -0.1644 -0.8362 -1.2941
12972TIP3   OH260330   4.068   6.247  15.559 -0.1427 -0.3772  0.4994
12972TIP3    H160331   4.129   6.320  15.554 -2.6001  1.6065 -2.2293
12972TIP3    H260332   4.011   6.268  15.634  0.0240 -0.2034  0.5756
12973TIP3   OH260333   6.154   1.116  11.555 -0.0418 -0.2717 -0.2795
12973TIP3    H160334   6.138   1.164  11.474 -1.0826 -1.6185 -0.8860
12973TIP3    H260335   6.149   1.183  11.624  0.6973  0.8521 -1.2913
12974TIP3   OH260336   2.227   0.815   4.889  0.2545 -0.1748 -0.1256
12974TIP3    H160337   2.191   0.845   4.806  0.9951  0.9827 -0.0431
12974TIP3    H260338   2.153   0.776   4.935 -0.4737  0.4642 -0.7436
12975TIP3   OH260339   3.049   0.159  14.488 -0.0638 -0.7642 -0.0081
12975TIP3    H160340   3.071   0.214  14.413  0.9095  0.0387  0.8560
12975TIP3    H260341   3.030   0.221  14.559  2.6461 -1.5030  1.4461
12976TIP3   OH260342   6.254   2.425   2.232  0.2497 -0.0950  0.1908
12976TIP3    H160343   6.287   2.421   2.321  0.8729 -1.5655 -0.0851
12976TIP3    H260344   6.262   2.335   2.199  1.6813  0.7541 -1.9264
12977TIP3   OH260345   1.671   2.794   1.145  0.3103 -0.3572 -0.9755
12977TIP3    H160346   1.699   2.763   1.230  1.6322 -0.5002 -1.4597
12977TIP3    H260347   1.595   2.740   1.124 -0.8730  0.5989  0.6935
12978TIP3   OH260348   0.320   4.144   1.169 -0.2123  0.2272 -0.5760
12978TIP3    H160349   0.313   4.052   1.144 -0.2588  0.5310 -1.7152
12978TIP3    H260350   0.312   4.144   1.264  0.6734 -1.0344 -0.4942
12979TIP3   OH260351   3.555   1.798   0.425  0.1274  0.5695 -0.5045
12979TIP3    H160352   3.497   1.860   0.380 -0.0910  0.6639 -0.0969
12979TIP3    H260353   3.558   1.722   0.367 -0.4289  0.5546 -0.5195
12980TIP3   OH260354   1.049   1.355  11.066 -0.1596  0.1633  0.5329
12980TIP3    H160355   1.118   1.396  11.014  0.2179  0.2122  1.0733
12980TIP3    H260356   1.077   1.263  11.074 -0.5048  0.0219  0.1726
12981TIP3   OH260357   5.164   0.817   2.136 -0.0720  0.4267  0.4526
12981TIP3    H160358   5.232   0.864   2.087  1.4804 -2.7524 -0.5733
12981TIP3    H260359   5.180   0.840   2.228  0.8716  1.6210 -0.0056
12982TIP3   OH260360   1.852   2.670   1.645 -0.3024 -0.1152  0.7172
12982TIP3    H160361   1.871   2.669   1.551 -2.6127 -1.2208  0.2350
12982TIP3    H260362   1.763   2.638   1.652 -0.5694  1.0614  3.2304
12983TIP3   OH260363   4.918   6.458  13.858  0.4099  0.5588  0.2096
12983TIP3    H160364   4.831   6.448  13.898  0.1516  0.8038 -0.2779
12983TIP3    H260365   4.903   6.516  13.784  0.7334 -0.5694 -0.7507
12984TIP3   OH260366   1.757   1.892  11.709 -0.0235  0.0165 -0.5410
12984TIP3    H160367   1.675   1.904  11.758  0.9654 -0.9957  1.3832
12984TIP3    H260368   1.775   1.978  11.671 -1.2420  0.5997  0.1759
12985TIP3   OH260369   1.677   5.790  14.105  0.3777  0.4819  0.1584
12985TIP3    H160370   1.695   5.801  14.198  2.6094  1.4203 -0.3280
12985TIP3    H260371   1.699   5.875  14.067 -1.2423  0.3400 -1.1276
12986TIP3   OH260372   3.201   3.393  12.521 -0.4798 -0.3816 -0.0019
12986TIP3    H160373   3.254   3.325  12.561  0.8778 -1.4478 -3.4292
12986TIP3    H260374   3.237   3.475  12.556  3.2467 -1.0998 -1.8864
12987TIP3   OH260375   2.950   6.639   5.012 -0.8041  0.1278  0.3869
12987TIP3    H160376   2.889   6.566   5.004 -0.6189 -0.1657  1.5841
12987TIP3    H260377   2.960   6.653   5.106 -0.1669  1.1317  0.1878
12988TIP3   OH260378   5.578   1.922  12.185  0.6087 -0.2465  0.1815
12988TIP3    H160379   5.575   1.946  12.093  1.5341 -1.2733 -0.1310
12988TIP3    H260380   5.590   2.005  12.231  2.5910  0.0354 -0.7959
12989TIP3   OH260381   4.489   3.638   5.501 -0.7439 -0.5856  0.1737
12989TIP3    H160382   4.529   3.553   5.519 -1.1488 -0.4803  1.6420
12989TIP3    H260383   4.482   3.641   5.406  1.7950 -1.0281 -0.0801
12990TIP3   OH260384   4.918   4.559  13.187 -0.2795 -0.4213 -0.3931
12990TIP3    H160385   4.967   4.570  13.106  1.1870 -0.5773  0.4486
12990TIP3    H260386   4.903   4.648  13.219 -0.0411 -0.3991 -0.3489
12991TIP3   OH260387   5.611   0.190  14.970  0.1982  0.5285 -0.2686
12991TIP3    H160388   5.560   0.259  15.012 -1.2891 -1.2368  0.9299
12991TIP3    H260389   5.587   0.110  15.018  0.6590 -1.0698 -2.6138
12992TIP3   OH260390   5.368   6.512  15.676  0.3569 -0.5414  0.2751
12992TIP3    H160391   5.444   6.504  15.734  0.2650  1.1817  0.6477
12992TIP3    H260392   5.405   6.524  15.589  0.6128  3.9860  0.9136
12993TIP3   OH260393   5.450   4.027   0.558  0.6140  0.6297 -0.1417
12993TIP3    H160394   5.466   3.993   0.646 -0.1164  0.5260 -0.0474
12993TIP3    H260395   5.514   4.098   0.548  0.2432  1.0922  0.7289
12994TIP3   OH260396   3.826   0.817  16.516 -0.2281  0.1305  0.2986
12994TIP3    H160397   3.792   0.866  16.591  1.0142  3.5446 -1.2567
12994TIP3    H260398   3.794   0.865  16.440  3.0547 -0.0479 -1.2566
12995TIP3   OH260399   2.659   6.011   5.137  0.4603 -0.4835  0.8147
12995TIP3    H160400   2.750   6.040   5.145  0.6345 -1.6583  3.4402
12995TIP3    H260401   2.613   6.051   5.211 -0.5337 -2.1707  1.1405
12996TIP3   OH260402   3.801   5.575   3.193  0.3346 -0.2780  0.2954
12996TIP3    H160403   3.766   5.502   3.142  2.5223 -1.6948  0.7333
12996TIP3    H260404   3.744   5.581   3.270  0.8696 -2.3867  0.8936
12997TIP3   OH260405   1.481   4.513  15.201  0.3118  0.3250  0.1200
12997TIP3    H160406   1.416   4.546  15.263 -0.2861 -0.9703  0.1992
12997TIP3    H260407   1.556   4.489  15.256  1.1202  2.4100 -0.0376
12998TIP3   OH260408   0.618   6.111  11.809  0.6403  0.7693 -0.4813
12998TIP3    H160409   0.645   6.152  11.891 -1.1536 -0.5028  0.7929
12998TIP3    H260410   0.544   6.163  11.779  0.7433  0.7165 -0.8301
12999TIP3   OH260411   0.315   4.074  15.879  0.7410 -0.2165  0.2738
12999TIP3    H160412   0.277   4.063  15.966  1.3066  1.4015  0.7361
12999TIP3    H260413   0.257   4.024  15.821 -1.7792  1.6911  1.0672
13000TIP3   OH260414   5.398   5.929  11.736 -0.4723 -0.1396 -0.0104
13000TIP3    H160415   5.418   5.873  11.661  0.2937  0.8701 -0.5750
13000TIP3    H260416   5.390   6.017  11.700  1.2046  0.5705  1.2502
13001TIP3   OH260417   4.042   2.452  15.451 -0.1210 -0.1234  0.1209
13001TIP3    H160418   3.971   2.468  15.389  1.7284  1.4478 -1.6684
13001TIP3    H260419   4.077   2.539  15.470  1.8284 -0.9398  0.3396
13002TIP3   OH260420   6.753   5.896  12.662 -0.5067  0.6970  0.6000
13002TIP3    H160421   6.818   5.936  12.604  0.6843 -1.5366  0.3334
13002TIP3    H260422   6.691   5.854  12.604  0.4057 -1.1128  0.8905
13003TIP3   OH260423   3.074   4.040   0.929  0.0906  0.2194  0.9116
13003TIP3    H160424   3.058   4.121   0.881  3.3115  0.6704  0.4908
13003TIP3    H260425   3.078   3.972   0.862  0.2588  0.1830  0.9568
13004TIP3   OH260426   3.932   1.526   0.247  0.2908 -0.3922  0.8126
13004TIP3    H160427   4.009   1.571   0.210 -1.7135  2.0489 -0.5265
13004TIP3    H260428   3.923   1.563   0.334 -1.2371  1.7411 -0.2155
13005TIP3   OH260429   3.016   6.341  12.197  0.1491  0.0918 -0.4185
13005TIP3    H160430   3.103   6.323  12.233 -0.6251  0.0592  1.5160
13005TIP3    H260431   2.965   6.372  12.272 -1.2918  0.8743 -1.6929
13006TIP3   OH260432   2.796   2.300  15.852  0.7021 -0.0622 -0.2160
13006TIP3    H160433   2.728   2.281  15.787 -1.6000 -2.9466  2.8924
13006TIP3    H260434   2.822   2.390  15.833 -4.3685  1.3453 -1.2728
13007TIP3   OH260435   6.749   4.558  11.150  0.0315 -0.3321 -0.3563
13007TIP3    H160436   6.755   4.464  11.166 -0.0341 -0.2829 -0.0404
13007TIP3    H260437   6.736   4.596  11.237 -0.7748 -0.1035 -0.5708
13008TIP3   OH260438   4.164   5.334   1.522  0.6606  0.4603  0.1151
13008TIP3    H160439   4.162   5.247   1.482  2.2648 -0.1740  1.3186
13008TIP3    H260440   4.082   5.339   1.571 -0.3898  0.4576 -1.5992
13009TIP3   OH260441   3.390   3.046   0.769  0.3417  0.2721 -0.6380
13009TIP3    H160442   3.471   3.041   0.819  1.0368  1.9947 -1.5495
13009TIP3    H260443   3.405   2.991   0.692  0.5962  0.4716 -0.7312
13010TIP3   OH260444   2.006   6.631  15.906  0.3336  0.4628  0.2222
13010TIP3    H160445   2.086   6.643  15.958  0.2676  0.9723  0.2077
13010TIP3    H260446   1.983   6.539  15.918  2.0603 -0.2383 -1.3711
13011TIP3   OH260447   3.481   0.667   2.177  0.2543  0.2721  0.4194
13011TIP3    H160448   3.433   0.585   2.163  0.1555  0.7271 -2.1964
13011TIP3    H260449   3.435   0.730   2.121  1.2739  1.7359  1.2337
13012TIP3   OH260450   1.201   6.577  12.347  0.1714 -0.1928 -0.1331
13012TIP3    H160451   1.207   6.554  12.254  1.3073 -0.7793  0.0788
13012TIP3    H260452   1.276   6.535  12.387 -1.2277 -1.3203  1.3573
13013TIP3   OH260453   5.326   3.092   5.828 -0.1054  0.3472 -0.4186
13013TIP3    H160454   5.286   3.006   5.832 -0.4876  0.4883 -1.1803
13013TIP3    H260455   5.414   3.076   5.793 -0.9731  0.5226 -2.7492
13014TIP3   OH260456   3.038   0.166   0.302  0.0046  0.3843 -0.0198
13014TIP3    H160457   3.012   0.083   0.262  0.0095 -0.7139  2.1692
13014TIP3    H260458   2.962   0.224   0.289 -0.7303 -0.5505  0.0521
13015TIP3   OH260459   6.452   6.015  15.060 -0.2690 -0.3327 -0.3477
13015TIP3    H160460   6.448   6.103  15.098  0.0933 -1.0120  1.3164
13015TIP3    H260461   6.392   6.018  14.985 -0.6515  1.1732  0.0046
13016TIP3   OH260462   6.548   0.303   3.248 -0.3147  0.1086 -0.3016
13016TIP3    H160463   6.520   0.240   3.181  0.5523 -2.0018  1.2560
13016TIP3    H260464   6.581   0.378   3.198  0.7790 -1.6189 -2.2788
13017TIP3   OH260465   4.452   1.223   5.552 -0.4832 -0.2293 -0.0733
13017TIP3    H160466   4.542   1.231   5.584  0.1921 -1.5283 -1.5584
13017TIP3    H260467   4.462   1.203   5.459 -2.3313  0.3527 -0.4152
13018TIP3   OH260468   4.220   3.995  16.198  0.4447 -0.0203 -0.3371
13018TIP3    H160469   4.243   3.973  16.108  1.3524 -1.6038  0.2578
13018TIP3    H260470   4.281   4.063  16.223  0.4223  0.1731 -0.7976
13019TIP3   OH260471   5.508   6.138  16.700 -0.0687  0.1683  0.1865
13019TIP3    H160472   5.530   6.065  16.643 -0.1996  1.1448 -1.1253
13019TIP3    H260473   5.583   6.197  16.693 -0.8677  1.1263 -0.3684
13020TIP3   OH260474   6.174   6.047  16.659  0.4556 -0.3065  0.4392
13020TIP3    H160475   6.239   6.035  16.728  1.4830 -2.1645 -0.8255
13020TIP3    H260476   6.091   6.027  16.701  0.5992  2.3264  2.1391
13021TIP3   OH260477   5.358   5.281   4.915  0.3272  0.2021  0.1286
13021TIP3    H160478   5.400   5.202   4.881  2.2501  0.4327  1.8405
13021TIP3    H260479   5.328   5.256   5.002 -3.1439  0.0564 -1.0398
13022TIP3   OH260480   3.464   0.277  13.820  0.0500 -0.1129 -0.3254
13022TIP3    H160481   3.409   0.291  13.744  0.3504 -0.1536 -0.5516
13022TIP3    H260482   3.472   0.181  13.826  1.1650 -0.0730 -1.0654
13023TIP3   OH260483   4.287   4.111  16.707 -0.2484 -0.7632 -0.0719
13023TIP3    H160484   4.235   4.181  16.748 -2.0170 -0.7124 -2.2772
13023TIP3    H260485   4.378   4.134  16.727 -0.8495  1.5710  0.1724
13024TIP3   OH260486   0.589   1.765  13.063 -0.0085  0.1987  1.0787
13024TIP3    H160487   0.668   1.771  13.010 -0.5736 -0.3310  0.1575
13024TIP3    H260488   0.582   1.672  13.085 -0.8995  0.0771  0.3227
13025TIP3   OH260489   3.074   5.632   3.286 -0.3656 -0.2354 -0.2142
13025TIP3    H160490   3.110   5.568   3.347  0.3110  0.7971  0.4881
13025TIP3    H260491   2.981   5.635   3.306  0.0856  1.1828  1.7986
13026TIP3   OH260492   1.370   0.369  13.473 -0.3122  0.1385 -0.0743
13026TIP3    H160493   1.295   0.411  13.516 -0.6757  0.7005 -1.2205
13026TIP3    H260494   1.404   0.437  13.414  1.2697 -0.0235  0.6394
13027TIP3   OH260495   4.277   1.878  16.227 -0.1091 -0.0096  0.3863
13027TIP3    H160496   4.226   1.932  16.167 -1.4989 -1.5691  0.1652
13027TIP3    H260497   4.313   1.808  16.173 -0.1370 -0.5745  1.0900
13028TIP3   OH260498   4.516   3.150   6.071  0.0803  0.6617 -0.0608
13028TIP3    H160499   4.587   3.089   6.091  1.6413  1.3009 -3.2273
13028TIP3    H260500   4.549   3.235   6.099 -0.9120  0.5033  1.6711
13029TIP3   OH260501   5.171   0.460   2.322  0.4992 -0.4129  0.3246
13029TIP3    H160502   5.082   0.454   2.288 -0.3994 -1.4888  2.7767
13029TIP3    H260503   5.167   0.527   2.390  1.4333 -0.8316  0.8023
13030TIP3   OH260504   2.513   1.750  16.029  0.3981  0.2571 -0.3012
13030TIP3    H160505   2.574   1.735  15.957 -0.1170  1.5387 -1.0257
13030TIP3    H260506   2.449   1.680  16.021  0.5474  0.1805 -0.8797
13031TIP3   OH260507   1.394   1.768  16.883 -0.0732 -0.0897  0.1959
13031TIP3    H160508   1.469   1.716  16.853 -0.8006 -1.2685  0.3847
13031TIP3    H260509   1.341   1.780  16.804  0.5263  1.1427 -0.0368
13032TIP3   OH260510   6.288   5.536   1.783  0.2129  0.3057  0.8503
13032TIP3    H160511   6.217   5.560   1.724 -0.0052  0.5852  1.2218
13032TIP3    H260512   6.248   5.536   1.870 -0.1758 -2.8845  0.7324
13033TIP3   OH260513   1.045   4.545  14.247  0.3340 -0.2606  0.6404
13033TIP3    H160514   1.091   4.479  14.194  0.4187  0.7224 -0.5198
13033TIP3    H260515   0.963   4.502  14.272  0.7867 -1.1322  0.6635
13034TIP3   OH260516   2.910   2.003  11.679 -0.3384 -0.2181  0.3680
13034TIP3    H160517   2.837   2.039  11.627  0.2725 -0.4165 -0.6521
13034TIP3    H260518   2.887   2.023  11.769 -2.1402 -1.1659  0.1325
13035TIP3   OH260519   1.791   4.610  13.507  0.8112  0.5271 -0.1336
13035TIP3    H160520   1.799   4.700  13.475 -2.2314  1.1199  0.6823
13035TIP3    H260521   1.861   4.602  13.573  0.3301  2.6853  0.6674
13036TIP3   OH260522   0.712   1.910  13.741 -0.1347  0.1244 -0.2929
13036TIP3    H160523   0.712   1.816  13.760 -1.1888  0.4184  1.1719
13036TIP3    H260524   0.715   1.952  13.827 -2.6383  1.4604 -0.8402
13037TIP3   OH260525   3.786   1.123   2.251  0.3850 -0.2974  0.5189
13037TIP3    H160526   3.825   1.210   2.243  0.5576 -0.5136 -1.2351
13037TIP3    H260527   3.855   1.063   2.224 -0.3906 -0.8309 -0.3155
13038TIP3   OH260528   0.998   0.702   4.416 -0.0542  0.2751 -0.4220
13038TIP3    H160529   0.938   0.768   4.452 -1.2098 -0.8630 -0.2198
13038TIP3    H260530   1.037   0.660   4.492 -1.0912 -0.8631 -0.5104
13039TIP3   OH260531   4.187   2.681  12.607 -0.7122 -0.5547  0.0197
13039TIP3    H160532   4.139   2.611  12.562 -0.7747 -0.5731  0.1145
13039TIP3    H260533   4.122   2.749  12.622 -0.1440  0.5114 -2.1367
13040TIP3   OH260534   5.322   3.993   5.610 -0.1788  0.0679  0.1127
13040TIP3    H160535   5.227   3.981   5.622 -0.4400  1.5020 -0.4074
13040TIP3    H260536   5.354   4.018   5.697 -0.2678 -0.4668  0.3005
13041TIP3   OH260537   1.649   3.933   5.894 -0.2118 -0.5028  0.0685
13041TIP3    H160538   1.674   3.873   5.964 -0.0784 -0.1265  0.3432
13041TIP3    H260539   1.714   4.003   5.897  1.6155 -1.9995 -2.3918
13042TIP3   OH260540   4.473   4.443   2.138 -0.0538  0.4311  0.2061
13042TIP3    H160541   4.513   4.375   2.083  0.5752  0.0408  1.1485
13042TIP3    H260542   4.379   4.429   2.128 -0.0578  2.0992 -2.9738
13043TIP3   OH260543   1.679   4.153   2.094  0.7277  0.2551 -0.3945
13043TIP3    H160544   1.640   4.159   2.007  2.2810  1.3049 -1.0464
13043TIP3    H260545   1.657   4.065   2.125 -3.4462  1.3044 -0.0605
13044TIP3   OH260546   1.054   5.043  10.923  0.2357  0.0786 -0.4924
13044TIP3    H160547   0.991   5.114  10.934  0.4582  0.2581 -0.3732
13044TIP3    H260548   1.140   5.084  10.937  0.3908 -0.1262 -0.8317
13045TIP3   OH260549   4.680   1.448   6.211 -0.0691  0.3207  0.1100
13045TIP3    H160550   4.683   1.454   6.115 -1.5889  1.8979  0.1304
13045TIP3    H260551   4.604   1.392   6.229  1.1970 -1.3341  0.3757
13046TIP3   OH260552   0.238   0.325   4.644  0.4077  0.5779  0.6931
13046TIP3    H160553   0.275   0.288   4.564 -0.2837 -2.6752  1.7892
13046TIP3    H260554   0.192   0.252   4.685 -2.2315  3.0263  2.3145
13047TIP3   OH260555   0.424   3.508  12.420 -0.0740  0.6920  0.0330
13047TIP3    H160556   0.360   3.565  12.463  0.9157 -0.2091  2.8732
13047TIP3    H260557   0.417   3.425  12.468  1.8937 -0.0046 -0.8320
13048TIP3   OH260558   3.652   6.497  11.519 -0.0636 -0.5442  0.1951
13048TIP3    H160559   3.734   6.510  11.567 -0.9817 -0.7020  1.8467
13048TIP3    H260560   3.632   6.404  11.532  0.1250 -0.7978 -1.2451
13049TIP3   OH260561   2.163   4.771   5.777  0.3885 -0.5655 -0.4375
13049TIP3    H160562   2.114   4.828   5.837 -1.4957 -1.2574 -1.2556
13049TIP3    H260563   2.223   4.722   5.833  0.7342  0.9093  0.4914
13050TIP3   OH260564   3.611   1.332  12.961  0.1813  0.1266  0.2085
13050TIP3    H160565   3.625   1.287  12.877  0.6694  0.4308  0.1209
13050TIP3    H260566   3.561   1.410  12.937  0.6294  0.3949  0.1529
13051TIP3   OH260567   1.665   1.723  15.029  0.3043  0.2477  0.2714
13051TIP3    H160568   1.677   1.817  15.040  0.1760  0.3507 -0.4183
13051TIP3    H260569   1.716   1.684  15.100  0.4657  0.8348  0.4831
13052TIP3   OH260570   4.702   3.898  12.872 -0.2006  0.6472 -0.5639
13052TIP3    H160571   4.626   3.860  12.828 -0.1998  0.1494 -0.1466
13052TIP3    H260572   4.680   3.895  12.965  1.0369 -1.1637 -0.2903
13053TIP3   OH260573   3.311   6.567   4.649 -0.2163 -0.1135 -0.0830
13053TIP3    H160574   3.377   6.634   4.663  0.6612 -0.9834  0.0197
13053TIP3    H260575   3.239   6.591   4.708  0.1963  0.5773  0.1393
13054TIP3   OH260576   0.543   2.161   5.404  0.3760  0.5670  0.3797
13054TIP3    H160577   0.502   2.227   5.459 -0.9361  1.4420 -1.5729
13054TIP3    H260578   0.636   2.165   5.427  0.1841  2.4565  0.9581
13055TIP3   OH260579   2.747   2.892   5.287  0.1948  0.3908 -0.6670
13055TIP3    H160580   2.725   2.904   5.379  1.5335 -0.8822 -0.1594
13055TIP3    H260581   2.679   2.836   5.252  0.5992 -0.5054 -0.0271
13056TIP3   OH260582   6.086   2.349   0.388 -0.4400 -0.4454  0.0507
13056TIP3    H160583   6.114   2.433   0.422 -0.0259  0.2518 -1.9334
13056TIP3    H260584   6.165   2.310   0.351 -0.8079 -1.3158  0.1591
13057TIP3   OH260585   1.900   4.285  16.415 -0.1528  0.3557 -0.1220
13057TIP3    H160586   1.825   4.264  16.470  0.6972  0.1034  0.9464
13057TIP3    H260587   1.930   4.370  16.445  0.5145  0.0718  0.0345
13058TIP3   OH260588   3.491   3.124   5.871  0.1052  0.1084 -0.5559
13058TIP3    H160589   3.563   3.065   5.846 -0.9158 -1.5672  0.3997
13058TIP3    H260590   3.493   3.126   5.966 -0.9931  0.2226 -0.5285
13059TIP3   OH260591   1.501   0.598   4.708 -0.0793 -0.3866  0.1643
13059TIP3    H160592   1.458   0.543   4.643  0.7356 -1.4123  0.4828
13059TIP3    H260593   1.490   0.687   4.675 -0.9620 -0.7738 -0.6153
13060TIP3   OH260594   1.829   5.975  13.731 -0.4223 -0.1110  0.2487
13060TIP3    H160595   1.802   5.939  13.647  1.0229  3.8070 -2.0186
13060TIP3    H260596   1.790   6.063  13.734  1.9666  0.9570  2.3219
13061TIP3   OH260597   6.186   5.293   4.044  0.0770 -0.4686  0.7809
13061TIP3    H160598   6.101   5.324   4.076  0.1085  0.7953 -0.3214
13061TIP3    H260599   6.184   5.198   4.059 -2.4874 -0.8134 -1.3246
13062TIP3   OH260600   0.813   0.759  12.881  0.0362 -0.6294 -0.0224
13062TIP3    H160601   0.729   0.722  12.910 -0.4715  0.5891  0.1061
13062TIP3    H260602   0.804   0.853  12.897  0.6605 -0.2322 -1.8930
13063TIP3   OH260603   3.261   1.236  14.927  0.5105  0.6021  0.4101
13063TIP3    H160604   3.189   1.261  14.985 -0.1872  0.8141 -0.5492
13063TIP3    H260605   3.270   1.310  14.867  1.6444  0.6558  0.6302
13064TIP3   OH260606   0.217   3.723  16.468 -0.2071  0.4042 -0.0534
13064TIP3    H160607   0.157   3.671  16.414  0.7285 -0.1403 -0.5830
13064TIP3    H260608   0.303   3.710  16.428  0.6152 -0.4810  1.9285
13065TIP3   OH260609   2.876   5.921   4.618 -0.3065 -0.3863 -0.3188
13065TIP3    H160610   2.897   5.872   4.539  0.5740  0.7958 -0.8434
13065TIP3    H260611   2.781   5.934   4.614 -0.2069  0.0607 -1.4238
13066TIP3   OH260612   3.499   6.207  14.203 -0.1894 -0.3565 -0.0390
13066TIP3    H160613   3.511   6.212  14.298  1.1506 -0.7266 -0.1824
13066TIP3    H260614   3.487   6.114  14.185  3.7818 -0.8250 -0.6904
13067TIP3   OH260615   0.623   5.681   1.146 -0.5033 -0.2260 -0.3254
13067TIP3    H160616   0.665   5.595   1.155  0.9081  0.5212  0.4718
13067TIP3    H260617   0.560   5.685   1.218  0.1017 -0.2281  0.2114
13068TIP3   OH260618   1.764   6.763   4.981 -0.4984  0.0584 -0.6198
13068TIP3    H160619   1.738   6.852   5.003 -0.5640  0.1518 -1.0637
13068TIP3    H260620   1.824   6.738   5.051  0.0788  0.7119 -0.8726
13069TIP3   OH260621   0.747   1.324  12.257  0.0462 -0.2764 -0.0540
13069TIP3    H160622   0.702   1.278  12.187 -0.2729  0.8142 -0.5824
13069TIP3    H260623   0.776   1.406  12.217  1.6981 -0.5625  0.5339
13070TIP3   OH260624   4.840   3.439  11.314 -0.1373  0.5018  0.9587
13070TIP3    H160625   4.749   3.414  11.296  0.0159  0.2404  0.5383
13070TIP3    H260626   4.854   3.518  11.261  0.1250  0.0846  0.4011
13071TIP3   OH260627   1.495   4.739  11.403  0.4537  0.2307 -0.4130
13071TIP3    H160628   1.582   4.715  11.436  0.3319 -0.1790 -0.3909
13071TIP3    H260629   1.505   4.742  11.308  0.0317 -1.6607 -0.5321
13072TIP3   OH260630   0.828   4.232  13.411  0.4521 -0.0461 -0.0577
13072TIP3    H160631   0.803   4.284  13.487  1.1703 -0.3128  0.3659
13072TIP3    H260632   0.803   4.286  13.336  1.0710  0.8627  0.3726
13073TIP3   OH260633   1.125   6.127  13.152 -0.3845  0.1907 -0.1471
13073TIP3    H160634   1.127   6.208  13.202  1.9453 -0.4281  0.8216
13073TIP3    H260635   1.105   6.155  13.063  1.2850  1.9673 -0.0100
13074TIP3   OH260636   1.132   4.855  15.421  0.3168  0.4752  0.0738
13074TIP3    H160637   1.089   4.787  15.369  1.2431  0.8351 -1.1955
13074TIP3    H260638   1.072   4.873  15.493 -0.0166 -1.5912  0.3405
13075TIP3   OH260639   5.031   4.083   3.834 -0.4760 -0.0201 -0.4642
13075TIP3    H160640   4.975   4.156   3.809 -1.0337 -1.0652 -2.3569
13075TIP3    H260641   4.989   4.006   3.795  0.7771 -1.1838  0.4413
13076TIP3   OH260642   4.363   2.786   5.294 -0.2560  0.2319 -0.2818
13076TIP3    H160643   4.451   2.819   5.310  0.5094 -1.4580 -0.9016
13076TIP3    H260644   4.355   2.782   5.199 -1.2833  1.0548 -0.2496
13077TIP3   OH260645   0.667   2.726   2.269 -0.7017 -0.0100 -0.4827
13077TIP3    H160646   0.666   2.714   2.364  0.1569  1.8973 -0.1985
13077TIP3    H260647   0.599   2.792   2.253 -0.8655 -0.3521 -1.1863
13078TIP3   OH260648   1.863   3.593   1.905  0.2112  0.1469 -0.4358
13078TIP3    H160649   1.825   3.668   1.858  0.5107 -0.4553 -1.6701
13078TIP3    H260650   1.855   3.520   1.843 -0.8140 -1.0288  1.0531
13079TIP3   OH260651   3.584   4.006  10.847 -0.0060 -0.7569 -0.3811
13079TIP3    H160652   3.509   3.993  10.788 -0.4418  1.0055 -0.2503
13079TIP3    H260653   3.581   3.931  10.906 -1.1836 -1.1449 -0.9104
13080TIP3   OH260654   5.485   2.760   6.003  0.2113 -0.3941 -0.1569
13080TIP3    H160655   5.547   2.751   5.931  0.8134  2.3215 -0.0224
13080TIP3    H260656   5.399   2.768   5.960  0.2199 -1.5981 -0.4306
13081TIP3   OH260657   4.644   0.450   5.158  0.1462 -0.4815 -0.5628
13081TIP3    H160658   4.732   0.413   5.165  0.7262  0.9778  0.0285
13081TIP3    H260659   4.625   0.483   5.246 -0.6502 -0.0220 -0.9064
13082TIP3   OH260660   1.935   5.800  12.200 -0.5498 -0.0100  0.4364
13082TIP3    H160661   2.027   5.823  12.214 -0.8331  0.9928  0.7103
13082TIP3    H260662   1.937   5.713  12.161  0.4439 -0.7507  2.1037
13083TIP3   OH260663   4.897   3.027   5.285  0.4204  0.3581 -0.2677
13083TIP3    H160664   4.872   3.046   5.194 -1.1251 -0.8196 -0.1068
13083TIP3    H260665   4.944   2.944   5.279  0.9441  0.6402 -0.0747
13084TIP3   OH260666   2.369   5.334  16.471 -0.1901  0.3301  0.2970
13084TIP3    H160667   2.368   5.263  16.535 -1.6065  1.2798  1.3687
13084TIP3    H260668   2.318   5.301  16.397 -1.0125  0.2896  0.8723
13085TIP3   OH260669   0.866   6.265   0.479 -0.4679 -0.1250  0.5912
13085TIP3    H160670   0.927   6.335   0.501  0.4350 -0.4328 -0.8925
13085TIP3    H260671   0.914   6.210   0.417 -1.9551 -0.8381  0.0581
13086TIP3   OH260672   2.413   1.202   5.325  0.4708 -0.1558  0.3685
13086TIP3    H160673   2.440   1.189   5.416  0.4893 -1.3615  0.1985
13086TIP3    H260674   2.319   1.219   5.330 -0.1020 -2.9908  0.4348
13087TIP3   OH260675   0.210   1.349  16.436  0.2372  0.4333  0.4398
13087TIP3    H160676   0.209   1.438  16.402  0.2113  0.2075 -0.1501
13087TIP3    H260677   0.262   1.299  16.373  0.3622  0.0555  0.8360
13088TIP3   OH260678   6.691   1.348   4.257 -0.1709 -0.2923  0.6464
13088TIP3    H160679   6.760   1.410   4.233  0.3645 -1.5148 -1.1063
13088TIP3    H260680   6.738   1.274   4.295 -0.5749 -0.7196  0.3302
13089TIP3   OH260681   4.124   1.985   0.856  0.3924 -0.3132  0.5442
13089TIP3    H160682   4.148   2.020   0.941 -1.9149  0.7070  0.8256
13089TIP3    H260683   4.109   1.892   0.871  0.7423 -0.2847  1.0716
13090TIP3   OH260684   2.286   1.971  11.576 -0.2265  0.0672 -0.1204
13090TIP3    H160685   2.264   2.059  11.545 -1.3793 -0.0186  0.3969
13090TIP3    H260686   2.246   1.967  11.663 -0.9480 -1.2820 -0.5077
13091TIP3   OH260687   5.189   4.900  12.104  0.0954 -0.4359 -0.6144
13091TIP3    H160688   5.225   4.912  12.016 -0.1820  0.0803 -0.6621
13091TIP3    H260689   5.101   4.937  12.099  0.0807 -0.3977 -0.1184
13092TIP3   OH260690   1.449   0.615  15.473 -0.1720 -0.0438  0.3558
13092TIP3    H160691   1.381   0.681  15.486  0.7047  0.4778  2.4894
13092TIP3    H260692   1.481   0.629  15.384 -1.2553  1.2093  0.1639
13093TIP3   OH260693   5.022   3.298   4.350 -0.1446  0.4224  0.2253
13093TIP3    H160694   4.999   3.230   4.286 -1.0985  1.5410 -0.6365
13093TIP3    H260695   4.954   3.291   4.418  1.1267 -1.0717  1.3902
13094TIP3   OH260696   6.558   0.911   0.834  0.0632 -0.2301 -0.5531
13094TIP3    H160697   6.564   0.940   0.742 -1.9708 -1.2321 -1.0433
13094TIP3    H260698   6.523   0.822   0.828 -0.2454 -0.2328  1.2073
13095TIP3   OH260699   4.902   4.981   1.005  0.0418 -0.5527 -0.0375
13095TIP3    H160700   4.882   5.054   1.063 -0.7899 -0.4380 -0.4735
13095TIP3    H260701   4.994   4.961   1.024 -0.1235 -0.2937  1.0678
13096TIP3   OH260702   0.525   1.537   5.416 -0.1770 -0.1214  0.1971
13096TIP3    H160703   0.467   1.592   5.468  1.0675  1.5560 -0.1459
13096TIP3    H260704   0.557   1.471   5.477 -0.1988  0.6825  1.0812
13097TIP3   OH260705   5.426   1.245   5.106 -0.1018 -0.1321 -0.6539
13097TIP3    H160706   5.354   1.306   5.094  1.5505  2.0625  0.1501
13097TIP3    H260707   5.473   1.279   5.183  1.7586 -1.4941 -1.1654
13098TIP3   OH260708   2.857   3.627  16.980 -0.7366  0.0095 -0.4712
13098TIP3    H160709   2.817   3.589  16.902 -2.7844  0.2014  0.4714
13098TIP3    H260710   2.914   3.558  17.014 -0.1210 -0.2102 -1.8981
13099TIP3   OH260711   3.682   0.723  13.276  0.4193  0.5535 -0.2835
13099TIP3    H160712   3.691   0.752  13.366  0.0475  1.0590 -0.4127
13099TIP3    H260713   3.590   0.735  13.255  0.7812  1.8137 -1.1977
13100TIP3   OH260714   4.604   4.600  16.205 -0.1795  0.8744 -0.2695
13100TIP3    H160715   4.574   4.603  16.296  1.7792 -1.7143  0.5035
13100TIP3    H260716   4.526   4.579  16.154 -1.0673  1.2788  0.9090
13101TIP3   OH260717   2.477   3.328   1.784 -0.1147 -0.3452  0.2685
13101TIP3    H160718   2.571   3.338   1.795  0.1586 -1.1689 -1.1664
13101TIP3    H260719   2.459   3.236   1.805 -1.1255  0.5410  3.7240
13102TIP3   OH260720   2.559   0.122  12.982  0.0213  0.3436 -0.5754
13102TIP3    H160721   2.554   0.044  13.038 -0.7320  0.8801  0.1328
13102TIP3    H260722   2.640   0.112  12.933 -0.6882 -1.5026 -1.4112
13103TIP3   OH260723   2.372   1.066   4.829 -0.4294  0.0824  0.3182
13103TIP3    H160724   2.360   1.124   4.754  0.0936  0.9081  0.8541
13103TIP3    H260725   2.332   0.983   4.803  2.1049 -0.5218 -1.9084
13104TIP3   OH260726   3.650   5.478   3.407  0.4041 -0.2691  0.0152
13104TIP3    H160727   3.607   5.395   3.385 -0.5138  0.1866  0.0409
13104TIP3    H260728   3.702   5.458   3.484 -0.6055 -0.5896  0.6271
13105TIP3   OH260729   5.384   0.013  12.702  0.3095 -0.5585 -0.3718
13105TIP3    H160730   5.289   0.016  12.710  0.2410 -0.8917 -1.0499
13105TIP3    H260731   5.414  -0.022  12.785 -0.0605  1.0356  0.4629
13106TIP3   OH260732   3.448   3.953   5.518  0.4887  0.0335 -0.0872
13106TIP3    H160733   3.510   4.006   5.468  0.0178  0.9787  0.3172
13106TIP3    H260734   3.431   4.003   5.597 -0.1969 -0.5853  0.1669
13107TIP3   OH260735   3.149   5.792   4.355 -0.3630 -0.2858  1.0662
13107TIP3    H160736   3.113   5.704   4.361  0.3956 -0.7758 -1.2104
13107TIP3    H260737   3.217   5.786   4.287 -0.2889  2.0327  0.9032
13108TIP3   OH260738   0.182   5.272  11.840 -0.1920 -0.0842  0.7406
13108TIP3    H160739   0.123   5.338  11.804  0.4964  0.8101  1.2391
13108TIP3    H260740   0.241   5.250  11.768 -1.3384 -1.2341  0.1344
13109TIP3   OH260741   4.317   1.691  12.007 -0.0772  0.3916 -0.8528
13109TIP3    H160742   4.234   1.646  11.994  0.5022 -0.9999  0.1453
13109TIP3    H260743   4.372   1.660  11.935  0.1189 -0.0043 -0.5343
13110TIP3   OH260744   1.208   1.811  11.509 -0.7639 -0.2973 -0.1689
13110TIP3    H160745   1.252   1.845  11.431  0.6768 -1.5302  0.0909
13110TIP3    H260746   1.174   1.725  11.482 -0.7455 -0.4854  0.4078
13111TIP3   OH260747   1.150   2.778  16.184  0.2829 -0.3131 -0.0108
13111TIP3    H160748   1.162   2.729  16.102 -0.2587 -0.1349 -0.1946
13111TIP3    H260749   1.056   2.774  16.201  0.1139  1.4000 -0.4822
13112TIP3   OH260750   1.084   0.115  13.935 -0.7035  0.3195 -0.2549
13112TIP3    H160751   1.118   0.204  13.935 -0.4111  0.2244  1.3452
13112TIP3    H260752   0.991   0.125  13.955 -0.3361  0.1639  1.5763
13113TIP3   OH260753   4.411   5.866  15.296  0.3440 -0.0279  0.1320
13113TIP3    H160754   4.393   5.913  15.215  1.0128  0.1267  0.0731
13113TIP3    H260755   4.325   5.837  15.326 -0.0413  0.9774  0.0158
13114TIP3   OH260756   5.652   5.558  11.940  0.1108  0.0022 -0.1073
13114TIP3    H160757   5.659   5.558  11.845 -0.9017  1.6045 -0.1984
13114TIP3    H260758   5.713   5.627  11.968 -1.2739  1.0988  0.2510
13115TIP3   OH260759   0.151   3.566   5.640 -0.3471  0.0674 -0.8096
13115TIP3    H160760   0.217   3.617   5.593 -0.0353  0.8744  0.4641
13115TIP3    H260761   0.199   3.494   5.680 -0.1710  0.8056  0.3390
13116TIP3   OH260762   0.956   4.289   6.194 -0.1108 -0.2165  0.7382
13116TIP3    H160763   0.991   4.316   6.279  1.9038 -2.6173  0.7117
13116TIP3    H260764   0.862   4.305   6.201  0.4172  2.4960  2.2933
13117TIP3   OH260765   6.023   0.263  13.314 -0.4522 -0.6522 -0.6782
13117TIP3    H160766   6.095   0.202  13.327 -0.0351 -0.3148 -1.3461
13117TIP3    H260767   6.053   0.322  13.244  0.0194  1.6283  1.3853
13118TIP3   OH260768   4.775   3.349   1.749 -0.0344  1.0815 -0.1171
13118TIP3    H160769   4.722   3.400   1.809 -1.1897 -0.8484  0.5426
13118TIP3    H260770   4.771   3.259   1.783  1.8173  0.5024 -1.3213
13119TIP3   OH260771   0.538   0.743   0.721  0.3753 -0.3940 -0.2154
13119TIP3    H160772   0.474   0.771   0.786 -1.1895  0.5425 -2.1142
13119TIP3    H260773   0.488   0.689   0.659  1.5650 -0.2280 -1.3418
13120TIP3   OH260774   2.965   6.782  12.698  1.1783  0.4959  0.2979
13120TIP3    H160775   2.962   6.747  12.609  3.2559  0.4527  0.2315
13120TIP3    H260776   2.993   6.709  12.753  0.0386  0.5580  0.9902
13121TIP3   OH260777   2.671   3.429  15.450  0.6690 -0.1278  0.1100
13121TIP3    H160778   2.760   3.431  15.486  0.6865 -1.5147  0.1973
13121TIP3    H260779   2.677   3.367  15.377 -0.4243 -0.9201  0.6811
13122TIP3   OH260780   0.590   5.195   1.928 -0.2223  0.2485 -0.3939
13122TIP3    H160781   0.541   5.154   1.999  0.7450 -0.1294  0.0610
13122TIP3    H260782   0.667   5.233   1.971  1.0456 -1.1152 -1.4225
13123TIP3   OH260783   4.040   3.195  12.242 -0.5204  0.3908  0.0467
13123TIP3    H160784   4.011   3.104  12.253  1.7041 -0.2673  0.8455
13123TIP3    H260785   4.117   3.202  12.299 -1.3667  3.1317  0.9135
13124TIP3   OH260786   3.659   4.363  12.666 -0.1239 -0.6717 -0.3499
13124TIP3    H160787   3.666   4.268  12.657  1.2677 -0.7716  1.6350
13124TIP3    H260788   3.578   4.376  12.716 -0.1843 -0.8220 -0.4089
13125TIP3   OH260789   4.787   6.353   2.190 -0.5525 -0.3224 -0.1802
13125TIP3    H160790   4.746   6.436   2.167  0.4295  0.2779  0.2225
13125TIP3    H260791   4.853   6.340   2.122 -1.8460 -1.6352 -1.2357
13126TIP3   OH260792   2.646   0.686  16.662  0.8477 -0.4865 -0.1139
13126TIP3    H160793   2.617   0.599  16.691  0.4018 -0.1159  0.5532
13126TIP3    H260794   2.741   0.682  16.669  0.8398 -0.9742 -0.2274
13127TIP3   OH260795   0.810   5.030  11.760  0.9146  0.0932 -0.0183
13127TIP3    H160796   0.731   5.044  11.812  0.2189  2.2886 -1.6066
13127TIP3    H260797   0.881   5.061  11.816  0.4962 -0.3168  0.7521
13128TIP3   OH260798   3.406   6.096  15.902 -0.5805 -0.5997  0.2019
13128TIP3    H160799   3.372   6.020  15.854 -2.8728  0.9087 -0.6751
13128TIP3    H260800   3.459   6.143  15.838 -1.9049  0.2882 -0.2633
13129TIP3   OH260801   3.227   1.543   4.164  0.5259  0.5527  0.4108
13129TIP3    H160802   3.199   1.470   4.220  1.2742 -0.5802 -0.6558
13129TIP3    H260803   3.146   1.583   4.134  0.0464 -1.4201 -1.0103
13130TIP3   OH260804   6.418   5.368  14.784 -0.1913 -0.0343 -0.0628
13130TIP3    H160805   6.373   5.284  14.777 -0.5288  0.2140 -0.9283
13130TIP3    H260806   6.350   5.431  14.807 -0.2483  0.3033 -1.1468
13131TIP3   OH260807   3.135   4.864   4.931  0.2237  0.1115  0.1739
13131TIP3    H160808   3.090   4.850   5.014 -0.1842  0.0074 -0.0657
13131TIP3    H260809   3.216   4.814   4.939  0.3835  0.4485  0.6764
13132TIP3   OH260810   1.458   5.249   3.921  0.4430 -0.3688 -0.2636
13132TIP3    H160811   1.521   5.181   3.947  1.9575  1.3636  0.7173
13132TIP3    H260812   1.380   5.200   3.896  1.8142 -2.5296 -0.5133
13133TIP3   OH260813   0.703   2.707  16.484 -0.1055 -0.0220  0.0392
13133TIP3    H160814   0.796   2.722  16.498 -0.1188  0.6243 -0.5288
13133TIP3    H260815   0.699   2.641  16.415 -0.0695  0.3384 -0.3098
13134TIP3   OH260816   6.028   2.856  15.630  0.4267 -0.2324  0.2244
13134TIP3    H160817   6.070   2.775  15.660 -0.9206 -1.0970 -0.1782
13134TIP3    H260818   5.939   2.851  15.665 -0.1481  0.3226 -1.1244
13135TIP3   OH260819   6.080   1.772   5.849  0.5172  0.0629 -0.4909
13135TIP3    H160820   5.996   1.764   5.893  0.1032 -0.6748 -1.3865
13135TIP3    H260821   6.096   1.866   5.842  1.0811  0.1991  2.1223
13136TIP3   OH260822   5.420   4.227   1.214  0.0231  0.1077 -0.0402
13136TIP3    H160823   5.326   4.215   1.196  0.3201 -1.3419 -0.6623
13136TIP3    H260824   5.464   4.164   1.157  1.3672  0.5057  0.5350
13137TIP3   OH260825   0.502   3.873   5.882 -0.1662 -0.1448 -0.5156
13137TIP3    H160826   0.492   3.783   5.914  0.2169  0.3098  0.9357
13137TIP3    H260827   0.419   3.916   5.905 -0.1735 -0.0051 -0.7973
13138TIP3   OH260828   5.208   1.882  11.702 -0.1933  0.2557  0.2382
13138TIP3    H160829   5.204   1.795  11.662 -0.9615 -0.9684  2.8762
13138TIP3    H260830   5.269   1.872  11.775  0.1610  2.0989  0.2232
13139TIP3   OH260831   5.523   2.357  12.423  0.4198  0.4781  0.4592
13139TIP3    H160832   5.547   2.449  12.433 -1.0747  0.8534  0.7675
13139TIP3    H260833   5.476   2.336  12.503  1.7051 -0.8801  0.8786
13140TIP3   OH260834   1.690   0.993  11.724  0.1296  0.1019  0.6365
13140TIP3    H160835   1.610   1.031  11.687  0.6533 -0.5429 -1.2206
13140TIP3    H260836   1.751   1.066  11.731  0.5835 -0.0504 -1.3856
13141TIP3   OH260837   1.931   5.666  15.288  0.7951 -0.1750  0.0326
13141TIP3    H160838   1.924   5.739  15.350 -0.5927  0.0606 -0.3844
13141TIP3    H260839   2.023   5.666  15.261  0.5759  2.1432 -0.8131
13142TIP3   OH260840   1.018   5.204   2.362 -0.0045 -0.0046 -0.3644
13142TIP3    H160841   1.113   5.219   2.360 -0.1860  1.2459  0.4532
13142TIP3    H260842   0.980   5.291   2.368 -1.1297 -0.6276  2.1571
13143TIP3   OH260843   5.424   3.363   5.788 -0.0286  0.0986  0.1085
13143TIP3    H160844   5.371   3.283   5.792  0.6268 -0.2862  1.4215
13143TIP3    H260845   5.394   3.415   5.863  1.4512 -0.1194  0.8572
13144TIP3   OH260846   2.946   5.369  12.239  0.6073  0.3835  0.1920
13144TIP3    H160847   2.860   5.401  12.265 -0.1843 -0.3164 -1.4771
13144TIP3    H260848   2.935   5.274  12.232  1.6973  0.2131  0.6373
13145TIP3   OH260849   3.306   1.681  13.656 -0.0825  0.1282  0.1308
13145TIP3    H160850   3.288   1.588  13.669 -0.8055 -0.1316 -2.4105
13145TIP3    H260851   3.379   1.700  13.716  0.5763 -2.2456  0.1314
13146TIP3   OH260852   6.189   6.488  12.650  0.9230  0.6598  0.0787
13146TIP3    H160853   6.280   6.503  12.676  1.4398 -0.8902 -0.8197
13146TIP3    H260854   6.195   6.432  12.573 -0.8569 -1.1785  1.2511
13147TIP3   OH260855   3.390   4.276  14.523  0.6656  0.0128 -0.2019
13147TIP3    H160856   3.358   4.210  14.462 -0.4405  0.5526 -0.2279
13147TIP3    H260857   3.446   4.332  14.469  0.9432 -0.4235 -0.3665
13148TIP3   OH260858   3.556   5.966  13.351  0.4461  0.1971 -0.6193
13148TIP3    H160859   3.606   5.896  13.394 -0.9473 -1.6543 -1.9555
13148TIP3    H260860   3.485   5.985  13.412  0.5722  0.1523 -0.4569
13149TIP3   OH260861   0.735   3.822   4.106  0.1777 -0.0787 -0.0251
13149TIP3    H160862   0.679   3.889   4.068  1.2068  1.1351  0.5358
13149TIP3    H260863   0.675   3.762   4.150 -0.6768  1.3123  0.7481
13150TIP3   OH260864   2.555   6.263  11.990 -0.2429 -0.1339  0.0816
13150TIP3    H160865   2.499   6.328  11.946 -2.2225 -0.5421  1.9027
13150TIP3    H260866   2.495   6.193  12.016  1.1419 -0.6868  1.9074
13151TIP3   OH260867   3.922   4.032   6.417  0.7081 -0.1952  0.1230
13151TIP3    H160868   4.000   3.994   6.378  0.4073 -2.1131  1.3211
13151TIP3    H260869   3.937   4.025   6.511 -0.6557 -0.0722  0.3568
13152TIP3   OH260870   4.817   0.948   0.647  0.7115  0.2922  0.5446
13152TIP3    H160871   4.749   0.910   0.703 -0.2281  2.3364  0.8678
13152TIP3    H260872   4.899   0.931   0.693  0.4768 -2.4724  0.0008
13153TIP3   OH260873   0.026   4.042   6.103 -0.0732  0.4208  0.2247
13153TIP3    H160874  -0.014   3.967   6.059 -1.3008  0.4497  1.2699
13153TIP3    H260875   0.102   4.006   6.148  0.1466  0.0685 -0.4168
13154TIP3   OH260876   2.324   5.738  13.363  0.0086  0.2417  0.9337
13154TIP3    H160877   2.312   5.781  13.278  1.2692  0.6585  0.9607
13154TIP3    H260878   2.247   5.681  13.372 -0.2446  0.3585 -0.3800
13155TIP3   OH260879   6.662   4.902   3.138 -0.2760  0.1336 -0.0899
13155TIP3    H160880   6.593   4.914   3.073 -0.5224 -0.1660  0.1132
13155TIP3    H260881   6.720   4.977   3.126 -0.5102  0.2617 -0.4210
13156TIP3   OH260882   5.385   4.455  13.664  0.2260 -0.4572 -0.1810
13156TIP3    H160883   5.464   4.409  13.690 -0.4892 -0.7471  1.5150
13156TIP3    H260884   5.361   4.415  13.580  1.6935 -0.5489 -0.5786
13157TIP3   OH260885   0.831   6.100   0.104 -0.2197 -0.2132  0.0616
13157TIP3    H160886   0.743   6.066   0.092 -0.5035  0.2977  0.6538
13157TIP3    H260887   0.849   6.150   0.024 -0.0897 -1.1103 -0.4765
13158TIP3   OH260888   1.894   0.913   2.929 -0.2578  0.5511  0.8180
13158TIP3    H160889   1.838   0.855   2.979 -1.5141  0.1252 -1.0327
13158TIP3    H260890   1.943   0.963   2.995 -0.3552 -1.4335  2.4205
13159TIP3   OH260891   3.310   4.705  15.854  0.2990 -0.4683  0.4523
13159TIP3    H160892   3.384   4.649  15.829 -0.1916 -0.6030 -0.7428
13159TIP3    H260893   3.303   4.768  15.783  0.3224  0.6027  1.3961
13160TIP3   OH260894   4.903   4.346  13.859  0.9851 -0.0970 -0.4301
13160TIP3    H160895   4.906   4.306  13.771  1.4138  1.0518 -0.9439
13160TIP3    H260896   4.810   4.345  13.882  0.8939 -0.6195 -0.7961
13161TIP3   OH260897   0.342   3.393  15.399  0.4707  0.0919  0.5866
13161TIP3    H160898   0.286   3.408  15.323  1.8014 -1.9121 -0.8558
13161TIP3    H260899   0.317   3.461  15.461 -0.4827  1.9386 -1.7265
13162TIP3   OH260900   6.649   6.365   1.472 -0.4072 -0.0120 -0.6410
13162TIP3    H160901   6.718   6.385   1.535 -1.2068  0.9468 -0.0519
13162TIP3    H260902   6.696   6.340   1.393  0.6192  0.2846 -0.1419
13163TIP3   OH260903   1.546   5.419   4.796 -0.6788  0.2312 -0.1746
13163TIP3    H160904   1.612   5.473   4.753 -2.1849  0.9031 -1.7142
13163TIP3    H260905   1.513   5.362   4.726 -1.6816 -0.1421  0.5917
13164TIP3   OH260906   3.088   4.934  16.660 -0.0475  0.2647  0.2606
13164TIP3    H160907   3.033   4.987  16.718 -0.4438  0.0379  0.0973
13164TIP3    H260908   3.027   4.900  16.595  0.0515 -1.0931  0.8614
13165TIP3   OH260909   3.196   5.977  16.884  0.0275 -0.2193  0.2454
13165TIP3    H160910   3.253   5.981  16.807  1.0806 -1.0524  0.9668
13165TIP3    H260911   3.210   6.060  16.929  1.6690 -0.9352  1.0983
13166TIP3   OH260912   4.231   3.893   2.486  0.2106  0.1239  0.2685
13166TIP3    H160913   4.228   3.948   2.564 -0.5248 -1.3282  1.2721
13166TIP3    H260914   4.140   3.867   2.471  0.5739 -0.9512 -0.1101
13167TIP3   OH260915   6.053   2.518   0.148 -0.1544 -0.1906  0.0742
13167TIP3    H160916   6.055   2.519   0.052 -0.7527 -1.7115  0.0458
13167TIP3    H260917   6.074   2.428   0.172 -1.0626 -0.0751  1.3577
13168TIP3   OH260918   6.523   5.600  11.425 -0.2072 -0.0526  0.6559
13168TIP3    H160919   6.428   5.615  11.426 -0.0395  1.0714  2.1508
13168TIP3    H260920   6.560   5.681  11.390  0.1118 -1.2216 -1.7763
13169TIP3   OH260921   5.227   2.911  17.162  0.4261 -0.4337  0.3155
13169TIP3    H160922   5.134   2.921  17.181  0.6270  2.8249 -0.1450
13169TIP3    H260923   5.270   2.913  17.247  0.0187 -3.3726  0.6376
13170TIP3   OH260924   1.957   5.568   3.230 -0.6633  0.0234  0.2296
13170TIP3    H160925   1.965   5.478   3.262  0.0171  0.3539  0.9965
13170TIP3    H260926   1.939   5.621   3.308 -3.0905  0.3054 -0.4826
13171TIP3   OH260927   3.318   1.218   2.335 -0.4737  0.5525 -0.2488
13171TIP3    H160928   3.338   1.247   2.246  2.2059  1.4934  0.6157
13171TIP3    H260929   3.402   1.190   2.371 -1.6851 -0.7316  1.6720
13172TIP3   OH260930   6.077   0.418  15.170 -0.3152  0.7350  0.5218
13172TIP3    H160931   6.102   0.327  15.189 -1.4703 -0.0019 -1.3830
13172TIP3    H260932   6.160   0.463  15.154  0.2127 -0.1525  0.7287
13173TIP3   OH260933   4.144   5.192  16.163 -0.2418  0.2704 -0.0547
13173TIP3    H160934   4.092   5.113  16.176 -0.1478  0.1744 -0.2498
13173TIP3    H260935   4.098   5.260  16.212 -0.1108  0.0070  0.4426
13174TIP3   OH260936   4.589   1.655  12.713 -0.0134  0.0017  0.0419
13174TIP3    H160937   4.598   1.583  12.774 -0.9435  1.0218  1.4160
13174TIP3    H260938   4.679   1.681  12.692  0.3395 -2.0559 -1.1144
13175TIP3   OH260939   1.827   1.308  16.468 -0.3181  0.3140 -0.0161
13175TIP3    H160940   1.753   1.363  16.497 -0.9310 -1.4125  1.7648
13175TIP3    H260941   1.879   1.294  16.547  2.0071  1.5797 -1.2733
13176TIP3   OH260942   6.590   2.722   2.114 -0.2022  0.2701  0.4471
13176TIP3    H160943   6.535   2.687   2.044  0.0371  1.7891 -0.5240
13176TIP3    H260944   6.631   2.799   2.075 -0.6525  1.5747  2.5255
13177TIP3   OH260945   0.483   6.155  13.936  0.5935  0.3040 -0.5911
13177TIP3    H160946   0.415   6.190  13.877  1.2104  0.1262 -1.4118
13177TIP3    H260947   0.562   6.205  13.914  0.7772  0.3983  0.2555
13178TIP3   OH260948   1.676   5.889  16.176  0.4282  0.4469 -0.2689
13178TIP3    H160949   1.699   5.928  16.261  1.1254  0.1134 -0.3051
13178TIP3    H260950   1.696   5.796  16.187  0.7406  0.4443 -0.8791
13179TIP3   OH260951   6.642   1.656   1.489  0.4788  0.9428  0.5148
13179TIP3    H160952   6.639   1.727   1.554 -2.9541  0.0785  1.4525
13179TIP3    H260953   6.588   1.688   1.417  0.1082 -0.1175  0.3141
13180TIP3   OH260954   2.108   1.435  11.533  0.0517 -0.5308 -0.0828
13180TIP3    H160955   2.089   1.487  11.455  1.5948 -1.6388 -1.2089
13180TIP3    H260956   2.203   1.441  11.544 -0.0260 -1.2414  1.1031
13181TIP3   OH260957   4.014   0.598   3.142 -0.1472  0.3743  0.4528
13181TIP3    H160958   4.029   0.624   3.233  2.2231  1.6844 -0.2519
13181TIP3    H260959   3.963   0.670   3.105  1.4759  1.3281  0.0014
13182TIP3   OH260960   5.197   1.614  11.639  0.4126  0.6288  0.5116
13182TIP3    H160961   5.121   1.612  11.698 -0.3065 -0.1325 -0.4030
13182TIP3    H260962   5.272   1.598  11.695 -0.3058 -0.4981  1.1781
13183TIP3   OH260963   2.438   1.038   5.747  0.0273  0.2607  0.0853
13183TIP3    H160964   2.404   0.974   5.685 -1.8509 -1.8098  3.0706
13183TIP3    H260965   2.479   0.985   5.816  0.9009  2.3894  1.2565
13184TIP3   OH260966   1.365   6.431  15.796 -0.3214 -0.2372 -0.7431
13184TIP3    H160967   1.415   6.512  15.787  0.3661 -0.2889  2.2227
13184TIP3    H260968   1.430   6.361  15.784 -0.8149 -0.3897 -2.7504
13185TIP3   OH260969   2.001   4.548  15.463  0.5025 -0.4741  0.0015
13185TIP3    H160970   1.953   4.467  15.481 -1.2439  1.0523  2.3880
13185TIP3    H260971   1.940   4.601  15.411  1.1662 -0.1438 -0.4569
13186TIP3   OH260972   5.527   0.390   2.036  0.1281  0.0934  0.0601
13186TIP3    H160973   5.454   0.361   2.090  0.4687  0.4921  0.7507
13186TIP3    H260974   5.515   0.346   1.952 -1.4103  0.8495 -0.1390
13187TIP3   OH260975   5.619   2.650  15.689 -0.2139 -0.2096 -0.2118
13187TIP3    H160976   5.546   2.647  15.751  0.2141  0.0650  0.3179
13187TIP3    H260977   5.585   2.698  15.614 -0.9502 -1.1407 -0.4777
13188TIP3   OH260978   6.614   0.746  12.883 -0.5001  0.2681 -0.3494
13188TIP3    H160979   6.689   0.688  12.894 -1.8166 -1.1842  1.2636
13188TIP3    H260980   6.561   0.704  12.815 -0.4882  0.6069 -0.5667
13189TIP3   OH260981   1.653   0.429   3.881  0.2280  0.2971 -0.4108
13189TIP3    H160982   1.624   0.474   3.802 -0.0382  2.3294  0.8236
13189TIP3    H260983   1.652   0.496   3.949 -0.1198 -1.5415  1.4567
13190TIP3   OH260984   5.085   5.546   2.129  0.0928 -0.2560 -0.1215
13190TIP3    H160985   5.171   5.589   2.127 -0.3203  0.5483 -1.0688
13190TIP3    H260986   5.038   5.584   2.055 -1.0498 -0.7612  0.3383
13191TIP3   OH260987   5.918   3.272   5.129 -0.5982 -0.0577 -0.1952
13191TIP3    H160988   5.838   3.304   5.172 -0.8989  1.3606 -1.7459
13191TIP3    H260989   5.947   3.199   5.184 -2.6679 -0.2561  0.6964
13192TIP3   OH260990   6.066   0.896   2.159  0.2568 -0.7237  0.1833
13192TIP3    H160991   6.070   0.990   2.176  0.7250 -0.9112  1.1756
13192TIP3    H260992   5.987   0.885   2.105 -0.4132  0.1088  0.9633
13193TIP3   OH260993   6.693   4.104  13.890 -0.6395  0.3958 -0.2442
13193TIP3    H160994   6.763   4.117  13.826 -1.1700  1.0612 -0.6929
13193TIP3    H260995   6.710   4.017  13.926 -0.6366 -0.2127 -1.6683
13194TIP3   OH260996   1.252   6.707  12.051  0.1063 -0.4278 -0.2194
13194TIP3    H160997   1.254   6.614  12.074 -0.3749  0.3158  3.1774
13194TIP3    H260998   1.158   6.729  12.050  0.2960  0.6303  1.9597
13195TIP3   OH260999   4.488   5.763  11.307 -0.0691 -0.1788 -0.2374
13195TIP3    H161000   4.497   5.831  11.240  2.1374 -0.0917  0.0948
13195TIP3    H261001   4.541   5.690  11.273  0.6159 -0.3420  1.1301
13196TIP3   OH261002   3.637   5.435  11.507  0.8301 -0.7280 -0.3062
13196TIP3    H161003   3.574   5.370  11.535 -0.5587  1.2007  1.1785
13196TIP3    H261004   3.718   5.412  11.553  0.3060 -1.3135  0.3191
13197TIP3   OH261005   1.701   5.586  15.125  0.2953  1.3219 -0.1614
13197TIP3    H161006   1.771   5.625  15.177 -0.9400  0.6067  2.0929
13197TIP3    H261007   1.621   5.625  15.159 -0.7125 -0.7928 -0.0421
13198TIP3   OH261008   4.427   5.021  14.977  0.3529 -0.0219  0.2288
13198TIP3    H161009   4.512   5.044  14.938  0.1634  0.0422 -0.1476
13198TIP3    H261010   4.392   4.954  14.918  0.7542 -1.0424  1.1304
13199TIP3   OH261011   4.095   6.412   1.510 -0.2337 -0.3403  0.1190
13199TIP3    H161012   4.100   6.412   1.414 -1.2999  0.0287  0.0475
13199TIP3    H261013   4.098   6.319   1.534 -0.0638 -0.4410 -0.2835
13200TIP3   OH261014   4.680   0.593   5.404  0.1133 -0.0072  0.0001
13200TIP3    H161015   4.685   0.672   5.350 -2.5614  0.4478  0.3450
13200TIP3    H261016   4.679   0.626   5.494  0.8065 -0.5383  0.2041
13201TIP3   OH261017   4.277   0.712   4.861 -0.0652  0.0777  0.7166
13201TIP3    H161018   4.293   0.752   4.775 -0.5861 -0.8680  0.1694
13201TIP3    H261019   4.183   0.696   4.863  0.0596 -0.6190  1.1519
13202TIP3   OH261020   4.887   0.238  13.356 -0.2451 -0.0373 -0.4143
13202TIP3    H161021   4.820   0.304  13.340 -1.1418 -1.0126 -0.6596
13202TIP3    H261022   4.902   0.197  13.271 -0.9340 -1.3371  0.0847
13203TIP3   OH261023   2.304   0.938  13.680  0.1692 -0.0531 -0.3240
13203TIP3    H161024   2.256   0.858  13.657 -0.8455  0.5469 -0.3306
13203TIP3    H261025   2.340   0.920  13.766  0.7523 -0.8779 -0.7336
13204TIP3   OH261026   0.979   0.021  16.844 -0.0438 -0.7311  0.3776
13204TIP3    H161027   0.895  -0.023  16.858 -0.3744 -0.6886 -1.4304
13204TIP3    H261028   0.957   0.104  16.803  0.6716  0.7104  2.8068
13205TIP3   OH261029   3.537   0.732  10.513  0.4364  0.1239 -0.0145
13205TIP3    H161030   3.588   0.798  10.559  1.1289 -2.3724  2.9699
13205TIP3    H261031   3.446   0.754  10.532  0.6629  0.2687  0.8968
13206TIP3   OH261032   5.085   1.074  12.691 -0.4149  0.1392  0.2809
13206TIP3    H161033   5.149   1.004  12.707 -2.0560 -1.9317 -1.8729
13206TIP3    H261034   5.022   1.065  12.762 -0.9106 -0.9287 -0.2893
13207TIP3   OH261035   5.679   2.900   5.380  0.2331  0.3413 -0.0794
13207TIP3    H161036   5.666   2.832   5.446  0.7385  0.8447  0.5389
13207TIP3    H261037   5.610   2.883   5.315 -0.6856  0.2444  0.9001
13208TIP3   OH261038   2.578   3.131   1.099 -0.0508 -0.0760 -0.2276
13208TIP3    H161039   2.644   3.140   1.030  1.0171 -0.5114  0.7279
13208TIP3    H261040   2.622   3.159   1.179 -1.4134  0.8400  0.2270
13209TIP3   OH261041   4.878   4.605   5.635  0.5903 -0.2856 -0.0942
13209TIP3    H161042   4.935   4.567   5.568 -0.7987  0.1162 -1.5421
13209TIP3    H261043   4.873   4.697   5.612 -0.1353 -0.2038  0.3828
13210TIP3   OH261044   1.587   5.299   1.299 -0.3164 -0.1291 -0.2605
13210TIP3    H161045   1.556   5.257   1.218 -0.9036  1.4685 -0.8948
13210TIP3    H261046   1.525   5.271   1.366  0.5216 -1.9540 -0.2198
13211TIP3   OH261047   0.963   0.616  10.665 -0.0358 -0.6051  0.7756
13211TIP3    H161048   1.022   0.692  10.666  0.3991 -0.8856 -1.5339
13211TIP3    H261049   0.993   0.564  10.591 -1.1700 -2.3895  1.5537
13212TIP3   OH261050   1.999   6.597  13.788 -0.9446 -0.2492 -0.2221
13212TIP3    H161051   2.071   6.558  13.838 -2.1588 -1.1150  0.8879
13212TIP3    H261052   2.042   6.643  13.716  0.8606  0.8188  1.4672
13213TIP3   OH261053   0.297   6.628   0.028 -0.1666  0.3283 -0.4873
13213TIP3    H161054   0.379   6.617   0.075  0.0644  1.9954 -0.4902
13213TIP3    H261055   0.237   6.567   0.070 -0.4738  3.0282  3.1424
13214TIP3   OH261056   2.319   6.453   5.792  0.4123 -0.3943  0.2546
13214TIP3    H161057   2.367   6.536   5.800  1.2147 -0.8819  0.6265
13214TIP3    H261058   2.370   6.403   5.729 -1.7885  0.5692 -2.3869
13215TIP3   OH261059   1.335   3.571  15.296 -0.1489 -0.6853 -0.4357
13215TIP3    H161060   1.268   3.505  15.315 -2.8442  2.0217 -0.0310
13215TIP3    H261061   1.374   3.591  15.381 -1.9184  0.8067  0.0803
13216TIP3   OH261062   6.037   0.934  12.357 -0.0410 -0.6547 -0.4851
13216TIP3    H161063   6.012   0.884  12.279  0.0643 -1.7920  0.1913
13216TIP3    H261064   5.969   0.915  12.421  0.5591 -0.7797  0.1308
13217TIP3   OH261065   3.831   3.013   3.344  0.3996 -0.2598 -0.2615
13217TIP3    H161066   3.803   3.011   3.253 -0.3903  0.4342 -0.0380
13217TIP3    H261067   3.812   2.924   3.376 -0.2509 -0.2111 -0.4998
13218TIP3   OH261068   5.634   5.167  14.225  0.9886  0.3141  0.4443
13218TIP3    H161069   5.711   5.170  14.167 -0.5332  2.4203 -1.5502
13218TIP3    H261070   5.624   5.257  14.255 -2.8314  0.8794 -2.2317
13219TIP3   OH261071   4.358   3.849  11.210  0.6432  0.1863  0.4621
13219TIP3    H161072   4.268   3.861  11.180  0.6644 -0.7700 -0.0029
13219TIP3    H261073   4.411   3.890  11.142  0.5114  1.9878  1.4249
13220TIP3   OH261074   3.987   5.244  16.972  0.4067  0.0621 -0.3390
13220TIP3    H161075   3.898   5.259  17.003  0.4127 -0.4559 -0.0631
13220TIP3    H261076   4.043   5.268  17.046  0.4789  0.0300 -0.3828
13221TIP3   OH261077   5.844   4.472   4.262  0.4911  0.0497  0.6502
13221TIP3    H161078   5.781   4.455   4.193  0.4314  2.1057  0.1622
13221TIP3    H261079   5.791   4.485   4.341  0.3772  0.6062  0.4816
13222TIP3   OH261080   5.463   5.807  15.539  0.3904  0.8300  0.1274
13222TIP3    H161081   5.530   5.807  15.470 -0.3364 -0.9890 -0.6051
13222TIP3    H261082   5.380   5.820  15.492 -0.0825 -0.1213  0.6843
13223TIP3   OH261083   2.951   4.789  17.187  0.0502  0.0407  0.7675
13223TIP3    H161084   2.981   4.722  17.248 -1.2472  0.5207  1.9773
13223TIP3    H261085   2.857   4.797  17.205 -0.2481  0.5396 -0.9637
13224TIP3   OH261086   2.923   5.691  13.482 -0.3235 -0.0828  0.2797
13224TIP3    H161087   2.906   5.598  13.497  1.0794 -0.6195 -1.2809
13224TIP3    H261088   3.012   5.705  13.515  0.8629 -0.1494 -2.7814
13225TIP3   OH261089   1.184   5.451  16.887 -0.2549  0.4425 -0.3254
13225TIP3    H161090   1.199   5.513  16.816 -0.6714  0.3608 -0.4836
13225TIP3    H261091   1.147   5.503  16.958 -2.3692  0.0510 -1.1103
13226TIP3   OH261092   6.380   0.087  14.265 -0.1187 -0.3703 -0.0924
13226TIP3    H161093   6.404   0.154  14.202  1.4298  0.6830  1.5603
13226TIP3    H261094   6.291   0.110  14.294  0.8646  1.7344  1.3807
13227TIP3   OH261095   1.778   4.489   5.639 -0.1677 -0.5536  0.0421
13227TIP3    H161096   1.758   4.440   5.719  0.4120 -2.1017 -0.7437
13227TIP3    H261097   1.693   4.504   5.597 -0.4270 -0.1341  0.7096
13228TIP3   OH261098   1.048   2.069   2.204  0.1601 -0.0371  0.4558
13228TIP3    H161099   1.142   2.078   2.221 -0.1388 -0.4563  2.4130
13228TIP3    H261100   1.006   2.132   2.263 -0.9296 -1.8085  1.6092
13229TIP3   OH261101   4.757   3.160  16.466 -0.2759  0.5855 -0.1537
13229TIP3    H161102   4.717   3.157  16.380  0.4786  0.2982 -0.5009
13229TIP3    H261103   4.685   3.144  16.527 -0.8327  0.9046 -0.7178
13230TIP3   OH261104   6.390   1.878   0.639 -0.0374  0.1031 -0.1606
13230TIP3    H161105   6.337   1.931   0.579 -0.7836 -0.6466 -0.1834
13230TIP3    H261106   6.330   1.856   0.711  1.4624  2.9462  2.1031
13231TIP3   OH261107   4.968   1.874   0.382 -0.0313  0.2803 -0.6189
13231TIP3    H161108   4.923   1.790   0.387  0.4193  0.0786  0.1857
13231TIP3    H261109   4.912   1.934   0.432  0.8474 -0.0974  0.8639
13232TIP3   OH261110   3.089   4.051  12.928 -0.1118 -0.3418 -0.2032
13232TIP3    H161111   3.088   4.142  12.958 -0.1595 -0.6461  0.7056
13232TIP3    H261112   3.150   4.052  12.853  0.4590  0.2909  0.2565
13233TIP3   OH261113   4.097   0.857  15.772 -0.9974  0.0166  0.6316
13233TIP3    H161114   4.181   0.836  15.812  0.2321  0.5027 -1.6067
13233TIP3    H261115   4.034   0.849  15.843  1.0253  0.3235  2.5183
13234TIP3   OH261116   4.132   6.277   0.562  0.3114  0.0417 -0.5027
13234TIP3    H161117   4.213   6.227   0.572  1.1485  1.4979  0.2074
13234TIP3    H261118   4.068   6.213   0.531  1.0725 -1.7117  1.3602
13235TIP3   OH261119   1.754   5.190   6.300  0.0109 -0.6147  0.7717
13235TIP3    H161120   1.709   5.130   6.360 -0.7554  1.4096  2.2854
13235TIP3    H261121   1.846   5.187   6.328 -0.6948  2.0524  3.6598
13236TIP3   OH261122   4.583   5.951  12.549 -0.7679  0.7119  0.0679
13236TIP3    H161123   4.634   5.993  12.480 -1.5452 -0.4939 -1.2746
13236TIP3    H261124   4.511   5.909  12.503 -2.2241  1.2324  1.7780
13237TIP3   OH261125   0.692   4.617   3.137 -0.0637 -0.2452  0.5696
13237TIP3    H161126   0.778   4.622   3.096  0.4893 -2.7784  1.3087
13237TIP3    H261127   0.643   4.556   3.082 -0.8091 -0.1396  1.1159
13238TIP3   OH261128   6.068   0.935  15.287 -0.8522  0.7610  0.2843
13238TIP3    H161129   6.134   1.002  15.306 -0.4145 -0.0341  1.6753
13238TIP3    H261130   6.010   0.976  15.223  0.7431  1.6316 -0.6304
13239TIP3   OH261131   2.469   2.087  11.769 -0.5724 -0.5707 -0.7043
13239TIP3    H161132   2.378   2.116  11.770 -0.8568 -1.4758 -0.2265
13239TIP3    H261133   2.469   2.006  11.819  0.8078  0.3416  0.8001
13240TIP3   OH261134   4.872   6.739   2.238 -0.6168  0.0722  0.5203
13240TIP3    H161135   4.839   6.829   2.228 -0.0812  0.1752 -0.3987
13240TIP3    H261136   4.802   6.685   2.201  0.9221  0.3958 -3.1671
13241TIP3   OH261137   6.757   1.416   3.528  0.3676 -0.4006 -0.5359
13241TIP3    H161138   6.685   1.383   3.581 -0.9084 -1.0761 -2.6241
13241TIP3    H261139   6.819   1.343   3.524  0.6110 -0.2391  0.2700
13242TIP3   OH261140   1.690   4.237   1.112  0.4899  0.4698 -0.0597
13242TIP3    H161141   1.765   4.182   1.088  0.4599  0.1684  0.5289
13242TIP3    H261142   1.614   4.179   1.105  0.5646  0.1915  1.4441
13243TIP3   OH261143   0.835   5.189   2.598 -0.3167 -0.2563  0.3599
13243TIP3    H161144   0.819   5.115   2.656 -0.3872 -0.2312  0.3737
13243TIP3    H261145   0.886   5.153   2.526  0.7183 -0.0690  0.9780
13244TIP3   OH261146   2.877   2.471  12.899  0.3583  0.3524  0.0099
13244TIP3    H161147   2.914   2.412  12.833 -1.8351  0.2771 -1.2277
13244TIP3    H261148   2.861   2.552  12.851  0.0915  0.7649  0.8042
13245TIP3   OH261149   3.131   1.741   1.713 -0.0033 -0.4056 -0.8894
13245TIP3    H161150   3.210   1.700   1.676 -0.0820 -1.6416  0.2695
13245TIP3    H261151   3.151   1.834   1.716  1.4993 -0.7385 -0.4101
13246TIP3   OH261152   6.471   2.562  11.911  0.3327  0.1412 -0.0889
13246TIP3    H161153   6.488   2.592  11.822  0.5596 -1.2024 -0.5096
13246TIP3    H261154   6.552   2.521  11.939  0.4014  0.9167  0.9062
13247TIP3   OH261155   4.403   4.972  13.152 -0.0933 -0.0644 -0.3110
13247TIP3    H161156   4.389   5.017  13.068  1.1603 -0.9916 -1.0280
13247TIP3    H261157   4.320   4.983  13.198  0.0418  2.6733 -0.6044
13248TIP3   OH261158   0.430   5.230  17.013 -0.1142  0.3926 -0.1635
13248TIP3    H161159   0.369   5.290  17.056  0.6524  1.4171 -0.4787
13248TIP3    H261160   0.390   5.143  17.023 -0.2292  0.6860  2.0653
13249TIP3   OH261161   4.298   5.566   4.089  0.1736 -0.0280 -0.2269
13249TIP3    H161162   4.300   5.516   4.170  0.2478 -0.6022 -0.5792
13249TIP3    H261163   4.207   5.597   4.082  0.3611  0.7103  0.4813
13250TIP3   OH261164   1.941   2.264   2.942  0.1892  0.8534  0.5948
13250TIP3    H161165   1.962   2.331   3.007 -0.9373  0.9013  0.9093
13250TIP3    H261166   1.931   2.313   2.860 -1.8805  1.2519  1.0577
13251TIP3   OH261167   2.589   3.834   4.348 -0.5735 -0.0761  0.2004
13251TIP3    H161168   2.563   3.832   4.256  0.1950 -3.3190  0.0114
13251TIP3    H261169   2.612   3.926   4.363 -0.8820  0.5658 -2.7693
13252TIP3   OH261170   5.543   6.283  14.983  0.1862  0.4684 -0.1437
13252TIP3    H161171   5.453   6.293  15.016 -0.2068  2.3005 -1.6223
13252TIP3    H261172   5.584   6.368  15.000  1.0166  0.3023 -1.2583
13253TIP3   OH261173   5.224   0.065  15.945  0.8115  0.1674 -0.2781
13253TIP3    H161174   5.134   0.035  15.933  0.5897  0.2267  1.1722
13253TIP3    H261175   5.222   0.117  16.025  2.0761  0.4212 -0.3974
13254TIP3   OH261176   5.224   0.697   4.718  0.0835  0.1712 -0.5120
13254TIP3    H161177   5.276   0.773   4.692 -0.1964  0.9882  1.2188
13254TIP3    H261178   5.168   0.730   4.789  0.3249 -1.7854  0.6153
13255TIP3   OH261179   2.144   1.921   3.949  0.6738  0.7676  0.3089
13255TIP3    H161180   2.193   1.903   4.029 -1.5664  1.0626  1.7941
13255TIP3    H261181   2.173   1.853   3.888  1.0846 -0.5832  1.9673
13256TIP3   OH261182   4.816   4.852   2.839  0.1347  0.1679  0.5506
13256TIP3    H161183   4.807   4.784   2.906  0.2798  1.3840  1.8090
13256TIP3    H261184   4.806   4.805   2.756 -0.4804 -1.2776  1.4323
13257TIP3   OH261185   0.032   5.730  12.880 -0.1010  0.2057 -0.2489
13257TIP3    H161186   0.032   5.790  12.806  0.7774 -0.3982 -0.7576
13257TIP3    H261187   0.120   5.739  12.918  1.4140 -3.4183 -2.5751
13258TIP3   OH261188   4.754   3.870   4.130  0.4167 -0.8763  0.0517
13258TIP3    H161189   4.822   3.844   4.192  0.5091  0.2429  0.4277
13258TIP3    H261190   4.677   3.885   4.184  0.3025 -0.5996 -0.1886
13259TIP3   OH261191   0.580   1.487  15.485  0.4262 -0.0650  0.3143
13259TIP3    H161192   0.629   1.421  15.534 -0.6636  0.4966  2.2019
13259TIP3    H261193   0.504   1.506  15.540 -1.3459 -0.1010 -2.0361
13260TIP3   OH261194   5.661   1.182  11.826 -0.0368 -0.5271 -0.0435
13260TIP3    H161195   5.672   1.258  11.768  1.7536  0.5796  1.6684
13260TIP3    H261196   5.729   1.121  11.797 -0.1214 -0.6027 -0.0826
13261TIP3   OH261197   2.807   6.216  14.249 -0.3816  0.2394  0.1592
13261TIP3    H161198   2.723   6.184  14.283 -0.7735  0.5710 -0.4758
13261TIP3    H261199   2.873   6.175  14.305 -0.9767  0.1500  0.8092
13262TIP3   OH261200   2.343   1.765   3.840 -0.2325  0.3339 -0.0414
13262TIP3    H161201   2.435   1.755   3.863 -0.5956  0.9145  1.7661
13262TIP3    H261202   2.342   1.775   3.745  1.4894 -0.4978 -0.1496
13263TIP3   OH261203   2.384   5.104  16.690 -0.0705  0.0398  0.3630
13263TIP3    H161204   2.400   5.112  16.784  0.5282  1.2712  0.1774
13263TIP3    H261205   2.445   5.037  16.660  0.3074  0.2248  0.7244
13264TIP3   OH261206   3.572   6.753   5.704 -0.1976  0.1030  0.5864
13264TIP3    H161207   3.547   6.722   5.616 -1.0422 -0.1030  0.8949
13264TIP3    H261208   3.615   6.837   5.688  1.8726 -1.0739 -0.2354
13265TIP3   OH261209   5.576   6.109  13.170 -0.3015  0.1400  0.2901
13265TIP3    H161210   5.487   6.141  13.182  0.2819  1.6896  0.6287
13265TIP3    H261211   5.594   6.119  13.077 -1.1729 -2.0533 -0.1262
13266TIP3   OH261212   0.519   3.827   4.316  0.5550 -0.2278 -0.0141
13266TIP3    H161213   0.463   3.832   4.393 -0.3194 -1.1533 -0.5696
13266TIP3    H261214   0.487   3.897   4.258  1.1271  0.3822  0.4053
13267TIP3   OH261215   6.476   4.989   0.494  0.0428  0.1494 -0.0311
13267TIP3    H161216   6.513   4.990   0.582 -0.5304  1.7417  0.2095
13267TIP3    H261217   6.386   4.958   0.506  0.9984 -2.9258 -0.5109
13268TIP3   OH261218   5.250   3.002  12.878  0.7840 -0.7802 -0.2298
13268TIP3    H161219   5.311   3.045  12.937 -0.0569 -0.0596  0.1344
13268TIP3    H261220   5.305   2.956  12.815  1.6894 -0.7589  0.5333
13269TIP3   OH261221   4.819   5.903   0.569  0.7456 -0.4341 -0.0299
13269TIP3    H161222   4.797   5.822   0.524  0.3570 -1.1104  1.3553
13269TIP3    H261223   4.913   5.896   0.587  0.7637 -0.4595 -0.1330
13270TIP3   OH261224   3.964   4.690  15.444  0.4999 -0.2532  0.0380
13270TIP3    H161225   4.035   4.668  15.504 -0.2906 -0.5956  0.8628
13270TIP3    H261226   3.970   4.624  15.374 -0.1128 -1.3895  1.0420
13271TIP3   OH261227   0.365   3.325   3.570  0.2554 -0.0159  0.1973
13271TIP3    H161228   0.397   3.367   3.650  0.9009 -0.7579  0.3329
13271TIP3    H261229   0.294   3.268   3.599 -0.1465  0.4369  0.1094
13272TIP3   OH261230   5.544   0.216  13.540 -0.0701 -0.3831  0.2539
13272TIP3    H161231   5.591   0.152  13.592 -0.2757 -0.3323  0.5080
13272TIP3    H261232   5.611   0.276  13.508  0.1072 -0.6571  0.1103
13273TIP3   OH261233   1.071   6.422  16.367  0.5957 -0.0330  0.1857
13273TIP3    H161234   1.002   6.448  16.305  0.7481 -0.5535 -0.2081
13273TIP3    H261235   1.095   6.504  16.411  0.1357  0.2552 -0.0871
13274TIP3   OH261236   1.353   0.683   1.145 -0.3302 -0.1584 -0.0142
13274TIP3    H161237   1.266   0.675   1.107 -0.1681  0.7612 -0.5863
13274TIP3    H261238   1.410   0.706   1.072 -0.3180  3.4385  1.0139
13275TIP3   OH261239   0.459   3.284  16.416  0.7589 -0.2166 -0.7330
13275TIP3    H161240   0.454   3.263  16.322 -0.4729 -0.0095 -0.7232
13275TIP3    H261241   0.538   3.240  16.446 -1.0983 -3.9261 -0.9619
13276TIP3   OH261242   3.265   2.638  11.774  0.1668  0.0553  0.3852
13276TIP3    H161243   3.205   2.619  11.701  0.7524  0.9795 -0.3452
13276TIP3    H261244   3.349   2.657  11.732  0.9213 -1.0253  1.3989
13277TIP3   OH261245   4.540   0.538  16.381 -0.0927  0.0323  0.1183
13277TIP3    H161246   4.598   0.492  16.441  0.1491  1.7381  1.2263
13277TIP3    H261247   4.509   0.614  16.430 -2.4424 -0.2673 -0.8095
13278TIP3   OH261248   2.526   5.101   4.076  0.5139  0.2100 -0.2578
13278TIP3    H161249   2.556   5.190   4.057  0.5582  0.3491  0.4698
13278TIP3    H261250   2.434   5.101   4.049 -0.7152  1.7419  3.6909
13279TIP3   OH261251   0.989   0.431   4.026  0.5325 -0.1854 -0.1253
13279TIP3    H161252   1.061   0.489   4.001 -0.0602  0.1175 -1.1790
13279TIP3    H261253   1.009   0.405   4.116  2.5611 -1.0479 -0.8067
13280TIP3   OH261254   6.445   5.700   5.253  0.5360  0.5076 -0.3253
13280TIP3    H161255   6.359   5.662   5.239  0.2934  1.5268 -1.6764
13280TIP3    H261256   6.436   5.751   5.333  0.1329 -0.1143  0.0268
13281TIP3   OH261257   1.399   5.729  15.043 -0.1731  0.1091  0.4930
13281TIP3    H161258   1.419   5.640  15.012  0.7842  0.9403 -1.3270
13281TIP3    H261259   1.335   5.715  15.113 -0.8308 -1.9690 -0.4512
13282TIP3   OH261260   2.362   5.951  11.239 -0.0108  0.4930  0.2103
13282TIP3    H161261   2.447   5.995  11.232  0.3952 -0.4356 -0.8375
13282TIP3    H261262   2.379   5.872  11.289 -0.7946  1.6087  2.3179
13283TIP3   OH261263   1.025   4.412  15.345  0.5078 -0.1943  0.5355
13283TIP3    H161264   1.030   4.478  15.276  2.5713 -1.1679 -0.2836
13283TIP3    H261265   1.051   4.458  15.425 -0.3551  0.5342  0.4098
13284TIP3   OH261266   5.220   6.772   2.620  0.2896 -0.0928 -0.7404
13284TIP3    H161267   5.164   6.727   2.558  1.0681  0.3025 -1.7481
13284TIP3    H261268   5.217   6.864   2.594 -0.7913  0.3726  0.9129
13285TIP3   OH261269   1.775   0.865   5.104 -0.0531  0.2059 -0.0505
13285TIP3    H161270   1.848   0.815   5.068  0.2317 -0.2216  1.1094
13285TIP3    H261271   1.771   0.944   5.050  1.3287  0.2831 -0.0544
13286TIP3   OH261272   2.863   0.497   3.297 -0.3957 -0.8081 -0.1632
13286TIP3    H161273   2.812   0.483   3.218 -0.3223 -1.4482 -0.0986
13286TIP3    H261274   2.925   0.424   3.299  0.9192  0.2792 -0.5524
13287TIP3   OH261275   4.322   0.462  11.274  0.0859 -0.0665 -0.3054
13287TIP3    H161276   4.273   0.452  11.193  1.1454 -1.7239 -0.7576
13287TIP3    H261277   4.404   0.505  11.247  0.1683 -0.0380 -0.0126
13288TIP3   OH261278   4.232   0.453   4.046  0.1938  0.2613  0.0824
13288TIP3    H161279   4.181   0.391   4.098  0.2385 -0.0928 -0.2938
13288TIP3    H261280   4.264   0.402   3.972  0.4632  0.6675 -0.0837
13289TIP3   OH261281   3.783   0.866  15.569 -0.1903  0.0333  1.0519
13289TIP3    H161282   3.721   0.854  15.497  2.1588  2.6725 -1.5381
13289TIP3    H261283   3.774   0.959  15.592  1.6338  0.0676  1.7061
13290TIP3   OH261284   0.952   6.445   4.277  0.1032  0.4360 -0.2629
13290TIP3    H161285   0.957   6.489   4.362 -3.0896 -0.2648  0.3469
13290TIP3    H261286   0.956   6.516   4.213 -0.8624  1.2615  0.5853
13291TIP3   OH261287   2.139   3.910  11.665  0.4358  0.1792  0.5392
13291TIP3    H161288   2.179   3.907  11.578  0.6820  1.8094  0.5632
13291TIP3    H261289   2.210   3.938  11.723  0.2605 -0.8437  1.2648
13292TIP3   OH261290   5.829   6.520  13.966 -0.6714  0.1015  0.4980
13292TIP3    H161291   5.870   6.446  14.010 -0.8126  0.4172  1.1760
13292TIP3    H261292   5.742   6.488  13.942 -0.2222 -0.4003 -0.4723
13293TIP3   OH261293   0.030   4.075   2.531  0.4219 -0.2546 -0.1965
13293TIP3    H161294  -0.043   4.024   2.496  1.0418 -1.3849  0.1641
13293TIP3    H261295  -0.012   4.146   2.579 -0.4410  0.1887 -1.5721
13294TIP3   OH261296   2.268   3.375  14.232  0.4199  0.1280  0.5141
13294TIP3    H161297   2.306   3.289  14.251 -1.4958 -1.0436 -0.7437
13294TIP3    H261298   2.188   3.378  14.285  0.0048  0.7379 -0.1289
13295TIP3   OH261299   3.105   5.120  11.296  0.1272  0.3792  0.2687
13295TIP3    H161300   3.166   5.178  11.251  1.4787  0.3533  1.9978
13295TIP3    H261301   3.054   5.079  11.226 -0.7573  3.4893 -1.0225
13296TIP3   OH261302   6.021   3.727   0.774 -0.0426  0.4398 -0.2982
13296TIP3    H161303   6.061   3.763   0.695 -0.6725  0.5003 -0.5981
13296TIP3    H261304   6.087   3.737   0.842  0.6504  0.0519 -0.9033
13297TIP3   OH261305   5.873   3.111  15.782  0.4713 -0.2124 -0.0957
13297TIP3    H161306   5.880   3.202  15.811  1.2254  0.2409 -1.6629
13297TIP3    H261307   5.957   3.072  15.806 -1.0634 -1.4822  3.7185
13298TIP3   OH261308   3.700   5.020  15.294 -0.2951  0.3507 -0.4949
13298TIP3    H161309   3.661   5.081  15.357 -0.5363 -1.6453  1.3252
13298TIP3    H261310   3.786   5.000  15.331 -1.2096 -2.3604  0.2335
13299TIP3   OH261311   3.207   1.310   3.082  0.0745 -0.0239  0.0958
13299TIP3    H161312   3.115   1.324   3.106  0.4002  1.4770  0.5618
13299TIP3    H261313   3.240   1.247   3.146 -0.7484 -0.9125 -0.3544
13300TIP3   OH261314   5.890   0.821   0.811  0.0162 -0.3022  0.2936
13300TIP3    H161315   5.820   0.758   0.831 -0.8034  0.8721  1.1822
13300TIP3    H261316   5.870   0.851   0.723  2.0941 -3.4537 -1.3651
13301TIP3   OH261317   3.548   1.807   2.223  0.0604 -0.2604  0.6175
13301TIP3    H161318   3.520   1.725   2.265 -2.5998  0.5829  0.5519
13301TIP3    H261319   3.529   1.795   2.130  1.4609 -0.2766  0.3190
13302TIP3   OH261320   6.443   0.101   4.800 -0.2004  0.2991 -0.0803
13302TIP3    H161321   6.413   0.134   4.885 -0.6890  1.1372 -0.5799
13302TIP3    H261322   6.370   0.118   4.740  1.5832  3.2781 -1.5353
13303TIP3   OH261323   0.914   2.110  17.205  0.2036 -0.1706 -0.0781
13303TIP3    H161324   0.861   2.185  17.178  0.1531 -0.2530 -0.2042
13303TIP3    H261325   0.922   2.056  17.127  1.4228  0.4098 -0.3624
13304TIP3   OH261326   3.626   2.947  10.884 -0.3295 -0.9653 -0.5268
13304TIP3    H161327   3.555   2.968  10.823 -0.5462  0.6779  0.2682
13304TIP3    H261328   3.705   2.975  10.838 -0.7034  3.0646  1.0290
13305TIP3   OH261329   1.749   1.476  13.234  0.0808  0.2772 -0.2589
13305TIP3    H161330   1.759   1.536  13.307 -0.8580  2.2654 -1.7272
13305TIP3    H261331   1.666   1.431  13.252  1.3924 -1.5718  1.4828
13306TIP3   OH261332   5.439   5.899  11.258  0.0999 -0.4321 -0.9992
13306TIP3    H161333   5.396   5.866  11.337  2.3702 -1.8626 -0.3037
13306TIP3    H261334   5.450   5.993  11.274  3.2159 -1.1681  1.7833
13307TIP3   OH261335   2.073   3.054   3.475 -0.5413  0.3720  0.1314
13307TIP3    H161336   2.038   3.105   3.548 -0.2590  0.4527  0.2112
13307TIP3    H261337   2.160   3.027   3.504 -0.2469  0.7853 -0.3577
13308TIP3   OH261338   5.818   4.665   0.008  0.6686  0.2707 -0.6161
13308TIP3    H161339   5.865   4.737   0.050  1.1440 -1.1273  1.3125
13308TIP3    H261340   5.870   4.587   0.028  0.0956 -0.6460 -2.5663
13309TIP3   OH261341   4.531   6.641  14.579  0.3450 -0.2933 -0.9039
13309TIP3    H161342   4.443   6.616  14.606  0.2263 -0.8234 -1.7595
13309TIP3    H261343   4.589   6.593  14.638  0.0969 -1.8328 -1.8571
13310TIP3   OH261344   3.807   6.196   4.166  0.0677 -0.1831 -0.0672
13310TIP3    H161345   3.751   6.133   4.213 -0.2475 -0.0540 -0.2639
13310TIP3    H261346   3.772   6.281   4.191 -0.3097 -0.1203 -0.7825
13311TIP3   OH261347   5.844   0.962  15.475  0.4943  0.1986 -0.1198
13311TIP3    H161348   5.917   0.949  15.414 -0.0075  0.6309 -0.8093
13311TIP3    H261349   5.883   1.012  15.547  1.1703 -0.6103  0.0883
13312TIP3   OH261350   3.080   1.267  15.967  0.1338  0.2877  0.2824
13312TIP3    H161351   3.070   1.223  15.882 -3.4989  1.7436 -0.1641
13312TIP3    H261352   3.124   1.349  15.946  1.7201 -0.5558  0.2482
13313TIP3   OH261353   4.612   4.757   3.128 -0.3271  0.0195 -0.0590
13313TIP3    H161354   4.596   4.691   3.194 -2.6960 -0.2661 -0.8725
13313TIP3    H261355   4.658   4.827   3.174  1.8804 -1.9985  0.8813
13314TIP3   OH261356   0.773   3.487   1.159  0.2105  0.2805  0.1585
13314TIP3    H161357   0.768   3.569   1.207 -0.4409 -0.5132  1.4641
13314TIP3    H261358   0.778   3.419   1.227 -1.8922 -0.9455 -0.8472
13315TIP3   OH261359   5.127   4.189   1.243 -0.2782  0.3341  0.2318
13315TIP3    H161360   5.044   4.150   1.216 -0.9287  0.4367  1.9650
13315TIP3    H261361   5.118   4.282   1.223 -0.9254  0.4809  1.1602
13316TIP3   OH261362   0.214   0.764  16.993  0.2637 -0.5175 -0.2764
13316TIP3    H161363   0.269   0.841  16.976  0.5874 -0.5899  0.4274
13316TIP3    H261364   0.215   0.715  16.911 -1.2484  1.0420 -1.2672
13317TIP3   OH261365   1.428   4.293  11.368 -0.0590  0.3198  0.2170
13317TIP3    H161366   1.430   4.199  11.349  2.4780  0.1166  1.2178
13317TIP3    H261367   1.507   4.328  11.327 -0.9791  2.0264 -0.1403
13318TIP3   OH261368   5.390   0.255  15.515  0.0836 -0.1898 -0.2236
13318TIP3    H161369   5.335   0.178  15.511  0.5368 -0.4549 -1.6109
13318TIP3    H261370   5.427   0.254  15.603 -1.5140 -0.4249  0.4541
13319TIP3   OH261371   6.368   2.119   4.385 -0.4765 -0.5193 -0.5998
13319TIP3    H161372   6.441   2.139   4.325  1.3883 -3.1827  0.6767
13319TIP3    H261373   6.381   2.179   4.458  0.7192 -1.2872 -0.1720
13320TIP3   OH261374   4.445   3.782  12.833 -0.2245 -0.2475 -0.6043
13320TIP3    H161375   4.364   3.819  12.798 -0.8746 -0.0046  1.0853
13320TIP3    H261376   4.416   3.722  12.901  1.0225  0.4015  0.5337
13321TIP3   OH261377   4.965   3.569   1.869 -0.4976  0.5955  0.1918
13321TIP3    H161378   4.915   3.595   1.791 -0.2207  0.4445 -0.0342
13321TIP3    H261379   4.898   3.543   1.932 -0.7259  0.7795  0.0267
13322TIP3   OH261380   3.928   2.363  16.270 -0.0722  0.2811 -0.1525
13322TIP3    H161381   3.885   2.449  16.268 -1.0173 -0.1804 -0.0577
13322TIP3    H261382   4.016   2.381  16.302 -0.7478  1.0195  1.3863
13323TIP3   OH261383   2.691   5.850  13.464 -0.2757  0.9623  0.2076
13323TIP3    H161384   2.681   5.819  13.554  0.5060 -0.7653 -0.2906
13323TIP3    H261385   2.772   5.809  13.433 -1.5116  0.0643 -1.9022
13324TIP3   OH261386   6.231   4.573  13.349  0.4087  0.2655 -0.0827
13324TIP3    H161387   6.234   4.480  13.323 -1.2856  0.3835 -0.7547
13324TIP3    H261388   6.237   4.621  13.266  3.4015  0.8416  0.3986
13325TIP3   OH261389   5.467   5.002  14.403  0.3592  0.4308  0.3532
13325TIP3    H161390   5.422   5.073  14.448 -1.7049  1.3860 -3.0480
13325TIP3    H261391   5.525   5.046  14.340  3.6544 -0.8603  2.3357
13326TIP3   OH261392   6.095   1.306  13.181 -0.0240 -0.1564 -0.1323
13326TIP3    H161393   6.184   1.275  13.168 -0.2153 -0.9495  0.4351
13326TIP3    H261394   6.041   1.246  13.128 -0.1044  1.1008 -1.5024
13327TIP3   OH261395   2.961   5.309  14.942  0.8787 -0.0849 -1.0100
13327TIP3    H161396   2.891   5.331  15.004  1.8408 -0.8056  0.3558
13327TIP3    H261397   2.924   5.239  14.888  0.1571  0.2940 -1.0060
13328TIP3   OH261398   1.504   1.151   3.722 -0.2606 -0.4355  0.9411
13328TIP3    H161399   1.567   1.149   3.794  0.1494  3.4983  0.8358
13328TIP3    H261400   1.455   1.232   3.735 -3.0887 -1.7615 -0.8490
13329TIP3   OH261401   1.398   3.481   2.565  0.0377  0.2463 -0.3316
13329TIP3    H161402   1.406   3.405   2.507  0.4425  0.7846 -0.9955
13329TIP3    H261403   1.467   3.540   2.535 -0.6880  1.1488 -0.2307
13330TIP3   OH261404   1.959   1.750   4.639  0.2361  0.0626  0.6322
13330TIP3    H161405   1.979   1.771   4.730  0.8604  1.2773  0.2265
13330TIP3    H261406   2.026   1.687   4.613 -0.8441 -1.4524  1.4550
13331TIP3   OH261407   3.168   4.474   2.317 -0.0401 -0.4201 -0.2459
13331TIP3    H161408   3.221   4.397   2.299  0.9021  0.5480 -1.7349
13331TIP3    H261409   3.110   4.482   2.241  0.2042  0.5993 -0.3397
13332TIP3   OH261410   3.511   3.212  16.648 -0.1166 -0.2030 -0.2468
13332TIP3    H161411   3.604   3.234  16.647 -0.2328  0.5075  1.9239
13332TIP3    H261412   3.507   3.119  16.624  1.3948 -0.9412  2.1941
13333TIP3   OH261413   1.107   6.142   5.911  0.3759 -0.4430 -0.1269
13333TIP3    H161414   1.110   6.177   5.822  1.4321 -0.5770 -0.1560
13333TIP3    H261415   1.030   6.184   5.951  2.1470  2.7351  0.1595
13334TIP3   OH261416   5.552   6.557  12.556 -0.3032  0.0253  0.6224
13334TIP3    H161417   5.520   6.626  12.613  2.1724  0.5353  1.4849
13334TIP3    H261418   5.497   6.562  12.478  0.2412  3.4292  0.3839
13335TIP3   OH261419   1.906   4.053  10.722 -1.5047 -0.5922 -0.1029
13335TIP3    H161420   1.939   4.143  10.733 -1.1826 -0.9038  1.6791
13335TIP3    H261421   1.833   4.062  10.660 -0.5161  0.6704 -1.1123
13336TIP3   OH261422   3.027   6.633  16.275 -0.2293 -0.3397 -0.0626
13336TIP3    H161423   3.049   6.606  16.186  0.2674 -0.6523  0.1526
13336TIP3    H261424   2.959   6.572  16.304 -1.5527  0.7600 -0.8008
13337TIP3   OH261425   4.511   5.304   4.374 -0.4178 -0.5638  0.5190
13337TIP3    H161426   4.533   5.308   4.281  1.7350  2.6268  1.0970
13337TIP3    H261427   4.557   5.227   4.406  1.1401 -0.0884 -0.5129
13338TIP3   OH261428   5.169   4.768   4.615 -0.8148  0.3340 -0.0538
13338TIP3    H161429   5.100   4.827   4.646 -1.6629 -0.2411 -0.8456
13338TIP3    H261430   5.195   4.804   4.530 -1.7128 -0.7366 -0.7889
13339TIP3   OH261431   1.981   3.882   4.839 -0.0156 -0.2885  0.2511
13339TIP3    H161432   2.025   3.804   4.806 -1.4030 -1.1392  0.4030
13339TIP3    H261433   2.015   3.892   4.928 -1.1255 -1.7375  0.8569
13340TIP3   OH261434   1.270   6.136  12.329  0.2552 -0.2369  0.1269
13340TIP3    H161435   1.330   6.169  12.397 -1.0602  1.2026  0.6013
13340TIP3    H261436   1.307   6.168  12.247  0.6316 -0.1208  0.3391
13341TIP3   OH261437   1.829   4.980   2.993 -0.6806 -0.4425  0.2714
13341TIP3    H161438   1.852   4.889   2.974 -0.2070 -0.4302  0.7863
13341TIP3    H261439   1.778   4.975   3.075 -1.1497 -0.3041 -0.0089
13342TIP3   OH261440   6.669   0.096   1.070 -0.2706  0.4500 -0.2014
13342TIP3    H161441   6.764   0.110   1.071  0.1110 -2.0328  0.8365
13342TIP3    H261442   6.653   0.035   1.142 -2.7699  1.4627  0.1400
13343TIP3   OH261443   2.556   1.525   1.323 -0.3393  0.4077 -0.2091
13343TIP3    H161444   2.550   1.619   1.343 -0.2378  0.3111  0.2975
13343TIP3    H261445   2.597   1.521   1.237 -0.3689  0.8292 -0.2450
13344TIP3   OH261446   4.421   2.134  12.783  0.5498  0.0324  0.0587
13344TIP3    H161447   4.353   2.068  12.769 -0.8277  1.0093  1.8376
13344TIP3    H261448   4.489   2.114  12.719 -0.5074 -2.2135 -0.3807
13345TIP3   OH261449   4.637   4.295  11.662 -0.2114 -0.1820 -0.2292
13345TIP3    H161450   4.551   4.279  11.623 -0.0785 -0.3411 -0.4572
13345TIP3    H261451   4.640   4.239  11.739  0.0812 -0.9426 -0.7833
13346TIP3   OH261452   0.965   5.291  16.243 -0.3561 -0.6385  0.1300
13346TIP3    H161453   0.958   5.383  16.267 -0.3709 -0.0253 -2.1044
13346TIP3    H261454   0.899   5.247  16.297 -0.6630  0.7321  0.8798
13347TIP3   OH261455   1.206   1.532   6.471 -0.0476  0.2532 -0.2117
13347TIP3    H161456   1.137   1.467   6.467 -0.3301  0.6583 -2.2836
13347TIP3    H261457   1.283   1.488   6.435  0.9453 -0.3375  2.4725
13348TIP3   OH261458   4.847   2.029  12.822 -0.4921  0.0939 -0.2873
13348TIP3    H161459   4.807   2.021  12.909  0.7348 -0.5498  0.2188
13348TIP3    H261460   4.935   1.992  12.832 -0.3804 -0.0905 -1.8272
13349TIP3   OH261461   0.990   2.109   3.088  0.0325  0.6697 -0.1385
13349TIP3    H161462   1.067   2.064   3.123  0.6576  1.0585 -1.0008
13349TIP3    H261463   1.002   2.201   3.115 -0.6043  0.5625  0.5328
13350TIP3   OH261464   2.482   4.491   0.745 -0.1717 -0.0853 -0.3620
13350TIP3    H161465   2.544   4.442   0.692 -1.1159 -0.4837 -1.1118
13350TIP3    H261466   2.420   4.425   0.778 -1.8165  0.6486 -1.8927
13351TIP3   OH261467   0.241   6.148   1.684 -0.0916 -0.1484  0.0825
13351TIP3    H161468   0.273   6.105   1.764  1.7944  2.1389  0.6066
13351TIP3    H261469   0.215   6.236   1.713  1.7257  1.1108 -2.0239
13352TIP3   OH261470   4.999   1.789  13.214  0.1323 -0.5775 -0.1225
13352TIP3    H161471   5.047   1.867  13.242  0.8675 -1.5972  1.5072
13352TIP3    H261472   4.931   1.777  13.279  0.5180 -1.7471  0.0762
13353TIP3   OH261473   5.563   4.401  12.764 -0.4302 -0.7086  0.1027
13353TIP3    H161474   5.486   4.456  12.748 -0.7891 -1.6066 -1.2887
13353TIP3    H261475   5.630   4.463  12.794 -0.9258  0.4736 -1.1521
13354TIP3   OH261476   3.495   6.204  12.885 -0.6939  0.3665 -0.3972
13354TIP3    H161477   3.498   6.124  12.833 -0.0370 -0.1988  0.4861
13354TIP3    H261478   3.535   6.179  12.968 -0.2987  1.6754 -0.1918
13355TIP3   OH261479   0.506   6.781   2.597  0.4066  0.0555  0.6555
13355TIP3    H161480   0.484   6.716   2.664 -0.8572 -1.9404 -1.6199
13355TIP3    H261481   0.601   6.776   2.588  0.2541 -1.9608  0.0463
13356TIP3   OH261482   0.187   4.529  11.010  0.1352  0.2828 -0.2559
13356TIP3    H161483   0.116   4.527  11.074  1.8412 -0.7143  1.6457
13356TIP3    H261484   0.234   4.610  11.029  0.5095  0.1021 -0.3997
13357TIP3   OH261485   6.341   2.068  15.423 -0.0503  0.2956 -0.4143
13357TIP3    H161486   6.371   2.070  15.332  0.0966  0.6851 -0.3592
13357TIP3    H261487   6.352   2.158  15.453  0.2078  0.0937  0.0922
13358TIP3   OH261488   0.399   5.235   2.682  0.4768 -0.2956  0.2291
13358TIP3    H161489   0.312   5.216   2.647 -0.0054  1.1513  0.6091
13358TIP3    H261490   0.454   5.162   2.652 -0.2543  0.1344 -2.2407
13359TIP3   OH261491   4.797   6.771  15.328 -0.0296  0.2663 -0.3026
13359TIP3    H161492   4.861   6.815  15.272 -0.3133  1.8172  0.5546
13359TIP3    H261493   4.841   6.691  15.358  1.7066  1.5597  0.6849
13360TIP3   OH261494   0.147   0.974  13.760  0.6347  0.0801  0.6368
13360TIP3    H161495   0.213   1.041  13.782  0.9857 -0.3245  0.8226
13360TIP3    H261496   0.197   0.893  13.752  0.6097  0.3015 -2.2661
13361TIP3   OH261497   2.547   5.642   2.586  0.4815 -0.1478 -0.1141
13361TIP3    H161498   2.546   5.548   2.570 -0.3290 -0.1643  0.0346
13361TIP3    H261499   2.461   5.661   2.623  0.5642  0.6866 -0.3533
13362TIP3   OH261500   1.472   2.874  16.948 -0.3912  0.3508 -0.0551
13362TIP3    H161501   1.381   2.884  16.919 -0.1231  1.8657 -0.4469
13362TIP3    H261502   1.514   2.956  16.922  0.8010  0.1512  1.1723
13363TIP3   OH261503   0.074   6.126   0.250 -0.3344 -0.4805 -0.1992
13363TIP3    H161504   0.163   6.123   0.216 -0.0490 -0.6177  0.5709
13363TIP3    H261505   0.079   6.088   0.337 -0.9011  0.7483  0.3877
13364TIP3   OH261506   6.277   5.105  16.474  0.2616 -0.2064 -1.2882
13364TIP3    H161507   6.199   5.053  16.491  0.6198 -0.6724 -1.0624
13364TIP3    H261508   6.328   5.100  16.555 -0.9449  2.7090 -0.2752
13365TIP3   OH261509   0.381   5.159  11.659  0.0706  0.7497 -0.1233
13365TIP3    H161510   0.423   5.171  11.574 -0.5518  0.9977 -0.4011
13365TIP3    H261511   0.452   5.165  11.722  0.1371  3.8000 -0.3836
13366TIP3   OH261512   3.785   0.480  12.048 -0.0824  0.2542 -0.4839
13366TIP3    H161513   3.702   0.432  12.040 -0.2860  0.5635 -0.2321
13366TIP3    H261514   3.826   0.472  11.962 -0.7413  0.7608 -0.8500
13367TIP3   OH261515   0.203   0.336   6.033  0.1351 -0.0104 -0.6652
13367TIP3    H161516   0.295   0.315   6.047 -0.5078 -3.2892 -1.0171
13367TIP3    H261517   0.186   0.311   5.942 -1.0925  0.6995 -0.6521
13368TIP3   OH261518   4.407   3.332  13.219 -0.3080  0.0432  0.5775
13368TIP3    H161519   4.364   3.327  13.304  0.0856  1.4640  0.8689
13368TIP3    H261520   4.363   3.264  13.166 -0.0912 -1.3044  2.0881
13369TIP3   OH261521   6.371   6.537  14.786  0.0550  0.1855  0.7295
13369TIP3    H161522   6.392   6.614  14.840  1.1388  0.8362 -0.5702
13369TIP3    H261523   6.317   6.573  14.715  1.2134 -0.1008 -0.3099
13370TIP3   OH261524   4.676   5.926   3.922  1.0139  0.0864 -0.0321
13370TIP3    H161525   4.622   6.000   3.893  0.4458 -0.8358 -1.4131
13370TIP3    H261526   4.766   5.956   3.912  0.7864  1.7666  2.6339
13371TIP3   OH261527   5.667   4.105   3.725  0.1663  0.1549 -0.0077
13371TIP3    H161528   5.698   4.019   3.695  0.8400  0.2571  0.3778
13371TIP3    H261529   5.741   4.163   3.710  0.2235  0.3708  1.0740
13372TIP3   OH261530   1.747   4.921   1.707  0.4936  0.1215 -0.0301
13372TIP3    H161531   1.841   4.919   1.727  0.9239  1.8095 -1.6940
13372TIP3    H261532   1.728   4.836   1.669  1.1306 -0.5970  1.2405
13373TIP3   OH261533   6.587   2.919  11.960  0.0315  0.4649 -0.3906
13373TIP3    H161534   6.523   2.984  11.990 -2.0978 -2.3273  1.3763
13373TIP3    H261535   6.597   2.859  12.034  3.0013 -0.4841 -1.4714
13374TIP3   OH261536   4.649   5.874   0.243  0.0839 -0.4660  0.4436
13374TIP3    H161537   4.654   5.823   0.324 -1.1671 -1.4184 -0.0429
13374TIP3    H261538   4.575   5.933   0.256  0.3198 -0.1279  0.2613
13375TIP3   OH261539   4.149   5.773  15.338  0.2425 -0.2189 -0.0115
13375TIP3    H161540   4.115   5.822  15.263 -0.3755 -1.1148 -0.3152
13375TIP3    H261541   4.136   5.832  15.413 -1.1837 -0.2101 -0.2523
13376TIP3   OH261542   5.018   5.721   3.538 -0.3367  0.2409  0.2348
13376TIP3    H161543   5.018   5.716   3.442 -0.6599 -1.3739  0.3058
13376TIP3    H261544   4.928   5.744   3.561 -1.3515 -3.4815  0.3002
13377TIP3   OH261545   3.304   1.391  15.530  0.2990 -0.0770 -0.0094
13377TIP3    H161546   3.325   1.427  15.617 -0.7567  1.5266 -0.4087
13377TIP3    H261547   3.385   1.347  15.503  0.3756 -1.3915  2.1554
13378TIP3   OH261548   3.770   1.314  15.891 -0.2530  0.3074 -0.3362
13378TIP3    H161549   3.805   1.324  15.803 -0.6080  1.5504 -0.3436
13378TIP3    H261550   3.685   1.273  15.879 -0.0581 -0.0367 -0.5321
13379TIP3   OH261551   4.779   4.273   4.225  0.3879 -0.1290 -0.1240
13379TIP3    H161552   4.754   4.210   4.293 -0.1029  2.1199  1.8480
13379TIP3    H261553   4.853   4.232   4.181 -0.3235 -2.3746  0.6555
13380TIP3   OH261554   3.316   5.881  11.538 -0.5751  0.5377 -0.1426
13380TIP3    H161555   3.371   5.812  11.576 -0.4406  0.4248 -0.5492
13380TIP3    H261556   3.369   5.920  11.469  0.3799  2.8297  1.8071
13381TIP3   OH261557   5.920   5.338  15.261  0.3649  0.8570 -0.3905
13381TIP3    H161558   5.877   5.338  15.347  0.8698 -0.7905 -0.1125
13381TIP3    H261559   5.849   5.341  15.198 -0.1688 -1.1850  0.0705
13382TIP3   OH261560   2.332   1.035  17.017  0.3540  0.1778 -0.2250
13382TIP3    H161561   2.382   1.113  17.042  0.2554 -0.1044  0.8760
13382TIP3    H261562   2.398   0.969  16.998  0.4890  0.9923 -2.8045
13383TIP3   OH261563   0.911   3.963   4.287 -0.4607 -0.2240  0.1322
13383TIP3    H161564   0.857   3.965   4.366  0.5652  1.4302  0.8180
13383TIP3    H261565   0.851   3.935   4.218 -1.7889 -0.0268  1.1762
13384TIP3   OH261566   0.780   6.439  11.941 -0.1929  0.8362  0.2016
13384TIP3    H161567   0.758   6.523  11.981 -0.8572  0.7209  0.0686
13384TIP3    H261568   0.735   6.439  11.857  0.3952  0.6508 -0.1211
13385TIP3   OH261569   1.206   5.180  16.320  0.5523 -0.1164 -0.3789
13385TIP3    H161570   1.112   5.163  16.319  0.5126  0.1539 -1.3508
13385TIP3    H261571   1.217   5.254  16.380  0.4187 -1.6785  1.6605
13386TIP3   OH261572   3.909   2.684  12.767  0.4542 -0.3210  0.0805
13386TIP3    H161573   3.948   2.757  12.815 -0.1718 -0.9299  1.5483
13386TIP3    H261574   3.869   2.725  12.690  2.6421  0.4934 -0.6710
13387TIP3   OH261575   2.214   1.553   0.492  0.0810  0.2874 -0.1454
13387TIP3    H161576   2.276   1.607   0.443  1.0281 -0.8294 -0.1901
13387TIP3    H261577   2.238   1.566   0.584 -1.3713  1.9835  0.0284
13388TIP3   OH261578   1.398   1.813   5.862 -0.1075 -0.2779 -0.3840
13388TIP3    H161579   1.390   1.908   5.873  3.0236  0.1503 -1.4804
13388TIP3    H261580   1.454   1.786   5.934  1.9811 -0.7409 -2.1458
13389TIP3   OH261581   3.139   0.883   5.667 -0.1383  0.7007 -0.3618
13389TIP3    H161582   3.092   0.922   5.593  2.3685  2.7829 -0.9541
13389TIP3    H261583   3.128   0.946   5.738 -0.7005 -0.2258  0.3715
13390TIP3   OH261584   6.515   0.948   2.565  0.5203 -0.7217 -0.0477
13390TIP3    H161585   6.427   0.985   2.552 -0.1332 -1.6648  1.5071
13390TIP3    H261586   6.569   1.023   2.589  0.2827 -0.0349 -1.6403
13391TIP3   OH261587   1.989   3.770  15.391 -0.1424 -0.1828 -0.3370
13391TIP3    H161588   1.986   3.853  15.344 -0.8275 -0.4512 -0.7587
13391TIP3    H261589   1.928   3.782  15.464 -2.4926 -1.3596 -2.0807
13392TIP3   OH261590   5.070   3.167  12.376  0.2317  0.6338  0.2847
13392TIP3    H161591   5.038   3.097  12.432  2.2113  0.3763  1.1478
13392TIP3    H261592   5.068   3.245  12.431 -0.1084  0.8593 -0.0477
13393TIP3   OH261593   6.376   6.170  13.247  0.4875 -0.6502 -0.7510
13393TIP3    H161594   6.295   6.127  13.274  1.0211  0.1061  2.1824
13393TIP3    H261595   6.350   6.261  13.231  0.9429 -0.1141  1.3967
13394TIP3   OH261596   1.167   3.553   1.321  0.2584  0.4241 -0.7533
13394TIP3    H161597   1.227   3.624   1.298  0.7036  0.5342  0.6915
13394TIP3    H261598   1.116   3.539   1.241  2.0507  0.4634 -1.9487
13395TIP3   OH261599   4.772   1.992   3.552  0.2595 -0.1696 -0.8897
13395TIP3    H161600   4.706   2.032   3.496 -0.6660  0.1680  0.4027
13395TIP3    H261601   4.849   2.049   3.543 -0.5417  1.0186 -0.2643
13396TIP3   OH261602   1.562   1.042   0.512  0.5344  0.3853  0.7670
13396TIP3    H161603   1.533   1.027   0.602 -3.0819  0.7424 -0.2807
13396TIP3    H261604   1.602   0.959   0.486 -1.4652 -0.8629  1.5938
13397TIP3   OH261605   1.302   0.785   5.303 -0.3106  0.1692 -0.2626
13397TIP3    H161606   1.384   0.807   5.259 -1.0232  0.2355 -1.6052
13397TIP3    H261607   1.259   0.870   5.317 -0.5999  0.0596 -0.4769
13398TIP3   OH261608   4.330   6.718  13.135  0.1007 -0.0708  0.2858
13398TIP3    H161609   4.370   6.633  13.120  2.2152  1.0156 -0.3844
13398TIP3    H261610   4.270   6.730  13.061 -0.8747 -1.3394  0.8514
13399TIP3   OH261611   3.630   3.274  13.125 -0.6723  0.0629  0.7830
13399TIP3    H161612   3.665   3.317  13.203  1.6863 -2.2628  1.0644
13399TIP3    H261613   3.664   3.325  13.052  1.8041 -1.0189  1.1305
13400TIP3   OH261614   2.996   4.516   2.095 -0.1265 -0.5353 -0.2358
13400TIP3    H161615   3.019   4.605   2.068 -2.0624  0.2264  0.4898
13400TIP3    H261616   2.977   4.470   2.013 -1.2184  0.3527 -0.4926
13401TIP3   OH261617   1.434   3.605   4.413 -1.2441 -0.6042 -0.5841
13401TIP3    H161618   1.455   3.565   4.329 -1.0410 -0.7186 -0.4774
13401TIP3    H261619   1.419   3.698   4.392 -0.5177 -0.4947 -0.6416
13402TIP3   OH261620   2.260   4.358  15.378 -0.0034  0.5098  0.6069
13402TIP3    H161621   2.225   4.347  15.466  1.9547 -1.4317  1.2068
13402TIP3    H261622   2.354   4.342  15.388  0.2002 -0.0857 -1.8925
13403TIP3   OH261623   3.659   4.250   2.923  0.1024  0.7235 -0.4674
13403TIP3    H161624   3.716   4.191   2.874  0.6571  1.7123 -1.0252
13403TIP3    H261625   3.590   4.273   2.862 -0.8254 -0.3484  0.1599
13404TIP3   OH261626   3.329   2.538   4.407 -0.3034 -0.0710 -0.1324
13404TIP3    H161627   3.291   2.601   4.346  0.7704 -0.0522 -0.7934
13404TIP3    H261628   3.269   2.537   4.481 -0.9221  0.8933 -0.6121
13405TIP3   OH261629   5.343   6.295  17.061 -0.0993  0.3472  0.3359
13405TIP3    H161630   5.426   6.307  17.016  0.0584  0.7103  0.7242
13405TIP3    H261631   5.344   6.360  17.132  0.3339 -1.2548  1.8481
13406TIP3   OH261632   2.535   6.258  14.325 -0.3961  0.4627 -0.0599
13406TIP3    H161633   2.498   6.300  14.248  1.5499  1.3477 -0.5303
13406TIP3    H261634   2.524   6.322  14.395 -1.0438  0.1429  0.1421
13407TIP3   OH261635   0.006   5.473  11.300  0.3466  0.3934  0.0991
13407TIP3    H161636   0.031   5.550  11.249  1.0036  0.4211  0.4695
13407TIP3    H261637  -0.015   5.507  11.387  0.0226  0.2357  0.0822
13408TIP3   OH261638   5.795   2.861   3.808  0.6005  0.3139 -0.3511
13408TIP3    H161639   5.855   2.788   3.793  0.6608  0.3047 -0.0560
13408TIP3    H261640   5.755   2.876   3.722 -1.3692 -1.7943  0.1226
13409TIP3   OH261641   0.738   1.019  12.969  0.1477 -0.1509 -0.4096
13409TIP3    H161642   0.681   1.095  12.963 -0.0751 -0.2696  0.1331
13409TIP3    H261643   0.699   0.966  13.039  0.0776 -0.9473 -1.0454
13410TIP3   OH261644   4.125   6.323   5.615  0.6996 -0.2529  0.4653
13410TIP3    H161645   4.208   6.342   5.658  0.9557  0.0565 -0.1501
13410TIP3    H261646   4.072   6.401   5.630  0.8953 -0.0228 -0.0270
13411TIP3   OH261647   1.497   2.311   1.631 -0.1009  0.0490  0.3802
13411TIP3    H161648   1.448   2.248   1.683  0.4842  0.1875  1.1223
13411TIP3    H261649   1.468   2.297   1.541 -1.7207  0.3452  0.8444
13412TIP3   OH261650   0.058   5.987   3.921  0.2866 -0.3036 -0.0578
13412TIP3    H161651   0.032   6.063   3.868 -1.0589 -1.1175 -0.5717
13412TIP3    H261652   0.076   5.918   3.857  1.2443 -0.5076  0.4271
13413TIP3   OH261653   3.759   3.319  11.617  0.4748 -0.3025  0.0739
13413TIP3    H161654   3.772   3.393  11.558 -1.0039  0.4882  0.7166
13413TIP3    H261655   3.831   3.325  11.680 -0.6343  1.6742  1.2080
13414TIP3   OH261656   0.115   0.049   5.219  1.0295 -0.3860  0.5026
13414TIP3    H161657   0.102   0.012   5.306  0.5348  0.6394  0.8646
13414TIP3    H261658   0.178  -0.010   5.177  2.5688  0.0831  2.1341
13415TIP3   OH261659   5.710   4.097   4.375  0.2866 -0.3373 -0.0321
13415TIP3    H161660   5.797   4.083   4.412  1.2796 -1.5104 -2.6480
13415TIP3    H261661   5.681   4.010   4.346 -1.3458  0.1878 -0.0742
13416TIP3   OH261662   6.526   5.516  15.134  0.3626 -0.1144 -0.0101
13416TIP3    H161663   6.543   5.441  15.192 -0.2953 -0.5369 -0.3503
13416TIP3    H261664   6.605   5.525  15.082  0.2897 -0.8460 -0.2598
13417TIP3   OH261665   6.433   2.473   4.169 -0.9836  0.6887  0.6271
13417TIP3    H161666   6.448   2.392   4.218  1.6894  0.7566 -0.0179
13417TIP3    H261667   6.502   2.475   4.103 -1.4742  3.1162  0.1233
13418TIP3   OH261668   4.594   4.658  11.782  0.0748  0.0967 -0.3982
13418TIP3    H161669   4.602   4.571  11.821  0.6877  0.2746 -0.1227
13418TIP3    H261670   4.636   4.717  11.845  0.8644  0.4144 -1.2087
13419TIP3   OH261671   5.469   4.837  16.664  0.8106  0.3020  0.1284
13419TIP3    H161672   5.515   4.772  16.718  1.2667  1.1710  0.8009
13419TIP3    H261673   5.535   4.866  16.601  0.9609  0.9994  0.6096
13420TIP3   OH261674   3.811   3.784  12.320 -0.1219 -0.2294  0.2283
13420TIP3    H161675   3.776   3.763  12.234 -0.8167 -2.6877  1.0612
13420TIP3    H261676   3.902   3.808  12.304 -0.4700  0.1485 -1.2726
13421TIP3   OH261677   3.191   3.689  17.031 -0.0035  0.0365 -0.3386
13421TIP3    H161678   3.258   3.656  16.971  0.9350 -0.1900  0.8368
13421TIP3    H261679   3.128   3.617  17.038  0.0743 -0.0772 -0.7624
13422TIP3   OH261680   3.997   0.748   0.265 -0.5317 -0.2008  0.5058
13422TIP3    H161681   3.955   0.670   0.230 -0.3808 -0.2558  0.4465
13422TIP3    H261682   3.973   0.818   0.205 -1.3837 -0.0290  1.0370
13423TIP3   OH261683   0.624   0.896   3.321  0.0355  0.1840 -0.5982
13423TIP3    H161684   0.668   0.872   3.403 -1.4578 -0.5746 -0.0096
13423TIP3    H261685   0.693   0.938   3.269  1.5795 -1.3291  0.1531
13424TIP3   OH261686   3.201   0.534   1.378 -0.2451  0.1185 -0.4004
13424TIP3    H161687   3.169   0.590   1.449 -1.7294 -0.7868 -0.3313
13424TIP3    H261688   3.125   0.525   1.319  0.4252 -0.6237 -1.1598
13425TIP3   OH261689   3.769   6.685   3.170  0.3492 -0.5811 -0.0089
13425TIP3    H161690   3.765   6.779   3.187 -0.8387 -0.9331  1.8961
13425TIP3    H261691   3.853   6.672   3.126  0.4969  1.3701 -0.3589
13426TIP3   OH261692   6.502   6.240   6.108  0.4605 -0.0056 -0.5806
13426TIP3    H161693   6.569   6.171   6.109  0.6362  0.1764  0.7960
13426TIP3    H261694   6.544   6.312   6.062  0.2560 -0.8120 -2.0884
13427TIP3   OH261695   6.090   5.807   2.092 -0.3368 -0.5040 -0.4121
13427TIP3    H161696   6.155   5.801   2.022  2.0564  2.4492  1.4166
13427TIP3    H261697   6.135   5.774   2.169 -1.5993  0.0347  0.5679
13428TIP3   OH261698   1.649   2.943   5.396  0.1589  0.2624  0.5958
13428TIP3    H161699   1.688   3.016   5.346 -1.7941  0.5063 -0.6391
13428TIP3    H261700   1.708   2.870   5.381  1.2381  1.1545  0.4289
13429TIP3   OH261701   4.011   2.764   4.583  0.3083 -0.0711  0.0799
13429TIP3    H161702   4.083   2.704   4.605 -1.2255 -1.2937  1.9914
13429TIP3    H261703   4.005   2.760   4.488  2.0397 -0.8191 -0.0188
13430TIP3   OH261704   5.959   6.695  15.799 -0.7841 -0.4701 -0.4559
13430TIP3    H161705   5.930   6.764  15.859 -2.5292 -1.2365 -0.3911
13430TIP3    H261706   6.040   6.662  15.838 -0.6985  0.5641  0.2678
13431TIP3   OH261707   4.277   3.237  14.092 -0.1335 -0.1228 -0.1670
13431TIP3    H161708   4.330   3.303  14.047 -0.9917  0.2013 -0.7273
13431TIP3    H261709   4.323   3.154  14.077  1.4476  0.4514  1.3063
13432TIP3   OH261710   4.005   6.460  13.733 -0.0334 -0.2872 -1.0070
13432TIP3    H161711   3.959   6.543  13.751 -0.1544 -0.6567  0.3970
13432TIP3    H261712   4.071   6.453  13.801 -0.5762 -1.7670 -0.6202
13433TIP3   OH261713   5.351   3.155   2.187 -0.3505 -0.1382  0.7076
13433TIP3    H161714   5.302   3.074   2.172 -0.9006  0.0470  1.4701
13433TIP3    H261715   5.310   3.219   2.129 -0.8295 -0.0568  1.1328
13434TIP3   OH261716   3.219   4.330  16.947 -0.0928  0.2576 -0.6161
13434TIP3    H161717   3.171   4.400  16.903 -0.4003  1.0658  0.9403
13434TIP3    H261718   3.153   4.285  17.000  0.8537  1.5472  1.7552
13435TIP3   OH261719   3.147   3.814   4.423 -0.1269  0.4252 -0.2558
13435TIP3    H161720   3.197   3.735   4.402  0.5891  0.7747  0.1076
13435TIP3    H261721   3.138   3.813   4.518  1.6995  1.8368 -0.0374
13436TIP3   OH261722   0.854   4.474   5.748  0.0429 -0.5706 -0.2682
13436TIP3    H161723   0.834   4.556   5.791  1.3435 -0.3885 -0.0038
13436TIP3    H261724   0.771   4.447   5.707 -0.3718  0.8841 -0.3976
13437TIP3   OH261725   0.269   2.139   2.703 -0.1296  0.7789 -0.2047
13437TIP3    H161726   0.280   2.217   2.757 -0.2127  1.1997 -0.7829
13437TIP3    H261727   0.296   2.167   2.615  0.4668 -0.0233 -0.2886
13438TIP3   OH261728   6.287   3.842  15.736 -0.4334 -0.5199  0.2488
13438TIP3    H161729   6.287   3.913  15.672  0.5125 -0.8771 -0.1672
13438TIP3    H261730   6.313   3.885  15.818  0.4411 -0.4282 -0.0645
13439TIP3   OH261731   2.939   5.121  14.725  0.2273  0.2307  0.3238
13439TIP3    H161732   3.033   5.135  14.717  0.4658 -0.9389  1.0189
13439TIP3    H261733   2.905   5.141  14.638  1.2624 -0.4345 -0.2467
13440TIP3   OH261734   3.803   2.885  16.449 -0.2009  0.0125 -0.3696
13440TIP3    H161735   3.718   2.914  16.418 -1.0711 -0.3085  1.6176
13440TIP3    H261736   3.853   2.966  16.464 -1.0741  0.3341  0.9145
13441TIP3   OH261737   4.534   3.916  15.151 -0.3215  0.9052  0.3012
13441TIP3    H161738   4.581   3.833  15.143  1.2058  1.6111  1.5619
13441TIP3    H261739   4.519   3.944  15.061  0.0855 -0.2198 -0.1268
13442TIP3   OH261740   0.977   6.114  10.923  0.1932  0.5480  0.0365
13442TIP3    H161741   1.052   6.162  10.888  1.0107 -1.2182 -0.7268
13442TIP3    H261742   1.001   6.022  10.911 -1.5418 -0.0399  0.9950
13443TIP3   OH261743   3.081   1.903  10.797  0.5403 -0.0106 -0.8796
13443TIP3    H161744   3.040   1.940  10.718  0.1140 -0.0950 -0.7009
13443TIP3    H261745   3.173   1.892  10.773  0.1602 -1.2668 -1.8151
13444TIP3   OH261746   5.532   6.317   1.093  0.6103  0.2025 -0.0602
13444TIP3    H161747   5.569   6.281   1.173 -3.2891  1.5422  2.4652
13444TIP3    H261748   5.565   6.407   1.090  1.4274 -0.1057 -0.4270
13445TIP3   OH261749   0.602   6.109   2.056  0.2710  0.0799 -0.0057
13445TIP3    H161750   0.656   6.186   2.039  1.6381 -1.1380 -1.3916
13445TIP3    H261751   0.664   6.042   2.084 -0.6027 -1.1389 -0.9139
13446TIP3   OH261752   1.011   3.333  14.792 -0.7771 -0.0513  0.6864
13446TIP3    H161753   0.944   3.285  14.842 -2.8910 -0.5122 -2.4530
13446TIP3    H261754   0.984   3.424  14.797 -0.7534 -0.0474  0.7421
13447TIP3   OH261755   3.602   1.753  16.379 -0.5489 -0.6817 -0.5530
13447TIP3    H161756   3.653   1.827  16.413 -0.1996 -0.1574 -2.1861
13447TIP3    H261757   3.655   1.676  16.401  0.1734 -0.2695 -0.8058
13448TIP3   OH261758   5.888   3.328  13.320  0.0413  0.0875  0.6922
13448TIP3    H161759   5.932   3.393  13.265 -1.4271  0.8362  0.3618
13448TIP3    H261760   5.959   3.284  13.366  1.2253  0.3325 -0.8219
13449TIP3   OH261761   5.126   3.447   5.732  0.1564  0.3173 -0.2059
13449TIP3    H161762   5.092   3.358   5.722 -0.4852  0.5228  0.1021
13449TIP3    H261763   5.136   3.457   5.827  0.1426  0.6072 -0.2360
13450TIP3   OH261764   0.682   1.898   5.737  0.0324 -0.0216 -0.0197
13450TIP3    H161765   0.668   1.955   5.813 -0.3326 -2.1586  1.5367
13450TIP3    H261766   0.762   1.849   5.759 -0.9305 -1.7422 -0.3274
13451TIP3   OH261767   3.526   5.862  12.962  0.3423 -0.0698  0.0468
13451TIP3    H161768   3.587   5.812  12.907  2.5781 -0.0766  2.4199
13451TIP3    H261769   3.479   5.796  13.012  0.4834  0.0382  0.3259
13452TIP3   OH261770   2.115   6.502  14.847  0.1976  0.1349  0.0713
13452TIP3    H161771   2.046   6.560  14.881  1.4687  1.7037  0.0637
13452TIP3    H261772   2.114   6.426  14.905 -3.3616 -1.1695 -1.5859
13453TIP3   OH261773   1.481   3.999   1.452  0.3184  0.5087 -0.2063
13453TIP3    H161774   1.501   3.976   1.361 -1.7979 -1.3506 -0.2445
13453TIP3    H261775   1.566   4.018   1.491  1.5647 -1.6025 -1.8045
13454TIP3   OH261776   1.913   1.815   3.093  0.2309  0.1207  0.7372
13454TIP3    H161777   2.000   1.784   3.068 -1.0037 -1.6338 -1.5011
13454TIP3    H261778   1.860   1.808   3.014 -1.6545  2.4328  1.6994
13455TIP3   OH261779   2.062   2.229  14.669  0.1072 -0.1719  0.3484
13455TIP3    H161780   2.066   2.134  14.663 -0.9763 -0.1116 -2.0060
13455TIP3    H261781   2.114   2.260  14.594 -1.1175  1.0485 -0.0211
13456TIP3   OH261782   6.262   3.166   1.479  0.2017 -0.0784 -0.4244
13456TIP3    H161783   6.211   3.247   1.482  0.7475  0.2590 -0.0880
13456TIP3    H261784   6.349   3.191   1.511  0.5109 -0.6960 -0.7617
13457TIP3   OH261785   2.763   3.934  11.106 -0.5209  0.2084  0.1834
13457TIP3    H161786   2.839   3.990  11.094  1.1026 -1.6584  1.4045
13457TIP3    H261787   2.766   3.873  11.032 -0.3581 -0.3622  0.6515
13458TIP3   OH261788   5.777   4.236  16.742  0.2155  0.1058  0.6387
13458TIP3    H161789   5.783   4.263  16.834  1.8665  0.6207  0.4041
13458TIP3    H261790   5.692   4.269  16.713 -0.0804  0.4231  1.8324
13459TIP3   OH261791   4.803   0.286  11.237  0.7949 -0.1173 -0.0449
13459TIP3    H161792   4.756   0.333  11.307  0.0184 -1.3037  0.2544
13459TIP3    H261793   4.735   0.235  11.193  1.2243  0.8566 -1.8962
13460TIP3   OH261794   1.059   2.857  14.502  0.3158 -0.1593  0.4244
13460TIP3    H161795   1.135   2.802  14.481 -0.7493 -0.9894 -1.3029
13460TIP3    H261796   1.090   2.947  14.485  0.9620 -0.4775 -0.1037
13461TIP3   OH261797   1.898   2.077   2.061  0.4554  0.4030  0.2246
13461TIP3    H161798   1.828   2.048   2.120  1.6450 -1.2670  0.8470
13461TIP3    H261799   1.878   2.035   1.977  0.8545 -0.2582  0.4658
13462TIP3   OH261800   2.068   1.975  16.839  0.0176  0.3265 -0.5719
13462TIP3    H161801   2.071   1.985  16.934  2.8968  1.7857 -0.7617
13462TIP3    H261802   2.082   1.881  16.824 -0.7907  0.0391  0.4538
13463TIP3   OH261803   1.926   2.675   4.021  0.4861 -0.1078  0.8839
13463TIP3    H161804   1.856   2.740   4.011 -1.2248 -1.9149  0.8498
13463TIP3    H261805   1.957   2.660   3.931 -0.7258 -1.0502  0.6105
13464TIP3   OH261806   5.434   0.193   0.064 -0.2639 -0.0651 -0.1151
13464TIP3    H161807   5.469   0.110   0.031 -1.5858 -0.9442  0.6339
13464TIP3    H261808   5.510   0.251   0.068  1.1714 -1.9728  1.6903
13465TIP3   OH261809   5.683   4.190   0.714 -1.1244  0.2510  0.2735
13465TIP3    H161810   5.741   4.261   0.741  0.2362 -1.4584  1.9596
13465TIP3    H261811   5.604   4.234   0.684  0.4025  2.5523 -0.4958
13466TIP3   OH261812   1.957   0.370   0.282 -0.3034 -0.9875  0.0629
13466TIP3    H161813   2.020   0.298   0.280  0.6753 -0.1557  0.3736
13466TIP3    H261814   1.977   0.422   0.204  0.2600  0.0019  0.8638
13467TIP3   OH261815   4.067   5.320   1.186 -0.3741  0.5240  0.0816
13467TIP3    H161816   4.029   5.314   1.273 -0.5031  1.3537  0.0836
13467TIP3    H261817   4.121   5.399   1.189  0.3952  0.0215 -0.2884
13468TIP3   OH261818   3.545   1.371  15.044  0.1675 -0.1706 -0.1742
13468TIP3    H161819   3.631   1.394  15.078  0.1580 -1.8854  1.0556
13468TIP3    H261820   3.502   1.455  15.030 -0.0338  0.6994  4.6192
13469TIP3   OH261821   5.313   4.536   0.775  0.2133  0.3053  0.0888
13469TIP3    H161822   5.378   4.505   0.839 -0.5785 -2.0364 -0.1997
13469TIP3    H261823   5.253   4.591   0.827  0.2325 -0.6430  1.1415
13470TIP3   OH261824   3.081   5.308   3.135  0.8899  0.4979 -0.4662
13470TIP3    H161825   3.125   5.389   3.110  0.8259  0.7018  0.0756
13470TIP3    H261826   3.123   5.240   3.082  0.8408  0.9088 -1.0234
13471TIP3   OH261827   4.606   0.348  10.768 -0.5448  0.0454 -0.3936
13471TIP3    H161828   4.582   0.293  10.693 -1.9824  2.0793 -1.4717
13471TIP3    H261829   4.668   0.412  10.733 -0.1460  0.1536  0.4802
13472TIP3   OH261830   0.218   4.120  14.147 -0.1990  0.5743 -0.1480
13472TIP3    H161831   0.123   4.105  14.145 -0.0044 -0.7984  0.6996
13472TIP3    H261832   0.228   4.199  14.200 -0.8153  0.2032  0.5380
13473TIP3   OH261833   2.470   1.482  15.514  0.0209 -0.1266  0.2810
13473TIP3    H161834   2.446   1.415  15.578 -1.3170  0.6440  0.6112
13473TIP3    H261835   2.564   1.470  15.501 -0.0035 -1.3612  1.1523
13474TIP3   OH261836   1.992   4.301  12.835  0.4770  0.2450  0.2575
13474TIP3    H161837   2.028   4.384  12.867 -0.3005  0.9672 -0.7065
13474TIP3    H261838   1.897   4.310  12.849  0.3584 -0.3499 -0.1605
13475TIP3   OH261839   2.559   3.218  16.750  0.0425  0.0824 -0.2916
13475TIP3    H161840   2.504   3.141  16.763 -1.2497  0.6723 -1.9576
13475TIP3    H261841   2.510   3.289  16.792  0.6688  0.2007  0.2416
13476TIP3   OH261842   0.562   0.186  15.568 -0.3423 -0.2647 -0.2527
13476TIP3    H161843   0.504   0.214  15.638 -1.5926 -0.0942 -1.3368
13476TIP3    H261844   0.507   0.130  15.512  0.2894  0.5708 -1.7411
13477TIP3   OH261845   0.847   4.078   0.989 -0.5144 -0.4145  0.4320
13477TIP3    H161846   0.762   4.119   1.004 -0.0161  0.2463  1.4879
13477TIP3    H261847   0.910   4.143   1.018  0.4056 -0.3765 -1.5662
13478TIP3   OH261848   5.007   1.501   3.384 -0.1252  0.0152 -0.4731
13478TIP3    H161849   4.980   1.425   3.333 -0.7091 -0.0339 -0.0928
13478TIP3    H261850   5.102   1.507   3.369 -0.0316 -0.9381 -0.3013
13479TIP3   OH261851   3.737   1.279   3.181  0.0593  0.6903  0.3095
13479TIP3    H161852   3.728   1.317   3.094  0.4465  0.8856  0.3551
13479TIP3    H261853   3.650   1.289   3.220 -0.1245  0.5714 -0.0632
13480TIP3   OH261854   3.864   1.358  14.293  0.3026 -0.5103 -0.3011
13480TIP3    H161855   3.863   1.266  14.268 -0.3576 -0.2803 -1.1407
13480TIP3    H261856   3.774   1.388  14.279  0.1022 -0.1519  1.5667
13481TIP3   OH261857   5.114   4.580  14.959  0.1797  0.2456  0.0113
13481TIP3    H161858   5.128   4.630  14.879 -0.3613  2.0953  1.0375
13481TIP3    H261859   5.201   4.552  14.986  0.4877  0.6335 -0.5742
13482TIP3   OH261860   2.641   1.647  13.385 -0.0697  0.7656  0.3021
13482TIP3    H161861   2.703   1.607  13.445  1.1905  1.9314 -0.2062
13482TIP3    H261862   2.626   1.581  13.317 -0.6033 -0.1100  1.2551
13483TIP3   OH261863   2.460   1.309   3.722  0.3548  0.4550 -0.1241
13483TIP3    H161864   2.437   1.221   3.752 -1.1607  0.6103 -0.8170
13483TIP3    H261865   2.423   1.367   3.789  0.0717  0.6307 -0.4339
13484TIP3   OH261866   6.251   3.421  16.802  0.7019  0.9925  0.3245
13484TIP3    H161867   6.309   3.407  16.877  0.8215 -0.6615 -0.0628
13484TIP3    H261868   6.291   3.493  16.753  1.1197  1.4604  1.3333
13485TIP3   OH261869   1.278   4.185  16.412 -0.0751 -0.5667  0.2805
13485TIP3    H161870   1.345   4.130  16.372 -0.4339  1.4948 -3.4200
13485TIP3    H261871   1.196   4.139  16.395 -0.3105  0.6905 -2.2465
13486TIP3   OH261872   0.354   3.631   5.296 -0.7668 -0.0885  0.0746
13486TIP3    H161873   0.444   3.607   5.314 -0.6260  1.2320  1.2678
13486TIP3    H261874   0.305   3.549   5.298  0.5141 -0.9002 -1.3223
13487TIP3   OH261875   5.401   0.363   1.056 -0.1712 -0.4171  0.4527
13487TIP3    H161876   5.388   0.357   0.962  0.8446 -0.6541  0.3226
13487TIP3    H261877   5.448   0.282   1.079  1.4604  0.6209  0.8287
13488TIP3   OH261878   1.746   2.731  16.965  0.2178  0.0808  0.8491
13488TIP3    H161879   1.692   2.801  17.003 -2.5819 -0.9058 -1.1891
13488TIP3    H261880   1.785   2.771  16.888 -2.6166 -0.9755 -1.1991
13489TIP3   OH261881   0.723   0.548  16.626 -0.5455  0.1184 -0.2937
13489TIP3    H161882   0.817   0.531  16.629 -0.7674 -0.9359  0.9449
13489TIP3    H261883   0.695   0.550  16.717 -2.6297 -4.7805 -0.6685
13490TIP3   OH261884   0.508   4.018  11.059 -0.8260 -0.1433 -0.0944
13490TIP3    H161885   0.508   3.948  11.124  0.8485 -0.1670 -0.1180
13490TIP3    H261886   0.552   3.980  10.983 -3.2619 -0.3086 -1.4965
13491TIP3   OH261887   6.716   4.284  15.508  0.2368 -0.3353 -0.2988
13491TIP3    H161888   6.707   4.237  15.591 -0.5983  1.5869  0.7443
13491TIP3    H261889   6.760   4.222  15.450 -1.6924 -2.7223  0.7100
13492TIP3   OH261890   0.056   2.892  14.903 -0.3279 -0.6079  0.2485
13492TIP3    H161891   0.129   2.921  14.958 -0.4377  1.7358 -0.7814
13492TIP3    H261892  -0.005   2.850  14.964 -0.0091  1.1138  1.7945
13493TIP3   OH261893   3.543   1.600  14.382 -0.0873 -0.3721  0.1317
13493TIP3    H161894   3.457   1.613  14.342  0.9375  0.6053 -1.8066
13493TIP3    H261895   3.549   1.669  14.449 -1.4234 -1.4331  1.3798
13494TIP3   OH261896   1.314   3.066   2.284 -0.2347  0.1039  0.2976
13494TIP3    H161897   1.285   3.137   2.226  0.1723 -1.5324 -1.9897
13494TIP3    H261898   1.400   3.041   2.251 -1.2263 -2.7953 -0.2441
13495TIP3   OH261899   6.045   2.947   3.130  0.0027 -0.9572 -0.3009
13495TIP3    H161900   6.099   2.872   3.105 -0.9809 -1.4124 -1.0731
13495TIP3    H261901   5.958   2.910   3.144 -0.4434  0.0065 -0.4928
13496TIP3   OH261902   5.007   1.560   0.642 -0.0692  0.1083  0.1669
13496TIP3    H161903   4.938   1.616   0.677  0.3803  1.4767 -1.0548
13496TIP3    H261904   4.965   1.511   0.572  0.2599  1.2238 -0.8345
13497TIP3   OH261905   5.326   6.382   4.599  0.3309 -0.1998 -0.0741
13497TIP3    H161906   5.280   6.457   4.636  1.5348  0.2513  0.5242
13497TIP3    H261907   5.261   6.312   4.598 -0.0033  0.0672  1.9713
13498TIP3   OH261908   5.761   4.703  10.294  0.1486  0.4617 -0.1694
13498TIP3    H161909   5.722   4.621  10.324  1.0523  1.0481  2.7716
13498TIP3    H261910   5.751   4.701  10.198 -5.7100 -0.0600  0.2869
13499TIP3   OH261911   5.486   4.017   4.218 -0.5416 -0.1775  0.0124
13499TIP3    H161912   5.523   4.052   4.137 -1.4684 -1.3073 -0.9221
13499TIP3    H261913   5.409   3.968   4.190  0.6848 -2.9364  1.2504
13500TIP3   OH261914   3.783   5.594   6.425  0.4711  0.4645 -0.0066
13500TIP3    H161915   3.776   5.685   6.454  0.1720  0.2431  0.6324
13500TIP3    H261916   3.709   5.550   6.469 -1.2930  0.5566 -2.7732
13501TIP3   OH261917   5.540   2.455   6.619 -0.0250 -0.6802  0.0396
13501TIP3    H161918   5.526   2.391   6.549 -0.4214  0.6595 -1.1140
13501TIP3    H261919   5.554   2.401   6.697 -0.0001 -2.1857 -0.9748
13502TIP3   OH261920   3.442   3.769   3.338 -0.5808 -0.4722  0.0285
13502TIP3    H161921   3.514   3.779   3.400 -0.5271 -1.9801  0.2289
13502TIP3    H261922   3.470   3.698   3.280 -1.3447 -0.1877 -0.6996
13503TIP3   OH261923   4.207   5.076  11.727 -0.5308  0.1999 -0.7643
13503TIP3    H161924   4.161   5.017  11.667 -1.1972  0.5051 -0.5620
13503TIP3    H261925   4.147   5.150  11.738 -0.3882  0.1759  0.2338
13504TIP3   OH261926   0.750   0.411  10.870 -0.1445 -0.2778 -0.1158
13504TIP3    H161927   0.842   0.409  10.896  0.7374 -2.1582 -3.1339
13504TIP3    H261928   0.742   0.341  10.806 -3.5562  0.2696 -0.3577
13505TIP3   OH261929   4.021   3.545   1.212  0.6535  0.1573  0.8523
13505TIP3    H161930   4.099   3.528   1.158 -0.5366 -0.9786 -0.5809
13505TIP3    H261931   4.015   3.640   1.217  1.0128  0.2814 -0.7461
13506TIP3   OH261932   2.357   3.989  17.190  0.0212  0.4514  0.4556
13506TIP3    H161933   2.277   4.004  17.242 -0.0808  1.6117 -0.0262
13506TIP3    H261934   2.401   3.917  17.235 -1.1544 -0.0054  0.8979
13507TIP3   OH261935   4.638   0.299  13.201  0.0831 -0.1513  0.5203
13507TIP3    H161936   4.562   0.351  13.174  0.1081  0.0246  0.7879
13507TIP3    H261937   4.601   0.229  13.256 -0.1443 -1.4319 -1.2256
13508TIP3   OH261938   1.070   5.500  14.834  0.2280 -0.0822  0.1613
13508TIP3    H161939   0.995   5.549  14.868 -0.8473 -0.6561 -1.3257
13508TIP3    H261940   1.107   5.558  14.767  0.1789 -0.4639 -0.1925
13509TIP3   OH261941   6.548   2.182  16.037  0.2370 -0.0549 -0.5547
13509TIP3    H161942   6.619   2.120  16.050  0.8394  0.7203 -0.1642
13509TIP3    H261943   6.576   2.236  15.962  0.7685  1.2537  0.5638
13510TIP3   OH261944   4.295   0.799   3.677  0.0314  0.3914  0.0956
13510TIP3    H161945   4.381   0.831   3.652  0.9764 -0.8469  1.6494
13510TIP3    H261946   4.304   0.777   3.770 -1.9688  0.2658  0.2866
13511TIP3   OH261947   4.478   0.545   3.658 -0.0225  1.0228  0.0422
13511TIP3    H161948   4.421   0.600   3.604  1.0715  0.9473 -1.1934
13511TIP3    H261949   4.532   0.608   3.706  0.2947  1.0502 -0.3514
13512TIP3   OH261950   4.111   2.862  11.366  0.3584 -0.0154 -0.0541
13512TIP3    H161951   4.036   2.813  11.333 -0.2714  1.1996 -0.4479
13512TIP3    H261952   4.073   2.932  11.419  1.1519  1.3672 -1.2815
13513TIP3   OH261953   6.170   2.788  16.465  0.8759 -0.3983 -0.0253
13513TIP3    H161954   6.158   2.711  16.409  0.0807  0.5397 -1.1797
13513TIP3    H261955   6.182   2.861  16.404 -0.4453  0.7142  1.0033
13514TIP3   OH261956   6.127   2.821  14.979  0.1244  0.0536  0.0003
13514TIP3    H161957   6.125   2.837  14.885  2.3325  1.1812  0.1252
13514TIP3    H261958   6.133   2.726  14.987  0.4833 -0.0081 -0.9954
13515TIP3   OH261959   1.042   5.734  17.006 -0.4070  0.1265  0.7029
13515TIP3    H161960   1.127   5.716  17.047 -1.5183 -1.2010  2.5455
13515TIP3    H261961   1.052   5.819  16.965  2.0738 -0.3950  0.1782
13516TIP3   OH261962   0.465   5.732  11.321 -0.2739 -0.1955  0.4592
13516TIP3    H161963   0.458   5.779  11.238  1.2142 -1.5100 -0.4340
13516TIP3    H261964   0.456   5.640  11.297 -0.9764 -0.5137  1.9117
13517TIP3   OH261965   4.182   4.421   5.595  0.0320 -0.4420  0.4480
13517TIP3    H161966   4.169   4.487   5.663  1.8546 -0.0552  0.4447
13517TIP3    H261967   4.191   4.339   5.643  1.5646 -0.1341  0.6937
13518TIP3   OH261968   6.600   6.780  16.459 -0.1975  0.4446 -0.0983
13518TIP3    H161969   6.647   6.747  16.536  1.5100  0.8765 -0.9358
13518TIP3    H261970   6.511   6.746  16.469  0.0502  0.3456  1.9680
13519TIP3   OH261971   1.434   5.920  13.625  0.3871  0.2622 -0.0454
13519TIP3    H161972   1.405   5.895  13.537 -1.2477  0.0593  0.5431
13519TIP3    H261973   1.410   5.846  13.680  1.7819  0.2149  0.5198
13520TIP3   OH261974   4.784   6.044   1.244  0.1533 -0.3766  0.1618
13520TIP3    H161975   4.693   6.028   1.220  0.3502 -0.5159 -0.4903
13520TIP3    H261976   4.835   5.995   1.180  0.6808 -0.8663  0.9507
13521TIP3   OH261977   4.126   5.591  11.749 -0.7430 -0.6139  0.2920
13521TIP3    H161978   4.165   5.615  11.664  1.1150 -0.9378  1.0389
13521TIP3    H261979   4.046   5.643  11.753 -2.0233 -2.2416 -2.6529
13522TIP3   OH261980   0.884   3.403  11.064  0.6117  0.7917  0.0175
13522TIP3    H161981   0.963   3.374  11.109  0.6488 -0.8042 -1.0203
13522TIP3    H261982   0.911   3.411  10.972  0.0624  2.1223 -0.0354
13523TIP3   OH261983   1.623   1.908   4.419 -0.1486  0.2027 -0.4700
13523TIP3    H161984   1.532   1.938   4.411 -0.9820 -1.1822  2.9780
13523TIP3    H261985   1.672   1.986   4.445 -1.0195  0.2250  1.1757
13524TIP3   OH261986   2.060   3.886  17.006  0.4693 -0.2922 -0.2810
13524TIP3    H161987   2.004   3.957  16.974  0.7730 -0.2111 -0.6397
13524TIP3    H261988   2.087   3.915  17.094 -1.9605 -1.4187  0.8956
13525TIP3   OH261989   0.953   5.699  11.402 -0.1179 -0.0935 -0.4490
13525TIP3    H161990   0.877   5.747  11.434 -1.6408 -1.7027 -1.5782
13525TIP3    H261991   0.953   5.617  11.452  0.6904 -0.2234 -0.6496
13526TIP3   OH261992   2.261   4.917   6.452  0.2009  0.3420 -0.4928
13526TIP3    H161993   2.310   4.911   6.370 -0.9560 -0.6028 -1.1234
13526TIP3    H261994   2.253   4.827   6.482 -0.3964  0.5732  0.0538
13527TIP3   OH261995   6.423   1.705  16.208  0.0035  0.0445 -0.2361
13527TIP3    H161996   6.429   1.787  16.158  0.3416  0.3047  0.2312
13527TIP3    H261997   6.338   1.710  16.251  0.1696  0.3144  0.0693
13528TIP3   OH261998   5.831   4.858  12.695 -0.6526 -0.0709 -0.4284
13528TIP3    H161999   5.809   4.771  12.730  1.8810 -1.0606 -1.2167
13528TIP3    H262000   5.823   4.849  12.600 -2.0826  1.0661 -0.4292
13529TIP3   OH262001   6.400   0.217  14.023  0.0396 -0.3938 -0.2061
13529TIP3    H162002   6.465   0.271  13.978 -0.3462 -1.6956 -2.3819
13529TIP3    H262003   6.317   0.263  14.008 -0.1724 -1.1423 -1.3409
13530TIP3   OH262004   6.079   5.886  17.180  0.5006  0.5847  0.5116
13530TIP3    H162005   5.989   5.895  17.211  0.8958  1.9908  1.3291
13530TIP3    H262006   6.102   5.795  17.198 -0.7772  0.2131  0.2612
13531TIP3   OH262007   0.283   2.605  13.175  0.2585  0.3536  0.4142
13531TIP3    H162008   0.327   2.569  13.251 -0.4411  0.6973  0.9863
13531TIP3    H262009   0.261   2.695  13.200 -0.9249  0.1299  0.2127
13532TIP3   OH262010   5.938   5.420   0.626  0.4990 -0.0387  0.1153
13532TIP3    H162011   5.844   5.424   0.613  0.7275  0.5319 -1.5108
13532TIP3    H262012   5.969   5.507   0.601  1.4045 -0.0367  1.1861
13533TIP3   OH262013   5.901   1.877  15.981 -0.6506 -0.4524 -0.1784
13533TIP3    H162014   5.991   1.878  15.950 -0.4536 -0.1102  0.4101
13533TIP3    H262015   5.871   1.967  15.972 -0.4582 -0.2553  1.0049
13534TIP3   OH262016   1.014   5.728   4.715 -0.2854  0.4668  0.0158
13534TIP3    H162017   0.997   5.793   4.647 -1.7075 -1.2443 -1.3313
13534TIP3    H262018   1.074   5.666   4.674  0.9702  0.8408  1.2474
13535TIP3   OH262019   5.512   3.369  16.120  0.3469 -0.5388  0.1102
13535TIP3    H162020   5.433   3.394  16.168  1.4775 -2.0787  2.9151
13535TIP3    H262021   5.502   3.275  16.104  1.5610 -0.7347  0.4337
13536TIP3   OH262022   6.013   4.506  10.558  0.1948  0.1615 -0.4463
13536TIP3    H162023   6.015   4.476  10.467 -0.6915  2.2639 -1.1856
13536TIP3    H262024   5.978   4.432  10.607 -2.6005  0.2009 -2.3091
13537TIP3   OH262025   0.681   0.584   1.583 -0.0781  0.3444 -0.1318
13537TIP3    H162026   0.697   0.672   1.550 -4.5951  0.3734 -2.7004
13537TIP3    H262027   0.650   0.536   1.506  1.0121 -3.1578  1.5216
13538TIP3   OH262028   1.076   0.475   3.543  0.4192 -0.4934 -0.1002
13538TIP3    H162029   1.083   0.394   3.593  1.1617 -0.1576  0.3501
13538TIP3    H262030   1.137   0.535   3.586  1.8541 -0.5171 -2.0459
13539TIP3   OH262031   6.314   5.959   1.610 -0.0895  0.8104 -0.2804
13539TIP3    H162032   6.328   6.048   1.577  0.5246  2.2598  3.6220
13539TIP3    H262033   6.401   5.926   1.628 -0.4996  1.0592  2.2747
13540TIP3   OH262034   6.134   1.950  11.448  0.7181  0.0368  0.5077
13540TIP3    H162035   6.212   1.954  11.502  0.3781  0.7163  0.9684
13540TIP3    H262036   6.166   1.956  11.358  1.1090  2.0105  0.7454
13541TIP3   OH262037   4.929   4.239   2.248 -0.3385 -0.2179 -0.5198
13541TIP3    H162038   4.945   4.314   2.305  1.3838 -1.7456  1.1214
13541TIP3    H262039   4.836   4.244   2.226 -0.5176  1.6701  0.5899
13542TIP3   OH262040   6.554   2.929  16.839  0.0785 -0.5485  0.1687
13542TIP3    H162041   6.541   2.843  16.880 -0.2679 -1.2009 -1.2508
13542TIP3    H262042   6.648   2.944  16.845  0.1087 -0.9277  0.6592
13543TIP3   OH262043   3.004   6.355  12.701 -0.4566 -0.5538 -0.5058
13543TIP3    H162044   3.019   6.442  12.738 -2.2313  0.2309 -1.6005
13543TIP3    H262045   3.085   6.307  12.719  0.5363  1.3182  0.1025
13544TIP3   OH262046   2.559   6.542   2.605  0.2952  0.7850 -0.4856
13544TIP3    H162047   2.474   6.556   2.562 -1.1789 -4.3893  0.4461
13544TIP3    H262048   2.547   6.579   2.693  0.0018  2.5485 -1.2370
13545TIP3   OH262049   0.692   2.557   4.565 -0.0868  0.1683  0.3180
13545TIP3    H162050   0.609   2.552   4.516 -1.7383 -2.2381  3.1682
13545TIP3    H262051   0.732   2.471   4.553  0.5114  0.2833  1.4558
13546TIP3   OH262052   1.670   3.931   6.339 -0.3721 -0.2465  0.3472
13546TIP3    H162053   1.743   3.912   6.398  0.8310  2.0336 -0.3516
13546TIP3    H262054   1.618   3.996   6.386 -0.4198  0.1989 -0.3263
13547TIP3   OH262055   4.846   3.898  13.748 -0.2874  0.2398  0.2677
13547TIP3    H162056   4.918   3.846  13.712  1.8288  0.9572  3.2578
13547TIP3    H262057   4.779   3.898  13.679  2.5012 -0.5766 -2.5551
13548TIP3   OH262058   0.510   0.222   4.740 -0.1652  0.0185  0.0231
13548TIP3    H162059   0.450   0.162   4.695  0.3690 -0.9218  0.5467
13548TIP3    H262060   0.487   0.215   4.832  2.3557 -2.2621  0.5424
13549TIP3   OH262061   1.664   6.749   3.119  0.0213 -0.1456 -0.4306
13549TIP3    H162062   1.613   6.784   3.192  0.9616 -0.1775  0.2488
13549TIP3    H262063   1.617   6.670   3.093  0.1021 -0.5675  0.6535
13550TIP3   OH262064   5.346   6.292   4.903 -0.0568 -0.1802 -0.3481
13550TIP3    H162065   5.312   6.374   4.940  0.0685  0.2157 -1.1079
13550TIP3    H262066   5.278   6.227   4.923 -0.4027  0.2195 -0.2155
13551TIP3   OH262067   3.874   4.481  11.343 -0.3442  0.1783 -0.0511
13551TIP3    H162068   3.936   4.409  11.352  0.3797  0.8506  0.3792
13551TIP3    H262069   3.907   4.533  11.270  0.1879  1.1198  0.8483
13552TIP3   OH262070   1.014   0.688   5.700 -0.0923 -0.1751  0.0268
13552TIP3    H162071   1.055   0.669   5.615 -1.3694  0.7259 -0.8202
13552TIP3    H262072   1.047   0.774   5.724 -1.2083  0.4107 -0.5000
13553TIP3   OH262073   3.147   1.451  14.625  0.4392 -0.3694 -0.3924
13553TIP3    H162074   3.092   1.520  14.589  2.8635  0.8732 -1.7944
13553TIP3    H262075   3.213   1.497  14.677 -0.4535 -1.9028  2.1857
13554TIP3   OH262076   5.148   3.720   1.252 -0.2395 -0.7560 -0.1570
13554TIP3    H162077   5.209   3.790   1.227 -0.4947 -0.3553  0.3401
13554TIP3    H262078   5.162   3.710   1.346 -0.3205 -1.2645 -0.2007
13555TIP3   OH262079   2.148   1.087  10.897  0.0555  0.1122 -0.5168
13555TIP3    H162080   2.071   1.110  10.950 -0.7596 -2.4962 -0.5199
13555TIP3    H262081   2.114   1.030  10.829  2.0110 -1.0804 -0.5241
13556TIP3   OH262082   3.738   2.803  17.114 -0.2023  0.1409 -0.3850
13556TIP3    H162083   3.680   2.728  17.100 -0.0629 -0.1539  0.6042
13556TIP3    H262084   3.719   2.862  17.041 -1.7449  0.0486 -0.0644
13557TIP3   OH262085   4.993   5.840   4.097  0.4668  0.2599  0.6420
13557TIP3    H162086   5.058   5.892   4.145  2.2124 -1.4645  0.1973
13557TIP3    H262087   5.035   5.755   4.083 -1.4342 -0.5007 -0.7098
13558TIP3   OH262088   5.391   0.053  13.352 -0.5007 -0.2833  0.2805
13558TIP3    H162089   5.462   0.003  13.312  0.5295  1.5137 -0.1657
13558TIP3    H262090   5.434   0.118  13.407 -1.7737  0.9692 -0.1429
13559TIP3   OH262091   1.752   5.826   3.842  0.4533  0.2866 -0.0557
13559TIP3    H162092   1.822   5.791   3.896  0.7467  0.4829 -0.3097
13559TIP3    H262093   1.686   5.756   3.840  0.2742  0.4225  0.8585
13560TIP3   OH262094   3.496   0.588  11.280 -0.6419 -0.4154 -0.4294
13560TIP3    H162095   3.569   0.635  11.321 -0.9955  0.1181 -0.4060
13560TIP3    H262096   3.461   0.649  11.215 -1.9532 -0.1229  0.5281
13561TIP3   OH262097   2.156   5.670   2.361  0.4446  0.2584  0.0636
13561TIP3    H162098   2.221   5.600   2.357  0.1241 -0.0263 -0.1383
13561TIP3    H262099   2.177   5.717   2.442  1.0218  0.2852 -0.0986
13562TIP3   OH262100   1.110   3.296   0.231  0.1515 -0.6208  0.0469
13562TIP3    H162101   1.127   3.296   0.137 -0.4553  0.2562 -0.0731
13562TIP3    H262102   1.134   3.385   0.259  0.8239 -1.0361  0.8161
13563TIP3   OH262103   2.410   2.114  15.402  0.0856  0.2687 -0.0924
13563TIP3    H162104   2.433   2.088  15.313  0.6499  0.2401  0.0545
13563TIP3    H262105   2.469   2.063  15.458  0.0310  0.5996  0.2746
13564TIP3   OH262106   0.456   3.642   0.315  0.0153 -0.5310  0.2277
13564TIP3    H162107   0.476   3.549   0.303  1.6462 -0.2503  0.5853
13564TIP3    H262108   0.393   3.662   0.246  0.0822 -1.7770 -0.2091
13565TIP3   OH262109   6.286   6.548   1.740 -0.0336  0.0839  0.7571
13565TIP3    H162110   6.213   6.529   1.682  0.4776  1.7093 -0.4459
13565TIP3    H262111   6.364   6.526   1.689  0.3647 -0.7620  1.7009
13566TIP3   OH262112   0.810   2.067  12.369  0.1299  0.3625  0.8327
13566TIP3    H162113   0.716   2.055  12.382  0.2381 -1.7152 -0.1678
13566TIP3    H262114   0.820   2.088  12.277  0.9190 -3.0632  0.0734
13567TIP3   OH262115   2.234   3.773  12.015 -0.1318 -0.5447  0.0554
13567TIP3    H162116   2.219   3.686  11.979  1.3569 -0.5958 -0.4776
13567TIP3    H262117   2.323   3.770  12.050  0.2251  0.9653 -0.6487
13568TIP3   OH262118   0.113   2.198   4.649 -0.4225 -0.1350  0.0099
13568TIP3    H162119   0.134   2.276   4.701 -0.1917 -0.7459  0.8462
13568TIP3    H262120   0.191   2.185   4.595  0.6282 -1.2854  1.7432
13569TIP3   OH262121   0.430   3.562   1.426 -0.1288 -0.1356  0.2571
13569TIP3    H162122   0.367   3.564   1.498  1.4214  0.1670  1.6228
13569TIP3    H262123   0.515   3.547   1.468  0.6612 -1.0391 -1.5994
13570TIP3   OH262124   6.024   6.080   1.021 -0.4818 -0.2009  0.4502
13570TIP3    H162125   5.947   6.130   0.994 -0.4394  0.3797  1.3913
13570TIP3    H262126   6.096   6.117   0.970 -1.0294 -1.6374 -1.4323
13571TIP3   OH262127   3.373   5.554   0.637 -0.0550  0.0290  0.1235
13571TIP3    H162128   3.380   5.561   0.732  1.1077  0.1946  0.0386
13571TIP3    H262129   3.318   5.478   0.622  0.3455 -0.4236  0.9311
13572TIP3   OH262130   2.615   1.761  12.984  0.3253  0.1027 -0.7764
13572TIP3    H162131   2.647   1.673  12.966  0.6614 -0.0257  0.4285
13572TIP3    H262132   2.531   1.766  12.940 -0.0194 -1.0583 -0.2588
13573TIP3   OH262133   6.454   3.587  11.893 -0.0338  0.1772 -0.4464
13573TIP3    H162134   6.466   3.681  11.906 -0.2602  0.0595  0.7157
13573TIP3    H262135   6.364   3.578  11.862  0.0736  0.3674 -0.8118
13574TIP3   OH262136   2.398   5.320  15.657  0.3584 -0.3464 -0.0010
13574TIP3    H162137   2.389   5.268  15.736 -0.4178  0.3531  0.3858
13574TIP3    H262138   2.330   5.285  15.598  0.8456 -0.7775 -0.3100
13575TIP3   OH262139   3.678   5.045   4.169  0.3380 -0.7301 -0.1029
13575TIP3    H162140   3.601   5.009   4.214  0.7729 -1.1911  0.2745
13575TIP3    H262141   3.648   5.130   4.134 -0.2017 -0.6889  0.4542
13576TIP3   OH262142   1.665   0.230   3.398 -0.5245 -0.1238  0.1107
13576TIP3    H162143   1.732   0.239   3.330  0.5174 -1.8756  0.8756
13576TIP3    H262144   1.665   0.315   3.443  0.8426  0.0564 -0.2086
13577TIP3   OH262145   1.495   2.148   5.622 -0.2316 -0.1206 -0.4810
13577TIP3    H162146   1.573   2.176   5.670 -0.9455 -0.0024  0.6334
13577TIP3    H262147   1.529   2.096   5.549  1.0521  2.7809 -1.9959
13578TIP3   OH262148   3.932   4.897  15.121  0.0511 -0.1459 -0.1973
13578TIP3    H162149   3.917   4.803  15.132  0.2110 -0.1522 -0.0317
13578TIP3    H262150   4.024   4.910  15.145 -0.4058  0.2973  1.3823
13579TIP3   OH262151   4.334   2.104  11.988 -0.5279  0.4363 -0.1367
13579TIP3    H162152   4.277   2.043  12.035  0.1130 -0.8568 -0.9998
13579TIP3    H262153   4.318   2.084  11.895  1.6874 -0.3119 -0.3890
13580TIP3   OH262154   2.255   1.228  12.792 -0.3532 -0.1270  0.0881
13580TIP3    H162155   2.270   1.133  12.789 -1.6480 -0.3915  1.4745
13580TIP3    H262156   2.232   1.252  12.703 -1.5807 -1.3826  0.0573
13581TIP3   OH262157   0.848   4.216   5.187 -0.0907  0.5709  0.0905
13581TIP3    H162158   0.834   4.151   5.118 -0.3650 -1.5622  2.0773
13581TIP3    H262159   0.941   4.207   5.209 -0.1488  0.7909  0.4295
13582TIP3   OH262160   1.746   1.973  16.255 -0.3153  0.1302 -0.0291
13582TIP3    H162161   1.665   2.003  16.297 -0.7841 -0.5543 -0.4386
13582TIP3    H262162   1.775   2.048  16.202 -0.5349  0.4677  0.3258
13583TIP3   OH262163   5.008   3.583   3.785 -0.1752  0.3473  0.3872
13583TIP3    H162164   4.927   3.561   3.739  0.8553 -1.6477 -0.5447
13583TIP3    H262165   5.067   3.510   3.765  2.6052  2.8177 -0.7601
13584TIP3   OH262166   6.287   1.766   4.878 -0.3685  0.1992  0.0806
13584TIP3    H162167   6.312   1.805   4.794 -1.1742  0.4333 -0.0462
13584TIP3    H262168   6.200   1.800   4.896  0.3433  1.2381  1.6860
13585TIP3   OH262169   3.927   1.093  11.858 -0.1087 -0.4226 -0.2038
13585TIP3    H162170   3.949   1.172  11.907  0.4067 -1.8443  1.9147
13585TIP3    H262171   3.832   1.085  11.866 -0.2249  0.2944 -0.8997
13586TIP3   OH262172   1.990   0.117  14.948  0.6915  0.2191  0.7430
13586TIP3    H162173   2.061   0.165  14.906  0.6378  1.3865  1.9712
13586TIP3    H262174   1.994   0.143  15.040 -0.9235 -0.1909  0.9434
13587TIP3   OH262175   1.110   4.149  12.058  0.0877 -0.0208  0.6464
13587TIP3    H162176   1.065   4.068  12.083  0.2060 -0.3525 -0.1993
13587TIP3    H262177   1.187   4.119  12.010  0.3285  0.5880  0.6559
13588TIP3   OH262178   4.447   2.464  13.219 -0.1408  0.3070 -0.1597
13588TIP3    H162179   4.374   2.412  13.184 -0.9084  1.4528 -0.2943
13588TIP3    H262180   4.465   2.528  13.150  0.8629  0.1530 -0.0389
13589TIP3   OH262181   6.418   6.128  16.291  0.0327  0.1639  0.0985
13589TIP3    H162182   6.506   6.105  16.319  0.1365 -2.4781 -2.2046
13589TIP3    H262183   6.364   6.054  16.319 -0.8318  0.1980 -1.4141
13590TIP3   OH262184   2.661   1.840  14.342  0.0064 -0.7409 -0.0938
13590TIP3    H162185   2.619   1.921  14.371 -0.3673 -1.0419  0.2146
13590TIP3    H262186   2.642   1.835  14.249  1.5697  0.4486 -0.4842
13591TIP3   OH262187   1.525   0.517  13.309  0.1134 -0.6056 -0.6587
13591TIP3    H162188   1.603   0.538  13.360 -0.7082 -0.8334  0.7035
13591TIP3    H262189   1.545   0.550  13.221  0.8943  1.2998  0.1921
13592TIP3   OH262190   4.504   5.381  11.844 -0.4001  0.1988  0.3071
13592TIP3    H162191   4.592   5.366  11.879 -1.0457 -1.9837  1.0940
13592TIP3    H262192   4.446   5.335  11.905 -1.8826 -0.3897 -1.5118
13593TIP3   OH262193   1.269   0.398   5.643  0.2828  0.7237 -0.3339
13593TIP3    H162194   1.337   0.454   5.681  0.0245  1.2090 -0.5784
13593TIP3    H262195   1.230   0.451   5.574  1.3752 -0.5005 -1.9127
13594TIP3   OH262196   2.204   6.542  13.172  0.2955 -0.4564 -0.8057
13594TIP3    H162197   2.202   6.449  13.192 -0.0378 -0.0319  1.1910
13594TIP3    H262198   2.112   6.565  13.157  0.4669 -0.6190 -2.1841
13595TIP3   OH262199   0.806   3.749   6.383  0.4438 -0.0724  0.0487
13595TIP3    H162200   0.844   3.662   6.372  2.8104  1.0079 -0.5550
13595TIP3    H262201   0.725   3.746   6.332 -0.0088 -2.2116  0.8283
13596TIP3   OH262202   3.861   2.568   5.692 -0.2430 -0.4842  0.1144
13596TIP3    H162203   3.796   2.554   5.761 -1.0895  0.4145 -0.4925
13596TIP3    H262204   3.890   2.658   5.704 -0.1371 -0.4343 -0.5021
13597TIP3   OH262205   1.470   3.885  11.525 -0.1306  0.4413  0.0675
13597TIP3    H162206   1.512   3.884  11.439  0.3895 -1.2897  0.3258
13597TIP3    H262207   1.517   3.819  11.576 -1.6678  0.0987  1.0867
13598TIP3   OH262208   2.554   1.600  13.909 -0.1944 -0.1095 -0.0222
13598TIP3    H162209   2.503   1.677  13.934  1.3709  0.6465  0.9162
13598TIP3    H262210   2.576   1.558  13.992  1.6828  0.2235 -0.3304
13599TIP3   OH262211   3.797   2.813   6.460 -0.1334  0.2509  0.1516
13599TIP3    H162212   3.745   2.782   6.534  0.6152  1.6847  1.3044
13599TIP3    H262213   3.853   2.881   6.497 -0.1556  1.4024 -1.8652
13600TIP3   OH262214   3.505   0.035   2.103 -0.5303 -0.6004 -0.2817
13600TIP3    H162215   3.419  -0.006   2.089 -1.3957  1.2981 -0.7010
13600TIP3    H262216   3.520   0.027   2.197 -1.4928 -0.3175 -0.0938
13601TIP3   OH262217   1.873   4.550  14.275 -0.3888 -0.4531  0.1923
13601TIP3    H162218   1.859   4.560  14.181  1.8345  1.9057  0.0507
13601TIP3    H262219   1.796   4.503  14.306 -0.4520 -2.6438 -3.0291
13602TIP3   OH262220   0.829   2.327  15.144  0.1638 -0.2237 -0.3878
13602TIP3    H162221   0.807   2.250  15.091  2.3413 -0.5172 -0.9153
13602TIP3    H262222   0.822   2.296  15.235  2.9232 -1.6516 -0.6083
13603TIP3   OH262223   5.779   6.623  12.425  0.3733  0.1660 -0.0198
13603TIP3    H162224   5.715   6.628  12.354 -0.7353  4.9421  1.2015
13603TIP3    H262225   5.730   6.587  12.499  0.6023 -1.4211 -0.6190
13604TIP3   OH262226   3.337   6.534   2.274 -0.2829  0.1411  0.8345
13604TIP3    H162227   3.374   6.620   2.294 -0.8260 -0.3563  4.3026
13604TIP3    H262228   3.252   6.534   2.318 -1.5415 -1.1535 -1.5206
13605TIP3   OH262229   1.935   2.466   0.214 -0.1730  0.0443 -0.3473
13605TIP3    H162230   1.989   2.538   0.246 -1.2576  0.6551  0.1215
13605TIP3    H262231   1.992   2.420   0.152  0.6229  1.1232 -0.4378
13606TIP3   OH262232   5.369   1.266   6.575 -0.5965  0.6208  0.3917
13606TIP3    H162233   5.464   1.272   6.584 -0.1688  0.2472 -3.0328
13606TIP3    H262234   5.351   1.172   6.572 -0.6897  0.6640 -1.6388
13607TIP3   OH262235   2.547   4.594  17.235  0.0895 -0.1308  0.0627
13607TIP3    H162236   2.451   4.592  17.229  0.0183  0.6088  0.7495
13607TIP3    H262237   2.568   4.532  17.305  0.3205 -2.4116 -1.9943
13608TIP3   OH262238   4.285   4.217  14.628  0.3923  0.4068 -0.4348
13608TIP3    H162239   4.279   4.130  14.588  0.4426  0.1309  0.1616
13608TIP3    H262240   4.331   4.270  14.563  0.3548 -0.0088 -0.8018
13609TIP3   OH262241   5.990   5.904  12.210  0.0346  0.3980 -0.4049
13609TIP3    H162242   6.038   5.866  12.137  0.2261 -1.3881  0.6133
13609TIP3    H262243   5.906   5.859  12.210 -0.0058  0.4546  0.3926
13610TIP3   OH262244   4.497   2.096  15.920 -0.1015 -0.0516  0.4792
13610TIP3    H162245   4.421   2.154  15.930 -0.6064 -0.5421 -0.4320
13610TIP3    H262246   4.488   2.059  15.832  1.4875  0.2887  0.1497
13611TIP3   OH262247   2.538   6.341   5.030  0.5203 -0.5314 -0.4560
13611TIP3    H162248   2.533   6.419   5.085 -0.2424 -1.1256  0.3196
13611TIP3    H262249   2.447   6.319   5.010  0.7612 -0.7751 -1.3159
13612TIP3   OH262250   0.098   0.358  13.506  0.3627  0.6017 -0.2083
13612TIP3    H162251   0.074   0.311  13.585 -0.7236  0.6919 -0.4798
13612TIP3    H262252   0.035   0.430  13.500  1.7221  1.8486 -0.0299
13613TIP3   OH262253   0.964   3.223  16.541  0.1920  0.5082 -0.3231
13613TIP3    H162254   1.030   3.289  16.521 -0.0113  0.2360 -1.9180
13613TIP3    H262255   0.974   3.157  16.473  0.3842 -1.1114  1.2620
13614TIP3   OH262256   1.048   3.608  11.777 -0.0027 -0.0400  0.1588
13614TIP3    H162257   1.093   3.524  11.790  0.9057  0.6848  1.8657
13614TIP3    H262258   0.955   3.587  11.785  0.2076 -0.9197  0.4040
13615TIP3   OH262259   3.424   2.231  12.922 -0.4226  0.0814  0.0153
13615TIP3    H162260   3.462   2.277  12.847 -1.3037  1.3282  0.3102
13615TIP3    H262261   3.428   2.138  12.898 -1.1281  0.4973 -1.7824
13616TIP3   OH262262   2.570   3.903  11.309 -0.5157  0.5117 -0.0756
13616TIP3    H162263   2.555   3.813  11.336  1.0300  0.6228  1.2381
13616TIP3    H262264   2.638   3.897  11.242 -1.6090  0.5795 -1.2218
13617TIP3   OH262265   1.855   0.365   4.049  0.6159  0.4779  0.1256
13617TIP3    H162266   1.772   0.333   4.083  1.0286 -0.5047  0.2324
13617TIP3    H262267   1.835   0.398   3.961 -0.1367  1.4927  0.6782
13618TIP3   OH262268   0.938   1.074   5.568 -0.3322 -0.4403 -0.2221
13618TIP3    H162269   0.877   1.141   5.598  0.3418  0.8664 -1.6530
13618TIP3    H262270   1.006   1.071   5.636 -1.0945 -0.6744  0.5275
13619TIP3   OH262271   1.214   4.539   0.177 -0.2933 -0.2662 -0.0373
13619TIP3    H162272   1.264   4.615   0.147  0.0374 -0.3671  0.2543
13619TIP3    H262273   1.174   4.503   0.098  0.2818 -0.3214 -0.3013
13620TIP3   OH262274   2.732   2.927   5.556 -0.1092  0.0405 -0.3590
13620TIP3    H162275   2.654   2.884   5.591  0.0131  0.8707  0.9361
13620TIP3    H262276   2.805   2.878   5.593  0.0225  1.0478  0.7299
13621TIP3   OH262277   5.876   2.462  11.553 -0.0852 -0.3220  0.0712
13621TIP3    H162278   5.785   2.441  11.530 -0.1219 -0.6207  0.4789
13621TIP3    H262279   5.901   2.394  11.615  0.9517 -1.1736 -1.2579
13622TIP3   OH262280   1.862   2.860   4.323 -0.0119 -0.3633 -0.1402
13622TIP3    H162281   1.931   2.874   4.259  0.1935 -1.6184 -0.1908
13622TIP3    H262282   1.793   2.814   4.275 -0.0650 -0.8666  0.4105
13623TIP3   OH262283   3.693   1.317   1.566 -0.3412  0.0741  0.6917
13623TIP3    H162284   3.775   1.271   1.551 -0.3360 -0.6890  2.8797
13623TIP3    H262285   3.704   1.402   1.523  1.7734  0.1713  1.4076
13624TIP3   OH262286   0.426   1.434   0.757 -0.2543 -0.7287 -0.1750
13624TIP3    H162287   0.491   1.502   0.770 -2.0924  1.1010 -0.2772
13624TIP3    H262288   0.477   1.354   0.741  1.9309  0.4242  0.8652
13625TIP3   OH262289   6.234   1.386   2.493 -0.4380 -0.0951  0.4394
13625TIP3    H162290   6.171   1.428   2.435 -1.0778 -1.5339  0.0812
13625TIP3    H262291   6.185   1.371   2.574  0.1363  0.9322  0.9759
13626TIP3   OH262292   0.247   1.270   1.860 -0.3472 -0.1419 -0.4342
13626TIP3    H162293   0.168   1.301   1.905 -0.3597 -0.4918 -0.2179
13626TIP3    H262294   0.242   1.312   1.774  0.3184  1.5222  0.3087
13627TIP3   OH262295   5.810   0.274   4.171 -0.3626 -0.4021  0.2885
13627TIP3    H162296   5.813   0.366   4.198  0.0045 -0.7607  1.5002
13627TIP3    H262297   5.877   0.231   4.224 -1.7106 -1.6828  1.0002
13628TIP3   OH262298   2.581   3.066   2.842 -0.9200  0.2690  0.0212
13628TIP3    H162299   2.584   3.081   2.936 -0.4182  0.2827  0.0052
13628TIP3    H262300   2.536   3.143   2.807  1.3488  1.6442 -0.0311
13629TIP3   OH262301   4.707   2.889   3.925  0.4956 -0.1418 -0.2744
13629TIP3    H162302   4.674   2.855   4.009 -1.0177  1.4107 -0.2229
13629TIP3    H262303   4.666   2.974   3.916  0.6790 -0.2795 -2.6086
13630TIP3   OH262304   4.837   6.590   1.020 -0.1946  0.3933  0.0641
13630TIP3    H162305   4.748   6.627   1.024  0.7663  2.6405  1.6035
13630TIP3    H262306   4.883   6.647   0.958  0.4692 -0.1128  0.0934
13631TIP3   OH262307   4.954   0.768   0.897 -0.7850 -0.3817  0.4812
13631TIP3    H162308   4.962   0.700   0.963  1.7629  0.4061  1.0077
13631TIP3    H262309   4.946   0.850   0.946  1.9843  0.3046 -0.1410
13632TIP3   OH262310   1.787   1.124  14.232 -0.3322 -0.0045 -0.2349
13632TIP3    H162311   1.867   1.082  14.265 -0.6044 -0.9198 -0.7120
13632TIP3    H262312   1.717   1.085  14.284 -0.5254  0.3686 -0.2170
13633TIP3   OH262313   2.704   2.329   6.483  0.1317 -0.6163 -0.3699
13633TIP3    H162314   2.669   2.386   6.552 -0.6245 -0.7936 -0.6067
13633TIP3    H262315   2.632   2.270   6.463  0.0002  0.1029 -2.0615
13634TIP3   OH262316   6.287   5.770  11.326  0.4591 -0.0352  0.3417
13634TIP3    H162317   6.193   5.763  11.309  0.5538  0.5774 -0.4763
13634TIP3    H262318   6.328   5.731  11.248  0.8922  1.6705 -0.3109
13635TIP3   OH262319   3.920   6.540  15.569  0.0236 -0.2547  0.0243
13635TIP3    H162320   3.831   6.571  15.553  0.7718  1.2299 -1.4734
13635TIP3    H262321   3.967   6.617  15.603  1.2173 -0.4402 -1.1377
13636TIP3   OH262322   5.167   6.383  11.274  0.8183 -0.4229 -0.7496
13636TIP3    H162323   5.261   6.397  11.282  0.7600  2.6282 -4.1058
13636TIP3    H262324   5.137   6.369  11.364  4.2898 -0.2684  0.5027
13637TIP3   OH262325   0.697   2.799   4.394  0.0621  0.0373 -0.1771
13637TIP3    H162326   0.712   2.727   4.333  3.1415  0.2192  0.3119
13637TIP3    H262327   0.715   2.762   4.481  2.3835  1.5710  0.0141
13638TIP3   OH262328   5.686   5.015   3.857 -0.0675  0.3543  0.0229
13638TIP3    H162329   5.621   5.077   3.892  0.0254  0.2268  0.4267
13638TIP3    H262330   5.696   4.949   3.926  0.7358  0.5512  0.1050
13639TIP3   OH262331   6.741   5.499   4.327  0.4957  0.0696 -0.8836
13639TIP3    H162332   6.645   5.506   4.321  0.7143  1.8336 -3.3976
13639TIP3    H262333   6.771   5.589   4.337  1.8797 -0.5340  0.5224
13640TIP3   OH262334   4.548   4.844   2.579 -0.1846  0.2227 -0.2513
13640TIP3    H162335   4.468   4.863   2.530 -0.3242 -0.8723 -0.4628
13640TIP3    H262336   4.517   4.811   2.664  0.0490  1.1677  0.1986
13641TIP3   OH262337   5.328   4.598  10.870  0.7049 -0.1109  0.3681
13641TIP3    H162338   5.309   4.508  10.898 -0.4998  0.2158  0.6491
13641TIP3    H262339   5.405   4.590  10.815 -1.2687 -1.7620 -2.2624
13642TIP3   OH262340   2.035   1.389   2.253 -0.0501 -0.0101 -0.6732
13642TIP3    H162341   1.975   1.435   2.193  0.1875 -0.9029 -1.6052
13642TIP3    H262342   2.022   1.296   2.232  2.4185 -0.1639 -1.6198
13643TIP3   OH262343   3.170   1.520  13.968  0.0022  0.1414 -0.2636
13643TIP3    H162344   3.163   1.604  13.925  0.0337  1.5644  2.3923
13643TIP3    H262345   3.118   1.529  14.048 -1.1502 -2.8274 -0.6045
13644TIP3   OH262346   0.596   6.237   1.622 -0.4908  0.3339  0.4066
13644TIP3    H162347   0.664   6.305   1.621 -0.5736  0.4442  1.6191
13644TIP3    H262348   0.584   6.217   1.714 -2.8753  1.0635  0.2817
13645TIP3   OH262349   4.118   4.601  12.767 -0.1082 -0.7176 -0.2065
13645TIP3    H162350   4.166   4.565  12.692  0.3592  0.5876 -0.5325
13645TIP3    H262351   4.049   4.654  12.728  0.7742  0.8031  0.2867
13646TIP3   OH262352   4.482   0.292  12.319  0.4057  0.1068  0.1947
13646TIP3    H162353   4.411   0.256  12.372 -0.3271  0.6493 -0.3983
13646TIP3    H262354   4.562   0.256  12.358 -0.2034 -0.6956  0.7279
13647TIP3   OH262355   3.321   4.830  17.057 -0.2189 -0.2119  0.2291
13647TIP3    H162356   3.244   4.888  17.053  1.7720  2.6473  1.3920
13647TIP3    H262357   3.325   4.791  16.970 -4.3191 -2.2888  0.8378
13648TIP3   OH262358   2.254   6.651   4.783 -0.6407  0.1221 -0.7189
13648TIP3    H162359   2.195   6.721   4.756 -0.6624  0.8863  1.2556
13648TIP3    H262360   2.198   6.589   4.830 -0.1532  0.1344 -0.1090
13649TIP3   OH262361   6.685   5.952  15.208 -0.0844 -0.3807 -0.5137
13649TIP3    H162362   6.698   5.898  15.131  0.9762  0.1183 -0.6945
13649TIP3    H262363   6.602   5.997  15.193 -1.8604 -3.2090  0.4035
13650TIP3   OH262364   2.976   5.931  13.707 -0.0327  0.0037  0.1089
13650TIP3    H162365   3.010   5.846  13.677  1.7106  0.6111  0.2942
13650TIP3    H262366   2.980   5.987  13.629  0.7106  0.4702  0.4800
13651TIP3   OH262367   0.362   0.558  11.093 -0.2536  0.6140  0.3104
13651TIP3    H162368   0.390   0.482  11.042  0.1628  1.6240 -0.9926
13651TIP3    H262369   0.300   0.604  11.035  1.2957  2.5373  0.1117
13652TIP3   OH262370   3.358   5.815  10.728  0.2667  0.1557 -0.0432
13652TIP3    H162371   3.358   5.818  10.633  0.4755 -0.0943 -0.0526
13652TIP3    H262372   3.346   5.722  10.750 -0.0330  0.2437  0.1741
13653TIP3   OH262373   1.796   6.366   3.580 -0.1771 -0.0340 -0.0882
13653TIP3    H162374   1.702   6.354   3.591 -0.2327 -0.1017 -0.6116
13653TIP3    H262375   1.831   6.277   3.574 -0.3090  0.0010 -1.7024
13654TIP3   OH262376   1.437   1.987   3.621 -0.7064  0.2156  0.2062
13654TIP3    H162377   1.402   1.933   3.550 -1.1863  2.5386 -1.3838
13654TIP3    H262378   1.532   1.989   3.605 -0.5861 -0.8079  0.7532
13655TIP3   OH262379   6.667   0.199   0.241 -0.0943  0.1058  1.0293
13655TIP3    H162380   6.604   0.154   0.298 -0.6448 -0.7821 -0.2491
13655TIP3    H262381   6.752   0.163   0.267 -0.2197  0.5488  2.0617
13656TIP3   OH262382   4.670   3.723  16.744  0.2915  0.1690  0.1853
13656TIP3    H162383   4.662   3.777  16.822 -0.4146  1.3420 -0.6754
13656TIP3    H262384   4.758   3.686  16.749  0.7800  1.4027  0.7995
13657TIP3   OH262385   6.347   6.694   5.735  0.5456  0.2940 -0.3311
13657TIP3    H162386   6.415   6.637   5.700  0.2796 -0.8655  0.9654
13657TIP3    H262387   6.377   6.716   5.824  0.2235  1.4705 -0.5017
13658TIP3   OH262388   5.419   1.262  12.199  0.3456 -1.2132 -0.1947
13658TIP3    H162389   5.509   1.281  12.173 -0.2769  0.9377 -0.9289
13658TIP3    H262390   5.411   1.167  12.192  2.2093 -1.3167 -1.2751
13659TIP3   OH262391   4.266   6.496  13.866  0.1790 -0.4182  0.0697
13659TIP3    H162392   4.342   6.477  13.810 -1.7038 -2.0176 -1.9991
13659TIP3    H262393   4.258   6.592  13.863  2.1887 -0.2133  0.4403
13660TIP3   OH262394   3.840   1.119  16.607  0.3050 -0.2138 -0.2539
13660TIP3    H162395   3.845   1.214  16.608  1.4378 -0.2615 -0.4975
13660TIP3    H262396   3.852   1.092  16.698 -0.9595 -0.0816 -0.0511
13661TIP3   OH262397   6.020   3.780  13.877 -0.0728 -0.0342 -0.4775
13661TIP3    H162398   6.066   3.861  13.857 -0.2009  0.4649  1.1866
13661TIP3    H262399   6.069   3.741  13.949 -0.6341 -0.9052 -0.5494
13662TIP3   OH262400   0.676   2.834   5.335 -0.5673  0.1875  0.1490
13662TIP3    H162401   0.630   2.752   5.352 -3.6631  2.0260  0.9029
13662TIP3    H262402   0.680   2.840   5.239 -0.3885 -0.7771  0.0919
13663TIP3   OH262403   2.620   1.046  16.736  0.1535  0.0876 -0.0702
13663TIP3    H162404   2.541   1.023  16.687 -0.7549  2.8428 -0.0022
13663TIP3    H262405   2.689   1.050  16.669 -0.1784 -0.3979 -0.4422
13664TIP3   OH262406   4.635   3.272   2.145  0.0996  0.1934  0.3167
13664TIP3    H162407   4.667   3.318   2.068  0.2362 -0.1198  0.1840
13664TIP3    H262408   4.630   3.339   2.213  0.8158  0.2952  0.2745
13665TIP3   OH262409   4.093   6.054   2.414 -0.1480  0.0835 -0.2744
13665TIP3    H162410   4.055   6.131   2.371  1.3120  1.4269  0.7777
13665TIP3    H262411   4.100   5.989   2.344 -0.0093  1.4163 -1.5325
13666TIP3   OH262412   3.469   5.150  11.483 -0.1422  0.1912 -0.2406
13666TIP3    H162413   3.559   5.134  11.456  0.8723  0.6472  2.6391
13666TIP3    H262414   3.432   5.063  11.495 -0.4199 -0.0062 -2.3947
13667TIP3   OH262415   3.321   0.030  16.517 -0.2486  0.8860 -0.6864
13667TIP3    H162416   3.400  -0.023  16.506 -0.8442 -0.7155  2.0326
13667TIP3    H262417   3.340   0.086  16.593 -0.8260  2.2677 -1.5455
13668TIP3   OH262418   4.648   4.579  12.583  0.0938  0.1996 -0.2136
13668TIP3    H162419   4.688   4.665  12.594 -1.6682  1.1069 -0.7793
13668TIP3    H262420   4.566   4.585  12.631 -0.5561 -0.8111 -1.1868
13669TIP3   OH262421   3.293   1.530   4.730 -0.0672  0.3199 -0.5221
13669TIP3    H162422   3.255   1.618   4.737  1.2021  0.9476 -1.3584
13669TIP3    H262423   3.351   1.522   4.806 -1.5487 -0.5039  0.5572
13670TIP3   OH262424   2.895   3.026   1.874  0.4625 -1.0559  0.1702
13670TIP3    H162425   2.906   3.089   1.945  0.1180 -0.8794  0.0693
13670TIP3    H262426   2.841   3.072   1.809  0.8550 -1.1794 -0.2494
13671TIP3   OH262427   3.534   3.675  12.764 -0.1820 -0.2521  0.3100
13671TIP3    H162428   3.538   3.617  12.688  0.7621 -0.6609  0.6683
13671TIP3    H262429   3.606   3.736  12.752  0.2847 -0.6311  1.1278
13672TIP3   OH262430   2.205   2.746  10.782 -0.3472  0.0660  0.7415
13672TIP3    H162431   2.159   2.682  10.836  1.1278  0.1963  2.2029
13672TIP3    H262432   2.140   2.775  10.718 -1.0816 -2.7544  0.1585
13673TIP3   OH262433   5.958   0.748   2.984  0.1335  0.1204 -0.4367
13673TIP3    H162434   5.926   0.834   2.956 -0.4597 -0.3268 -1.1170
13673TIP3    H262435   6.045   0.767   3.021  0.0691  0.9936 -0.7118
13674TIP3   OH262436   2.756   0.713  12.396 -0.3864  0.1507 -0.6867
13674TIP3    H162437   2.785   0.795  12.436  0.1219  0.2956 -1.3501
13674TIP3    H262438   2.747   0.734  12.303 -3.0170  0.2247 -0.4524
13675TIP3   OH262439   5.921   6.594   5.543 -0.4731  0.1421 -0.3297
13675TIP3    H162440   5.994   6.543   5.508 -0.3073  0.4342 -0.4135
13675TIP3    H262441   5.962   6.671   5.582 -0.7252  0.2383 -0.2552
13676TIP3   OH262442   2.089   3.127   5.305  0.1240 -0.0570 -0.2029
13676TIP3    H162443   2.083   3.071   5.383  1.1483 -1.1154 -0.8738
13676TIP3    H262444   1.999   3.157   5.290 -0.5444 -1.9999 -0.1747
13677TIP3   OH262445   6.619   1.130   1.703  0.2550 -0.1382 -0.5337
13677TIP3    H162446   6.587   1.045   1.674  0.5096  0.1632 -1.7565
13677TIP3    H262447   6.541   1.186   1.703  0.0795 -0.3834  0.3178
13678TIP3   OH262448   6.248   0.554   0.387  0.2337 -0.0783  0.3903
13678TIP3    H162449   6.304   0.481   0.362 -0.1784 -0.8013  1.5311
13678TIP3    H262450   6.207   0.527   0.469 -2.3505  0.1129 -0.7578
13679TIP3   OH262451   0.067   0.617  16.217  0.5162 -0.6148  0.1889
13679TIP3    H162452   0.024   0.695  16.253  1.4726 -0.2740  0.6049
13679TIP3    H262453  -0.005   0.561  16.190 -0.1778  0.9522 -1.2986
13680TIP3   OH262454   4.327   0.327  15.930  0.2553  0.5442 -0.0723
13680TIP3    H162455   4.380   0.287  15.999  0.6450  0.3628 -0.4773
13680TIP3    H262456   4.343   0.421  15.940 -0.0405  0.5536  0.3679
13681TIP3   OH262457   3.688   0.222   5.693 -0.4724  0.1273  0.1780
13681TIP3    H162458   3.756   0.273   5.649  0.0344  0.2638  1.1117
13681TIP3    H262459   3.606   0.264   5.667 -0.1616  0.3630 -0.4272
13682TIP3   OH262460   6.000   4.145  14.988 -0.6617 -0.1409  0.1653
13682TIP3    H162461   5.920   4.115  14.946 -1.2990 -0.7210  1.7361
13682TIP3    H262462   6.070   4.121  14.927 -1.4169 -2.3971  0.1179
13683TIP3   OH262463   4.967   2.550   2.196 -0.6498 -0.1850 -0.1441
13683TIP3    H162464   5.048   2.521   2.153 -0.3697  1.1699 -0.5653
13683TIP3    H262465   4.903   2.557   2.125 -0.7494  0.0811 -0.0311
13684TIP3   OH262466   1.398   1.143  15.018  0.0924 -0.4147 -0.1149
13684TIP3    H162467   1.307   1.152  15.044  0.0196 -0.5662 -0.3175
13684TIP3    H262468   1.407   1.202  14.943 -0.0576 -1.0417 -0.6318
13685TIP3   OH262469   2.585   5.725   6.014 -0.0027 -0.2733 -0.6408
13685TIP3    H162470   2.615   5.673   6.089 -1.8393 -2.1408 -1.1452
13685TIP3    H262471   2.657   5.785   5.996  0.7118 -0.1878  2.2521
13686TIP3   OH262472   1.296   1.670  17.105  0.2848  0.0620  0.1392
13686TIP3    H162473   1.340   1.737  17.053 -0.6319  1.3475  0.9758
13686TIP3    H262474   1.219   1.646  17.054  0.5055 -0.2046 -0.0695
13687TIP3   OH262475   2.671   0.507  17.093  0.6886  0.4590 -0.2078
13687TIP3    H162476   2.653   0.438  17.157 -0.7351  0.9115 -0.1017
13687TIP3    H262477   2.622   0.583  17.126  3.0803  1.8402  0.2510
13688TIP3   OH262478   4.146   6.132   1.550  0.0017 -0.2069  1.0435
13688TIP3    H162479   4.173   6.052   1.595  1.1908  0.0371  0.7909
13688TIP3    H262480   4.085   6.103   1.483  1.7745 -1.1391 -0.2083
13689TIP3   OH262481   0.690   4.455  13.284  0.3857  0.2491 -0.5226
13689TIP3    H162482   0.715   4.544  13.260  0.8731  0.0565 -0.7278
13689TIP3    H262483   0.686   4.456  13.380  1.3609  0.2295 -0.4800
13690TIP3   OH262484   6.450   5.020  11.388  0.0621  0.4483 -0.4083
13690TIP3    H162485   6.417   5.080  11.321 -1.8746  0.6677  0.7255
13690TIP3    H262486   6.408   4.936  11.369  0.3019  0.2515 -0.0792
13691TIP3   OH262487   1.124   2.999   5.381  0.5348  0.3112  0.1345
13691TIP3    H162488   1.202   2.945   5.392 -0.2944 -0.7764  0.8170
13691TIP3    H262489   1.069   2.950   5.321 -0.8307 -0.3128  1.8364
13692TIP3   OH262490   0.069   0.883   6.331 -0.2368 -0.3702 -0.0999
13692TIP3    H162491   0.151   0.844   6.362 -1.3858 -2.2046  0.7373
13692TIP3    H262492   0.070   0.972   6.366  0.7649 -0.8197  1.0505
13693TIP3   OH262493   1.561   5.765  11.586  0.1501 -0.3573  0.1723
13693TIP3    H162494   1.578   5.673  11.604 -0.2086 -0.2999  0.8044
13693TIP3    H262495   1.623   5.812  11.642 -0.8074 -0.1857  1.0960
13694TIP3   OH262496   4.160   3.980  14.777 -0.5748  0.0897  0.2208
13694TIP3    H162497   4.129   4.070  14.792  2.1717  1.2868 -0.8775
13694TIP3    H262498   4.145   3.965  14.683  0.3459 -0.0304  0.0913
13695TIP3   OH262499   0.539   6.538   5.048  0.2249 -0.3405 -0.0650
13695TIP3    H162500   0.520   6.497   4.964  0.0353 -2.1647  0.8550
13695TIP3    H262501   0.629   6.569   5.040  0.3417 -0.8563 -0.7943
13696TIP3   OH262502   0.178   6.248   0.873  0.2277  0.1300  0.3081
13696TIP3    H162503   0.247   6.206   0.923 -0.8195 -2.8334 -0.6110
13696TIP3    H262504   0.213   6.255   0.784 -0.2848 -0.5188  0.0493
13697TIP3   OH262505   5.614   3.733   1.673  0.1120 -0.5904 -0.4033
13697TIP3    H162506   5.564   3.655   1.698 -1.6186  0.3820 -0.7612
13697TIP3    H262507   5.706   3.709   1.691 -0.4745 -2.3472  0.4017
13698TIP3   OH262508   5.596   6.009   3.018  0.5505 -0.4471 -0.3010
13698TIP3    H162509   5.628   6.076   2.958  1.5714 -1.2726 -0.6738
13698TIP3    H262510   5.507   5.991   2.988  0.6567 -0.0443 -0.8650
13699TIP3   OH262511   5.617   2.480   0.142 -0.1398 -0.1561  0.3682
13699TIP3    H162512   5.706   2.467   0.110  0.6089 -1.9252  2.9614
13699TIP3    H262513   5.561   2.447   0.072  1.3109 -0.9702 -0.4379
13700TIP3   OH262514   4.755   6.583   0.035 -0.0794  0.4858  0.3154
13700TIP3    H162515   4.794   6.589  -0.052 -1.6106 -1.5369 -0.5647
13700TIP3    H262516   4.661   6.589   0.019 -0.3171  1.7087  2.0228
13701TIP3   OH262517   2.005   4.938   1.829  0.3284 -0.4543  0.2575
13701TIP3    H162518   2.060   4.962   1.755 -0.8548  1.1265 -0.1547
13701TIP3    H262519   2.054   4.871   1.876  1.9860 -0.0203 -0.8343
13702TIP3   OH262520   0.548   1.998  15.930 -0.4862 -0.3260  0.5157
13702TIP3    H162521   0.499   2.076  15.903 -1.3431 -1.8919 -2.7674
13702TIP3    H262522   0.484   1.943  15.974 -1.1733 -1.3633 -1.7202
13703TIP3   OH262523   1.675   2.790  13.421 -0.5064 -0.1661  0.2414
13703TIP3    H162524   1.762   2.822  13.441 -0.7726 -0.2867  1.6619
13703TIP3    H262525   1.654   2.828  13.336  1.1388 -0.5834 -0.3681
13704TIP3   OH262526   3.958   1.612   2.783 -0.2829 -0.0757  0.0577
13704TIP3    H162527   3.913   1.652   2.858  2.1874 -0.3968  1.7794
13704TIP3    H262528   3.899   1.541   2.755 -1.6386  0.5923  1.1499
13705TIP3   OH262529   3.215   6.024   5.215  0.0763  0.4465  0.5693
13705TIP3    H162530   3.290   6.083   5.220  0.2609  0.1629  1.2294
13705TIP3    H262531   3.238   5.951   5.272 -0.0818 -0.3457 -0.3837
13706TIP3   OH262532   2.725   0.267  14.385  0.1573 -0.4511  0.2454
13706TIP3    H162533   2.707   0.178  14.415 -0.6698 -0.7845 -1.1846
13706TIP3    H262534   2.657   0.284  14.319  0.9087  0.8654 -0.2069
13707TIP3   OH262535   5.088   3.167  15.863 -0.4302 -0.0663 -0.0681
13707TIP3    H162536   5.036   3.246  15.849  0.9535  0.7838 -0.6279
13707TIP3    H262537   5.079   3.148  15.956  0.1525  1.4648  0.3269
13708TIP3   OH262538   1.790   5.714   1.682  0.4780 -0.3589 -0.1637
13708TIP3    H162539   1.719   5.766   1.721  0.3878  0.0484 -0.8417
13708TIP3    H262540   1.851   5.698   1.753 -0.1424 -0.4332  0.3534
13709TIP3   OH262541   2.219   3.163  12.470 -0.8018  0.0583  0.0773
13709TIP3    H162542   2.244   3.204  12.554 -0.6966 -1.0779  0.6051
13709TIP3    H262543   2.133   3.199  12.451 -0.1386  1.5977 -0.1707
13710TIP3   OH262544   5.629   6.426  12.923 -0.0661 -0.3273  0.1355
13710TIP3    H162545   5.621   6.367  12.849 -1.6091 -1.7765  1.4125
13710TIP3    H262546   5.656   6.510  12.885  0.5377 -1.4007 -1.8748
13711TIP3   OH262547   6.347   1.476   3.441  0.2816 -0.4201 -0.1723
13711TIP3    H162548   6.422   1.437   3.395 -1.6558 -3.7014 -0.7232
13711TIP3    H262549   6.298   1.521   3.373  0.6682 -0.0305 -0.1936
13712TIP3   OH262550   3.693   5.035  13.352 -0.1106  0.2189  0.1366
13712TIP3    H162551   3.707   5.105  13.287 -0.4764 -0.5856 -0.8303
13712TIP3    H262552   3.611   5.059  13.395  1.2874  1.9679  1.9198
13713TIP3   OH262553   4.508   1.675  13.019  0.0749  0.1942  0.5723
13713TIP3    H162554   4.521   1.588  12.982 -0.7366  0.2797  0.0829
13713TIP3    H262555   4.588   1.723  12.996 -0.1150  0.0294 -0.4534
13714TIP3   OH262556   4.857   5.143   6.202  0.1345  0.9406 -0.2671
13714TIP3    H162557   4.828   5.075   6.263 -0.6608 -0.8446 -2.5340
13714TIP3    H262558   4.785   5.206   6.200  0.4537  1.3603  1.1180
13715TIP3   OH262559   3.866   6.005  17.036  0.0003 -0.3625 -0.3312
13715TIP3    H162560   3.792   5.996  16.976  0.7167 -1.7011 -1.0431
13715TIP3    H262561   3.833   6.058  17.108 -2.4739 -3.1701  0.6940
13716TIP3   OH262562   4.550   1.200  16.476 -0.4757  0.5597  0.3546
13716TIP3    H162563   4.472   1.219  16.423 -1.0423  0.1846  1.0444
13716TIP3    H262564   4.533   1.243  16.560 -0.4974 -0.5806  0.9400
13717TIP3   OH262565   1.984   2.262   3.633 -0.5881  0.3986  0.6978
13717TIP3    H162566   1.893   2.290   3.645  0.1590  2.3800  1.9089
13717TIP3    H262567   2.004   2.283   3.542 -0.7598  1.7289  0.9547
13718TIP3   OH262568   5.608   3.406  12.818 -0.9143 -0.3648 -0.2685
13718TIP3    H162569   5.681   3.382  12.762 -1.5051 -0.9292 -0.8081
13718TIP3    H262570   5.606   3.340  12.886 -2.0920 -1.4680 -1.3416
13719TIP3   OH262571   1.438   6.235  14.862  0.8584  0.0514 -0.1929
13719TIP3    H162572   1.369   6.301  14.849  0.2519 -0.1572  1.8269
13719TIP3    H262573   1.516   6.274  14.823  0.6294  2.1810  1.4332
13720TIP3   OH262574   2.515   6.085   3.294  0.1058 -0.5501 -0.0229
13720TIP3    H162575   2.586   6.041   3.248  0.8685 -1.0663  1.6111
13720TIP3    H262576   2.510   6.171   3.253 -0.9385 -1.8691 -2.7720
13721TIP3   OH262577   4.374   5.298  13.122 -0.2041 -0.0789 -0.2177
13721TIP3    H162578   4.319   5.242  13.176 -0.7299  1.3309  0.7275
13721TIP3    H262579   4.329   5.382  13.120  0.3837  0.2230 -1.9281
13722TIP3   OH262580   2.249   1.721  14.539 -0.6680  0.1321 -0.1498
13722TIP3    H162581   2.193   1.678  14.475  1.5546 -1.6058 -1.0061
13722TIP3    H262582   2.336   1.684  14.524  0.7447  2.7510  1.1115
13723TIP3   OH262583   1.132   5.086   5.520 -0.3805 -0.3045  0.0046
13723TIP3    H162584   1.099   5.006   5.480  1.3365 -0.2236 -1.6525
13723TIP3    H262585   1.055   5.143   5.526 -0.9072 -0.7041 -2.2976
13724TIP3   OH262586   1.584   2.823   4.694 -0.5176  0.6311  0.0164
13724TIP3    H162587   1.646   2.889   4.663 -0.0346  0.5978  0.9026
13724TIP3    H262588   1.568   2.768   4.618 -0.2994  1.2885 -0.5145
13725TIP3   OH262589   4.028   4.407   1.106 -0.1902  0.1749  0.5070
13725TIP3    H162590   4.045   4.330   1.161  0.8976 -0.3983 -0.5995
13725TIP3    H262591   3.937   4.398   1.079 -0.5218  0.0912  1.6248
13726TIP3   OH262592   0.659   5.925  16.981 -0.2081 -0.3118  0.5015
13726TIP3    H162593   0.633   5.858  16.918  0.8249  0.0863 -0.3714
13726TIP3    H262594   0.583   5.982  16.989 -1.2498 -1.8226  1.5792
13727TIP3   OH262595   2.062   0.161   1.041 -0.2106  0.1864  0.0049
13727TIP3    H162596   2.031   0.172   1.131 -1.1988 -1.3026 -0.1263
13727TIP3    H262597   2.013   0.086   1.008 -0.6988  1.4201 -2.1619
13728TIP3   OH262598   6.663   6.109  12.790  0.7240 -0.2456  0.5216
13728TIP3    H162599   6.710   6.027  12.779  1.1323 -0.0640  0.8874
13728TIP3    H262600   6.602   6.092  12.863  0.5200 -0.3505  0.3266
13729TIP3   OH262601   0.819   4.150  14.973  0.3834  0.3572  0.7303
13729TIP3    H162602   0.812   4.104  15.057  0.6656  0.9971  1.1043
13729TIP3    H262603   0.864   4.088  14.915 -0.9748 -0.5896  0.6716
13730TIP3   OH262604   1.209   6.581  16.992  0.7799  0.1751 -0.3029
13730TIP3    H162605   1.237   6.590  16.901 -0.6685 -0.0029 -0.7778
13730TIP3    H262606   1.158   6.500  16.994  1.1619 -0.0496  0.7639
13731TIP3   OH262607   1.394   5.314   1.018  0.0101  0.3860  0.0964
13731TIP3    H162608   1.332   5.263   0.966  2.0741 -0.9568 -1.1210
13731TIP3    H262609   1.339   5.361   1.082 -2.4121  0.7396 -2.1563
13732TIP3   OH262610   0.353   3.055  13.597 -0.0859  0.2168 -0.2775
13732TIP3    H162611   0.273   3.075  13.646 -1.8413 -0.9090 -2.5967
13732TIP3    H262612   0.345   3.103  13.515  1.5856 -0.0001 -0.5980
13733TIP3   OH262613   3.493   0.293   5.535 -0.3170 -0.2747 -0.2221
13733TIP3    H162614   3.559   0.270   5.470 -0.7877 -2.1272 -0.0617
13733TIP3    H262615   3.414   0.310   5.484 -0.2764 -0.1771 -0.2519
13734TIP3   OH262616   6.768   0.250  13.030 -0.2965 -0.6322  0.5039
13734TIP3    H162617   6.678   0.220  13.040  0.2452 -1.3724  3.7862
13734TIP3    H262618   6.819   0.169  13.025  0.4169 -0.2290  1.2369
13735TIP3   OH262619   1.502   5.586  16.150 -0.3017  0.8004  0.1367
13735TIP3    H162620   1.579   5.530  16.145 -0.3494  0.7363  0.1342
13735TIP3    H262621   1.496   5.627  16.063 -1.6134 -0.9431 -0.6153
13736TIP3   OH262622   6.585   5.589  12.842 -0.1513 -0.3525 -0.1777
13736TIP3    H162623   6.632   5.509  12.865  1.3206  0.5896  0.2438
13736TIP3    H262624   6.642   5.659  12.875 -1.0942  0.8662 -1.1103
13737TIP3   OH262625   4.292   2.009   1.516 -0.1592  0.5940  0.1955
13737TIP3    H162626   4.320   1.966   1.597  0.4834 -1.0657 -0.8865
13737TIP3    H262627   4.252   2.091   1.545  2.7201  1.4369  2.0382
13738TIP3   OH262628   1.040   5.401  10.290  0.4312 -0.0977  0.0875
13738TIP3    H162629   1.028   5.325  10.233 -0.0439  0.0055  0.0496
13738TIP3    H262630   1.135   5.408  10.301  0.4866 -0.5777 -0.0706
13739TIP3   OH262631   1.941   0.100   6.057 -0.1352 -0.4043  0.2305
13739TIP3    H162632   2.027   0.137   6.078  0.5843 -1.3060 -1.0196
13739TIP3    H262633   1.917   0.049   6.134  0.3153  0.0964  0.7059
13740TIP3   OH262634   4.791   3.013   2.168 -0.0637  0.6854 -0.3755
13740TIP3    H162635   4.815   2.971   2.251  0.2349 -0.9412 -1.2656
13740TIP3    H262636   4.739   3.090   2.194  0.9380  0.8052  1.3443
13741TIP3   OH262637   2.448   0.361   1.651  0.3820  0.0096  0.3632
13741TIP3    H162638   2.507   0.402   1.714  0.1228  0.2165  0.4728
13741TIP3    H262639   2.361   0.381   1.684  0.1998  2.0174 -1.2558
13742TIP3   OH262640   4.413   0.122   3.519 -0.7329 -0.1209 -0.3474
13742TIP3    H162641   4.403   0.084   3.606  0.1341 -0.0785 -0.2280
13742TIP3    H262642   4.345   0.079   3.467 -0.7974 -0.6680  0.1759
13743TIP3   OH262643   2.321   1.429  11.009  0.3411 -0.3047  0.1719
13743TIP3    H162644   2.252   1.418  11.074  1.4224 -0.9494  1.2233
13743TIP3    H262645   2.326   1.524  10.995 -1.5757 -0.3273 -0.8302
13744TIP3   OH262646   1.220   2.200   3.482  0.4252  0.3220 -0.0336
13744TIP3    H162647   1.163   2.266   3.522  0.9245  0.8499 -0.1906
13744TIP3    H262648   1.306   2.216   3.519  0.2403 -1.2756  1.1496
13745TIP3   OH262649   5.832   6.503  13.563 -0.5519 -0.5184 -0.2020
13745TIP3    H162650   5.925   6.526  13.571 -0.9551  1.0141  0.1315
13745TIP3    H262651   5.824   6.421  13.612  0.8530 -1.2888 -1.2136
13746TIP3   OH262652   3.604   2.990  10.609  0.4632 -0.0370  0.4148
13746TIP3    H162653   3.682   2.993  10.665  0.5512 -0.8545  0.3450
13746TIP3    H262654   3.604   3.074  10.564  0.2584  0.7228  1.8202
13747TIP3   OH262655   4.464   5.450   0.909 -0.5335 -0.5752 -0.4736
13747TIP3    H162656   4.413   5.386   0.859  1.1765 -1.4219 -1.1864
13747TIP3    H262657   4.413   5.465   0.989 -1.6989 -1.6587 -0.9930
13748TIP3   OH262658   4.200   4.567   2.143  0.1198 -0.8837  0.1477
13748TIP3    H162659   4.134   4.603   2.084 -0.4243  1.0494  1.8706
13748TIP3    H262660   4.153   4.549   2.224  1.2080 -1.8620  0.5830
13749TIP3   OH262661   5.084   3.362   5.004 -0.3348 -0.1484 -0.2695
13749TIP3    H162662   5.159   3.302   5.001 -0.4695 -0.2650 -1.4828
13749TIP3    H262663   5.066   3.373   5.098 -0.1904 -1.8430 -0.0310
13750TIP3   OH262664   0.962   6.535  13.301  0.2985 -0.4278 -0.5221
13750TIP3    H162665   0.921   6.494  13.376 -0.4450 -0.9406 -1.2097
13750TIP3    H262666   0.891   6.549  13.239  0.3576  2.6249 -0.0024
13751TIP3   OH262667   5.781   5.746  12.534 -0.7600 -0.3390  0.4281
13751TIP3    H162668   5.857   5.696  12.503 -0.4345  0.9862 -0.9432
13751TIP3    H262669   5.721   5.747  12.460 -1.6701 -0.4561  1.1564
13752TIP3   OH262670   3.683   1.788  15.967  0.2780 -0.2214 -0.1803
13752TIP3    H162671   3.629   1.796  15.889 -0.4428 -1.1741  0.2166
13752TIP3    H262672   3.625   1.749  16.033  1.0914 -0.1202  0.6143
13753TIP3   OH262673   2.469   4.049  14.148 -0.5348  0.2530 -0.1776
13753TIP3    H162674   2.430   3.966  14.176  0.8202 -1.0615 -2.0646
13753TIP3    H262675   2.564   4.034  14.156 -0.3150  2.0666  0.7053
13754TIP3   OH262676   5.238   2.475   2.125 -0.0782  0.1052 -0.1957
13754TIP3    H162677   5.307   2.541   2.117  0.6289 -0.5835  0.0903
13754TIP3    H262678   5.212   2.456   2.035 -1.1867  1.6927 -0.2203
13755TIP3   OH262679   4.716   1.743  14.646  0.1228 -0.8974 -0.0247
13755TIP3    H162680   4.806   1.767  14.668 -0.0027 -0.6340  0.1949
13755TIP3    H262681   4.722   1.709  14.557  0.4332 -0.8411 -0.0264
13756TIP3   OH262682   4.934   3.244   0.301  0.4378  0.2746 -0.5567
13756TIP3    H162683   4.913   3.332   0.333 -0.8184  0.1350 -1.0000
13756TIP3    H262684   4.898   3.185   0.368  3.3097  0.1166  0.9490
13757TIP3   OH262685   5.701   1.295  15.590 -0.0459  0.2310 -0.1756
13757TIP3    H162686   5.793   1.269  15.578  0.3609  1.1038  0.8673
13757TIP3    H262687   5.671   1.319  15.503  0.6730 -0.2462 -0.5580
13758TIP3   OH262688   4.472   6.766   2.402 -0.5030  0.2971  0.0149
13758TIP3    H162689   4.530   6.750   2.476 -1.4522  0.0449  0.7244
13758TIP3    H262690   4.509   6.715   2.330 -0.7821 -1.2014  0.9153
13759TIP3   OH262691   4.892   0.807  15.442  0.4458 -0.4287  0.4253
13759TIP3    H162692   4.843   0.781  15.364  0.2811 -2.4484  1.1758
13759TIP3    H262693   4.984   0.795  15.417  0.5405  1.5324 -0.3336
13760TIP3   OH262694   3.210   4.821   5.215 -0.0928 -0.1875 -0.5771
13760TIP3    H162695   3.291   4.772   5.198  0.7033  1.3672 -1.4308
13760TIP3    H262696   3.240   4.911   5.230 -1.6645  0.4216 -1.0198
13761TIP3   OH262697   4.222   5.685  13.698  0.7498 -0.9687  0.0099
13761TIP3    H162698   4.209   5.594  13.726  0.9485 -0.7543  0.8087
13761TIP3    H262699   4.281   5.678  13.623  1.4456 -1.4485  0.5920
13762TIP3   OH262700   3.918   4.659  16.635 -0.1503  0.0979  0.6351
13762TIP3    H162701   3.955   4.633  16.719 -0.5231  2.1090  1.4618
13762TIP3    H262702   3.978   4.727  16.603 -0.6403  0.1480 -0.1729
13763TIP3   OH262703   3.239   6.573  11.832 -0.0473 -0.3642 -0.3186
13763TIP3    H162704   3.156   6.525  11.845 -0.5352  0.4545 -0.3662
13763TIP3    H262705   3.217   6.641  11.769  0.9343 -0.7893 -1.1354
13764TIP3   OH262706   0.255   6.651   2.445  0.2283  0.1292 -0.0335
13764TIP3    H162707   0.349   6.638   2.454  0.3704 -1.1091 -2.8498
13764TIP3    H262708   0.222   6.565   2.416 -1.7773  0.5221  1.0016
13765TIP3   OH262709   3.312   3.295   0.840 -0.4277 -0.3109  0.6233
13765TIP3    H162710   3.222   3.297   0.807  0.6835  0.6633 -2.5798
13765TIP3    H262711   3.337   3.203   0.837 -1.4169 -0.6307  1.8815
13766TIP3   OH262712   1.014   6.092   2.651  0.0518  0.1282  0.1123
13766TIP3    H162713   1.001   6.082   2.745 -0.8707  0.1377 -0.0151
13766TIP3    H262714   0.964   6.020   2.612  2.6391 -1.5761 -0.2484
13767TIP3   OH262715   5.565   0.622  12.048 -0.3245 -0.5473  0.4683
13767TIP3    H162716   5.634   0.563  12.079  1.2229  1.1590  0.3581
13767TIP3    H262717   5.514   0.642  12.127  1.3476  0.8035  1.2602
13768TIP3   OH262718   6.470   2.627   0.180 -0.2910  0.7614 -0.2220
13768TIP3    H162719   6.401   2.646   0.116  0.7389 -1.1069 -1.9442
13768TIP3    H262720   6.426   2.631   0.265 -2.2437  0.8460 -1.2182
13769TIP3   OH262721   6.286   1.037   4.718 -0.2567 -0.1336 -0.0546
13769TIP3    H162722   6.322   1.029   4.806  1.3490  0.8962 -0.5853
13769TIP3    H262723   6.292   1.131   4.698 -0.7622 -0.3245 -1.1852
13770TIP3   OH262724   5.460   5.894  17.165  0.2556 -0.7492 -0.4004
13770TIP3    H162725   5.555   5.904  17.167  0.1658  0.0314  0.6844
13770TIP3    H262726   5.426   5.975  17.204 -0.8408 -1.1810 -0.4162
13771TIP3   OH262727   4.747   6.061  14.510  0.6894 -0.1755  0.5159
13771TIP3    H162728   4.659   6.098  14.512  0.9100  0.2925  1.9063
13771TIP3    H262729   4.767   6.052  14.417  0.3496  2.5306  0.1299
13772TIP3   OH262730   0.122   2.580  14.892 -0.1328  0.7197  0.2377
13772TIP3    H162731   0.055   2.641  14.922 -0.7256 -0.8879  2.3296
13772TIP3    H262732   0.074   2.500  14.871  0.7430  0.6337 -1.4726
13773TIP3   OH262733   4.247   0.293  17.200 -0.0687  0.0513 -0.2461
13773TIP3    H162734   4.207   0.207  17.212 -1.4652  0.5519 -1.1248
13773TIP3    H262735   4.338   0.282  17.228 -0.1673 -1.7635 -0.6143
13774TIP3   OH262736   4.295   2.601   2.717  0.3532 -0.3511  0.0716
13774TIP3    H162737   4.330   2.656   2.788 -0.4713  1.5018 -0.9330
13774TIP3    H262738   4.284   2.515   2.758  1.8057  0.1590  1.6416
13775TIP3   OH262739   5.807   6.489   0.182 -0.7220  0.1370 -0.0246
13775TIP3    H162740   5.784   6.478   0.274 -1.4026  0.5957 -0.1388
13775TIP3    H262741   5.830   6.582   0.174 -1.8728  0.3773 -0.5839
13776TIP3   OH262742   0.093   2.216  13.360 -0.3254 -0.1104 -0.2575
13776TIP3    H162743   0.034   2.166  13.416  0.1961 -2.1708 -1.4787
13776TIP3    H262744   0.180   2.181  13.380  0.1234  0.7342 -0.7154
13777TIP3   OH262745   2.295   3.937   0.296 -0.2893  0.6018 -0.6276
13777TIP3    H162746   2.266   3.898   0.379  1.1847  1.2225  0.2025
13777TIP3    H262747   2.333   3.863   0.248  0.0935  0.4898 -0.1658
13778TIP3   OH262748   0.361   4.038   4.222 -0.0460 -0.0994  0.1654
13778TIP3    H162749   0.274   4.000   4.212  0.6264 -1.2430 -1.6459
13778TIP3    H262750   0.348   4.113   4.280 -1.7390 -1.9309  2.2592
13779TIP3   OH262751   2.815   3.742  15.441 -0.4249  0.2041 -0.0890
13779TIP3    H162752   2.803   3.826  15.485 -0.2672  0.2740 -0.1798
13779TIP3    H262753   2.867   3.762  15.364 -0.6351  0.0680 -0.2669
13780TIP3   OH262754   5.874   1.123   0.799  0.4361  0.3598  0.0923
13780TIP3    H162755   5.794   1.077   0.774 -0.8018  1.6425  1.5755
13780TIP3    H262756   5.881   1.111   0.893  2.2030 -0.0192 -0.0702
13781TIP3   OH262757   0.770   3.173  10.841 -0.0530 -0.4315  0.0160
13781TIP3    H162758   0.833   3.144  10.906  1.2811  0.6704 -0.7544
13781TIP3    H262759   0.823   3.216  10.774 -1.2948 -2.2002 -2.1749
13782TIP3   OH262760   1.987   6.215   1.965  0.4085  0.0735  0.3028
13782TIP3    H162761   2.051   6.281   1.990  0.2228  0.3603  0.0330
13782TIP3    H262762   2.038   6.136   1.950  0.4149 -0.3795  2.5580
13783TIP3   OH262763   3.032   4.479  16.807 -0.0832 -0.5761 -0.0079
13783TIP3    H162764   3.040   4.400  16.754 -3.0920 -0.6054 -0.5036
13783TIP3    H262765   2.938   4.493  16.816  0.3696  2.4822  0.7764
13784TIP3   OH262766   3.581   2.674   0.120 -0.3613  0.0733 -0.3975
13784TIP3    H162767   3.632   2.751   0.094 -0.9482  0.4165 -0.5398
13784TIP3    H262768   3.565   2.686   0.213  3.0799 -1.9232  0.5451
13785TIP3   OH262769   4.650   4.618   1.002 -0.3321  0.4657  0.3962
13785TIP3    H162770   4.701   4.548   1.043  0.6982  1.3493  0.6446
13785TIP3    H262771   4.597   4.654   1.073 -0.5801  0.2016  0.3490
13786TIP3   OH262772   1.837   6.350   1.245 -1.2186  0.5097  0.0712
13786TIP3    H162773   1.887   6.269   1.234 -0.8002  0.9924 -1.7901
13786TIP3    H262774   1.866   6.385   1.329  1.0043  0.3618 -0.5923
13787TIP3   OH262775   5.971   2.551  14.283 -0.2203  0.0408 -0.5217
13787TIP3    H162776   5.941   2.641  14.297 -3.4506 -1.2351  1.2518
13787TIP3    H262777   5.993   2.519  14.370 -1.1962 -1.5726 -0.8526
13788TIP3   OH262778   6.203   6.632  14.551  0.3765 -0.3920  0.4786
13788TIP3    H162779   6.125   6.638  14.606 -1.5985  0.9853 -2.3366
13788TIP3    H262780   6.231   6.722  14.539  1.3022 -0.7403 -0.0518
13789TIP3   OH262781   5.891   0.078  12.434  0.0741 -0.2283  0.0772
13789TIP3    H162782   5.827   0.009  12.453  0.8377 -0.6742  1.0617
13789TIP3    H262783   5.899   0.077  12.339 -0.0309 -1.4005  0.0727
13790TIP3   OH262784   5.011   1.233   0.417 -0.9704 -0.5073  0.6484
13790TIP3    H162785   5.015   1.290   0.340 -2.5010 -1.8375 -0.4726
13790TIP3    H262786   5.092   1.251   0.465 -1.0470  1.9584 -0.1089
13791TIP3   OH262787   0.028   0.147  12.614 -0.5975 -0.2579 -0.1086
13791TIP3    H162788   0.068   0.207  12.676  0.0612 -1.6646  0.8400
13791TIP3    H262789  -0.006   0.076  12.668 -2.6550 -0.0438 -1.0782
13792TIP3   OH262790   6.298   1.382  12.950  0.3739 -0.1122 -0.1342
13792TIP3    H162791   6.313   1.316  13.017 -0.2782  0.2277  0.3500
13792TIP3    H262792   6.222   1.350  12.901 -0.8668  0.9948  1.0317
13793TIP3   OH262793   0.324   6.482  16.961 -0.1455 -0.2709  0.4709
13793TIP3    H162794   0.261   6.480  17.033  0.1042 -3.6691  0.6902
13793TIP3    H262795   0.271   6.466  16.883  0.1400 -0.9663  0.4159
13794TIP3   OH262796   0.073   5.355   1.040 -0.5700 -0.0158 -0.4644
13794TIP3    H162797   0.074   5.355   1.136 -0.2244  0.4593 -0.4625
13794TIP3    H262798   0.156   5.314   1.015 -1.1702 -1.1630 -0.5658
13795TIP3   OH262799   3.126   0.939  12.821  0.1337 -0.1633  0.0754
13795TIP3    H162800   3.189   0.929  12.892 -0.5411  1.7974  0.9889
13795TIP3    H262801   3.049   0.889  12.850 -0.3452  1.0914  0.9976
13796TIP3   OH262802   3.133   5.373  15.667 -0.5161  0.2963 -0.0885
13796TIP3    H162803   3.176   5.290  15.690 -1.6743  0.3333  2.4088
13796TIP3    H262804   3.040   5.354  15.675 -0.8235  1.5430 -0.6344
13797TIP3   OH262805   0.712   3.460   5.690  0.3449  0.4456  0.6318
13797TIP3    H162806   0.616   3.463   5.692  0.3129  3.0210 -2.0053
13797TIP3    H262807   0.738   3.447   5.782 -2.5018 -0.3700  1.3645
13798TIP3   OH262808   2.404   0.920   0.505 -0.1821  0.3867 -0.0795
13798TIP3    H162809   2.366   0.834   0.524  0.2612  0.5491  1.6492
13798TIP3    H262810   2.401   0.967   0.589  1.4687  1.3162 -0.5095
13799TIP3   OH262811   5.570   2.724   4.083 -0.7008 -0.3760  0.5634
13799TIP3    H162812   5.579   2.648   4.025 -1.4446 -1.0734  1.3489
13799TIP3    H262813   5.522   2.788   4.030  0.5566 -0.1750 -0.3472
13800TIP3   OH262814   3.438   5.296  15.869  0.3479  0.4296  0.3950
13800TIP3    H162815   3.449   5.351  15.792 -0.3924  1.9519  1.3507
13800TIP3    H262816   3.359   5.330  15.911 -0.0794 -1.3214  1.0456
13801TIP3   OH262817   6.029   3.823  11.918  1.0101  0.0958  0.2474
13801TIP3    H162818   6.040   3.848  12.010 -0.6597  1.6796  0.0523
13801TIP3    H262819   6.035   3.728  11.917  1.1753  0.0844  1.9776
13802TIP3   OH262820   1.452   2.715  12.615  0.2287  0.3172  0.0054
13802TIP3    H162821   1.504   2.774  12.562  1.4646  1.0952  2.0455
13802TIP3    H262822   1.398   2.772  12.669 -3.2140 -0.4580 -2.4301
13803TIP3   OH262823   2.764   3.648  15.949 -0.0932  0.3928 -0.0367
13803TIP3    H162824   2.705   3.601  16.009  0.4179  1.3950  1.2726
13803TIP3    H262825   2.737   3.619  15.862 -2.7636  1.0706  0.5068
13804TIP3   OH262826   1.491   4.030  14.362  0.1205  0.0921 -0.1198
13804TIP3    H162827   1.544   4.017  14.440  0.6134 -1.7489 -0.7364
13804TIP3    H262828   1.424   4.093  14.388 -0.0368 -0.8927  1.9331
13805TIP3   OH262829   0.843   3.731  10.437  0.1818  0.3424 -0.1594
13805TIP3    H162830   0.896   3.805  10.465  0.3775 -0.4138  1.5295
13805TIP3    H262831   0.757   3.769  10.420  0.7630  1.2588 -1.1213
13806TIP3   OH262832   5.710   3.844   3.589  0.1571  1.0026 -0.0984
13806TIP3    H162833   5.745   3.784   3.655 -1.8800  1.3173  1.3099
13806TIP3    H262834   5.719   3.796   3.506  0.6243 -0.3274  0.7007
13807TIP3   OH262835   3.444   0.111  11.690  0.0946  0.2924  0.4096
13807TIP3    H162836   3.524   0.090  11.643 -0.9170 -2.5559 -0.1551
13807TIP3    H262837   3.466   0.099  11.782  0.2858 -0.7039  0.2436
13808TIP3   OH262838   0.426   3.903  16.362  0.6462  0.1693 -0.1914
13808TIP3    H162839   0.490   3.973  16.366  0.6258  0.1579  0.3843
13808TIP3    H262840   0.473   3.829  16.323  0.3555  0.8293 -1.8651
13809TIP3   OH262841   4.538   5.847  13.269 -0.4001  0.3739  0.5728
13809TIP3    H162842   4.592   5.778  13.308 -0.4744  0.6357  1.1356
13809TIP3    H262843   4.597   5.893  13.209 -0.3237 -0.1170  0.2681
13810TIP3   OH262844   3.774   0.312   1.400 -0.3333  0.3505  0.1698
13810TIP3    H162845   3.774   0.216   1.401  1.1762  0.3302  1.3116
13810TIP3    H262846   3.861   0.335   1.432 -0.7603  2.1107  0.0749
13811TIP3   OH262847   3.862   6.726  15.993  0.1836 -0.1780  0.5221
13811TIP3    H162848   3.913   6.653  15.958 -2.1890 -1.5922 -0.0728
13811TIP3    H262849   3.805   6.687  16.058 -1.7465  0.9707 -0.4148
13812TIP3   OH262850   4.906   6.407   0.388 -0.5214  0.4213 -0.5461
13812TIP3    H162851   4.871   6.489   0.352 -2.3747  0.3291  0.9691
13812TIP3    H262852   4.923   6.427   0.480  0.0272 -0.5977 -0.4227
13813TIP3   OH262853   0.964   0.061   4.599 -0.1919 -0.2497  0.6269
13813TIP3    H162854   1.040   0.119   4.604  0.2944 -0.9687  1.5507
13813TIP3    H262855   0.896   0.106   4.650 -0.7501  0.9242 -1.1077
13814TIP3   OH262856   2.048   1.679  16.963 -0.7005  0.2226  0.0971
13814TIP3    H162857   1.953   1.673  16.976 -0.7889  0.0332 -0.6182
13814TIP3    H262858   2.076   1.588  16.951 -0.5271  0.3390 -0.3777
13815TIP3   OH262859   5.771   2.103   2.027 -0.1255  0.3415 -0.1114
13815TIP3    H162860   5.830   2.152   2.084  0.5929  0.8893 -1.3034
13815TIP3    H262861   5.697   2.163   2.013  0.4096  0.8089 -0.9751
13816TIP3   OH262862   4.821   6.346  13.487 -0.2419 -0.6883  0.6823
13816TIP3    H162863   4.913   6.351  13.460  0.0850 -0.1922  1.8245
13816TIP3    H262864   4.792   6.259  13.460  0.2092 -0.3972 -0.7635
13817TIP3   OH262865   4.237   0.924  13.964 -0.0917  0.5205  0.1992
13817TIP3    H162866   4.234   0.939  13.870 -0.7465 -1.4443 -0.1216
13817TIP3    H262867   4.269   1.007  14.001  1.6656  0.7906 -1.8478
13818TIP3   OH262868   3.112   4.252  12.647  0.5315 -0.4435 -0.1445
13818TIP3    H162869   3.181   4.294  12.597 -0.3720 -0.4399 -1.4209
13818TIP3    H262870   3.157   4.189  12.703  1.7506  1.0503  0.6095
13819TIP3   OH262871   0.122   6.170   2.740 -0.4048  0.1438  0.2179
13819TIP3    H162872   0.090   6.090   2.780 -0.0269  0.8103  1.8947
13819TIP3    H262873   0.210   6.148   2.709 -0.4508 -0.1913  0.3267
13820TIP3   OH262874   6.015   3.292   4.486  0.1491  0.2585  0.3279
13820TIP3    H162875   6.074   3.278   4.561  0.0409  1.5234  0.6625
13820TIP3    H262876   6.043   3.376   4.449 -1.3877  0.8379  0.4409
13821TIP3   OH262877   4.593   3.736   2.245 -0.3036 -0.2840  0.8563
13821TIP3    H162878   4.567   3.729   2.153  1.5443  1.0223  0.2124
13821TIP3    H262879   4.576   3.827   2.268  2.7193  0.3839  0.6768
13822TIP3   OH262880   0.695   0.125  13.847 -0.1446 -0.6081 -0.1553
13822TIP3    H162881   0.682   0.204  13.900  2.0389  0.0961 -0.6342
13822TIP3    H262882   0.629   0.064  13.880 -0.1471  0.4989  2.0060
13823TIP3   OH262883   5.332   5.414  12.261  0.4097 -0.7271 -0.0906
13823TIP3    H162884   5.357   5.454  12.178  1.8076 -0.2158  0.5659
13823TIP3    H262885   5.400   5.349  12.278  1.2404  0.5497  1.6249
13824TIP3   OH262886   0.696   6.289  13.845 -1.0722  0.5224 -0.4906
13824TIP3    H162887   0.695   6.309  13.751  0.8450 -2.6713 -1.2880
13824TIP3    H262888   0.781   6.321  13.875 -1.0270  0.1287 -0.2002
13825TIP3   OH262889   6.226   5.164  17.004 -0.3277  0.2805  0.1771
13825TIP3    H162890   6.152   5.118  17.043 -0.7973  1.7632  1.0847
13825TIP3    H262891   6.299   5.148  17.064 -0.0392 -0.7111 -0.4207
13826TIP3   OH262892   5.860   3.854  13.020  0.2553 -0.3301  0.7279
13826TIP3    H162893   5.866   3.789  13.090  0.5599 -1.1051 -0.0111
13826TIP3    H262894   5.870   3.803  12.940 -0.3512  0.5175  0.1111
13827TIP3   OH262895   4.125   6.598   5.059 -0.0227 -0.2102  0.8057
13827TIP3    H162896   4.164   6.596   5.146  2.2330 -0.2379 -0.1686
13827TIP3    H262897   4.199   6.609   5.000 -1.5972  0.6452 -1.0643
13828TIP3   OH262898   6.187   0.594   1.798  0.7994  0.2252  0.0798
13828TIP3    H162899   6.107   0.564   1.755  0.9185  0.1247 -0.0722
13828TIP3    H262900   6.232   0.513   1.825  0.0506  0.3046  1.6426
13829TIP3   OH262901   1.585   6.693   1.319 -0.2775 -0.1788 -0.2195
13829TIP3    H162902   1.565   6.599   1.323  1.1605 -0.5255 -0.6713
13829TIP3    H262903   1.629   6.711   1.402 -2.7463  0.6633  0.9459
13830TIP3   OH262904   5.955   3.409   0.405  0.0746  0.0430  0.4193
13830TIP3    H162905   6.027   3.405   0.468 -1.9574  1.8560  2.9812
13830TIP3    H262906   5.942   3.503   0.391 -2.5646 -0.2167  0.9537
13831TIP3   OH262907   5.531   5.641  14.377  0.4686 -0.4765 -0.0698
13831TIP3    H162908   5.557   5.719  14.426  0.8182 -0.6580  0.0432
13831TIP3    H262909   5.580   5.570  14.419 -0.8996 -0.9749  0.7167
13832TIP3   OH262910   2.705   1.469   1.062  0.3676  0.6146 -0.2644
13832TIP3    H162911   2.618   1.442   1.033 -0.0354  1.4860  0.1088
13832TIP3    H262912   2.760   1.392   1.049  0.2349  0.9895 -3.4936
13833TIP3   OH262913   0.256   4.669  11.444  0.1574  0.1685  0.0544
13833TIP3    H162914   0.191   4.603  11.418 -2.0377  2.1628  0.2245
13833TIP3    H262915   0.207   4.729  11.500  1.7672  2.5896 -1.0603
13834TIP3   OH262916   6.481   6.477   6.411  0.1039 -0.6871 -0.0516
13834TIP3    H162917   6.430   6.405   6.447  1.9890 -1.4772  1.1170
13834TIP3    H262918   6.566   6.439   6.392  0.9364  1.0958  0.0228
13835TIP3   OH262919   0.254   0.119  16.099 -0.5497 -0.5446 -0.6337
13835TIP3    H162920   0.184   0.162  16.050 -1.5642  0.4535  1.6084
13835TIP3    H262921   0.212   0.044  16.140  0.0046 -0.7010 -0.3411
13836TIP3   OH262922   2.107   6.548   1.212  0.1271  0.3312  0.1576
13836TIP3    H162923   2.060   6.554   1.295 -0.3314 -1.9227  0.0812
13836TIP3    H262924   2.046   6.583   1.147 -0.7405 -0.8156  0.3331
13837TIP3   OH262925   3.860   5.578   5.068 -0.1449 -0.1950  0.0771
13837TIP3    H162926   3.852   5.610   5.158 -0.0700 -0.8412  0.3164
13837TIP3    H262927   3.954   5.579   5.050 -0.1315 -0.3935  0.1303
13838TIP3   OH262928   5.600   1.202   0.884 -0.2058 -0.0117  0.3323
13838TIP3    H162929   5.590   1.131   0.948 -3.0401  0.9103  0.9517
13838TIP3    H262930   5.579   1.281   0.932  2.4530  1.2764 -0.4948
13839TIP3   OH262931   4.799   1.278  14.971  0.2536 -0.5055 -0.2663
13839TIP3    H162932   4.758   1.302  14.888  0.8580 -0.9696 -0.7104
13839TIP3    H262933   4.855   1.352  14.993  0.2232 -0.4562 -0.3548
13840TIP3   OH262934   6.390   0.491  13.710  0.2271 -0.2981  0.1867
13840TIP3    H162935   6.324   0.507  13.778 -0.3707 -2.5794  0.1647
13840TIP3    H262936   6.461   0.445  13.756  0.7662  0.0518 -0.2938
13841TIP3   OH262937   3.661   5.301   1.048 -0.1673  0.0519 -0.3552
13841TIP3    H162938   3.610   5.250   0.985  1.3350 -0.8115 -0.9025
13841TIP3    H262939   3.747   5.259   1.049  0.9328  2.1924 -0.3511
13842TIP3   OH262940   2.942   4.957  12.010 -0.6183 -0.5431  0.8924
13842TIP3    H162941   2.866   5.009  12.033  0.9805  1.2558  2.2756
13842TIP3    H262942   2.998   4.959  12.088  1.4919 -0.6392 -0.5516
13843TIP3   OH262943   3.559   1.257   2.454  0.1926  0.0498  0.3520
13843TIP3    H162944   3.579   1.181   2.509 -0.4981 -1.1454 -0.9860
13843TIP3    H262945   3.638   1.270   2.402 -0.1072 -0.5546 -0.2814
13844TIP3   OH262946   5.301   0.505  11.162  0.3193 -0.0213  0.5609
13844TIP3    H162947   5.212   0.499  11.197 -0.5057 -1.3621 -1.6309
13844TIP3    H262948   5.316   0.420  11.122  2.2936  0.4812  0.2013
13845TIP3   OH262949   0.334   2.298   1.548 -0.5802 -0.2342 -0.5318
13845TIP3    H162950   0.423   2.296   1.584 -1.0504  1.4802  0.7813
13845TIP3    H262951   0.288   2.229   1.595 -0.5832  0.4796  0.5122
13846TIP3   OH262952   4.127   5.231  15.871  0.3777 -0.2030 -0.0927
13846TIP3    H162953   4.149   5.158  15.814  0.5884 -0.4735  0.3289
13846TIP3    H262954   4.141   5.197  15.960 -0.8114 -0.0790  0.1565
13847TIP3   OH262955   0.985   0.563  16.728 -0.1442  0.4844  0.0469
13847TIP3    H162956   1.068   0.520  16.750 -0.5720  0.9598  2.7652
13847TIP3    H262957   1.001   0.656  16.745 -1.1648  0.6021  0.3974
13848TIP3   OH262958   3.768   2.009   3.512 -0.2446  0.1300 -0.2075
13848TIP3    H162959   3.862   2.015   3.528 -0.0253  0.7307 -1.6818
13848TIP3    H262960   3.760   1.995   3.418 -1.6744  1.7277 -0.3506
13849TIP3   OH262961   6.641   4.530  14.688  0.1785 -0.4336  0.3345
13849TIP3    H162962   6.624   4.468  14.759  1.8022 -1.0593  0.2096
13849TIP3    H262963   6.579   4.601  14.703  0.3581 -0.6507  2.2697
13850TIP3   OH262964   3.046   0.862  13.295 -0.4829  0.3953 -0.3466
13850TIP3    H162965   2.998   0.932  13.251 -1.2139  0.7317  0.9497
13850TIP3    H262966   3.121   0.906  13.335 -0.7073  0.3745  0.1041
13851TIP3   OH262967   2.470   2.397  14.800  0.3439 -0.0584  0.4426
13851TIP3    H162968   2.492   2.490  14.813  0.8006 -0.0074 -0.6385
13851TIP3    H262969   2.547   2.360  14.756 -0.1272 -0.7867  0.2232
13852TIP3   OH262970   6.188   0.843   4.539  0.0781  0.3401  0.5332
13852TIP3    H162971   6.201   0.912   4.604  0.5069  0.7425  0.0221
13852TIP3    H262972   6.112   0.872   4.489 -0.6594 -0.2940  1.2737
13853TIP3   OH262973   2.097   3.670   2.310 -0.1789  0.0354  0.4580
13853TIP3    H162974   2.082   3.757   2.273  0.5786  1.1972  2.7819
13853TIP3    H262975   2.173   3.637   2.262  1.0697  1.7081  1.1898
13854TIP3   OH262976   1.934   0.381   3.746 -1.1079  0.6202  0.4535
13854TIP3    H162977   1.853   0.331   3.736  0.2532 -2.2110  2.7757
13854TIP3    H262978   1.994   0.342   3.681 -1.4195  2.3795 -0.9255
13855TIP3   OH262979   6.725   3.471   1.238 -0.4382  0.1078 -0.2092
13855TIP3    H162980   6.660   3.405   1.213  0.6386 -0.3774 -1.7961
13855TIP3    H262981   6.704   3.547   1.184  0.7386 -0.2909 -1.2325
13856TIP3   OH262982   0.991   3.904  10.811  0.1186  0.1619  0.6395
13856TIP3    H162983   1.083   3.894  10.788  0.7316 -0.0020  3.0770
13856TIP3    H262984   0.961   3.978  10.757  2.3943  1.9856  1.7776
13857TIP3   OH262985   2.938   0.412   5.286  0.1342  0.5536 -0.1026
13857TIP3    H162986   3.009   0.350   5.303 -1.0364 -0.7270  0.3342
13857TIP3    H262987   2.887   0.371   5.216  0.0120  1.6094 -0.6402
13858TIP3   OH262988   1.686   0.048  16.701 -0.5504 -0.0333  0.6855
13858TIP3    H162989   1.627  -0.024  16.677 -1.4710  0.9126  0.0707
13858TIP3    H262990   1.654   0.123  16.650  1.1354  0.5122  0.3878
13859TIP3   OH262991   3.916   2.619   1.839  0.8301  0.4455 -0.1297
13859TIP3    H162992   3.925   2.596   1.931 -0.5933  0.8044  0.1134
13859TIP3    H262993   3.910   2.715   1.838  0.4853  0.4211 -0.5606
13860TIP3   OH262994   4.212   3.556   0.751  0.9272 -0.6887  0.0711
13860TIP3    H162995   4.283   3.506   0.709 -1.2133 -3.4586 -0.4185
13860TIP3    H262996   4.184   3.500   0.823  0.1035  0.9971  1.0729
13861TIP3   OH262997   1.643   0.205   4.459 -0.0399  0.6123  0.2546
13861TIP3    H162998   1.602   0.151   4.391  2.0948  0.9719 -1.3946
13861TIP3    H262999   1.607   0.292   4.446 -0.7962  0.3505  0.5896
13862TIP3   OH263000   0.847   4.884  11.315  0.7121 -0.4188  0.0088
13862TIP3    H163001   0.794   4.925  11.384  0.0233 -0.7203 -0.3424
13862TIP3    H263002   0.808   4.798  11.303  0.7424 -0.3103 -0.8627
13863TIP3   OH263003   0.132   1.049   1.167  0.1943  0.2773  0.4380
13863TIP3    H163004   0.111   1.021   1.078 -3.1522  1.0621  0.9000
13863TIP3    H263005   0.161   1.140   1.157 -0.6285  0.5159  0.1967
13864TIP3   OH263006   5.241   1.043  15.381  0.1156  0.1722 -0.7684
13864TIP3    H163007   5.293   1.119  15.355  0.9073  0.3434  1.2492
13864TIP3    H263008   5.247   1.041  15.476 -2.6850 -0.4349 -0.5593
13865TIP3   OH263009   5.743   4.533  14.407  0.0111  0.2041  0.0711
13865TIP3    H163010   5.698   4.506  14.327 -1.1512  0.5048  0.6205
13865TIP3    H263011   5.836   4.522  14.386 -0.3286 -1.2551 -0.7737
13866TIP3   OH263012   0.654   4.078  10.692 -0.3526 -0.1178 -0.0556
13866TIP3    H163013   0.566   4.064  10.658  0.2163 -0.0768 -1.5851
13866TIP3    H263014   0.663   4.014  10.762 -1.2439 -0.8042 -0.5548
13867TIP3   OH263015   2.757   5.515   5.597  0.1177  0.0502  0.7233
13867TIP3    H163016   2.741   5.478   5.511 -0.0917 -0.8042  1.1202
13867TIP3    H263017   2.680   5.569   5.615  1.3077  2.3092 -0.6867
13868TIP3   OH263018   6.668   0.275   2.611 -0.2233 -0.2721 -0.0446
13868TIP3    H163019   6.660   0.262   2.705 -1.5861 -1.6667 -0.3273
13868TIP3    H263020   6.743   0.334   2.601  0.0293 -0.2319  1.8909
13869TIP3   OH263021   3.011   3.074   5.499  0.2078  0.2800 -0.1658
13869TIP3    H163022   2.936   3.027   5.461  0.0820  0.8163 -0.5810
13869TIP3    H263023   2.973   3.125   5.570  0.0866  0.9876 -0.7360
13870TIP3   OH263024   4.245   5.744  15.718  0.2106  0.0368  0.2211
13870TIP3    H163025   4.280   5.808  15.779 -1.3498  0.8977  0.2470
13870TIP3    H263026   4.242   5.662  15.768 -0.2049  0.5298  1.0114
13871TIP3   OH263027   2.044   0.571   4.219  0.5482 -0.1253 -0.0388
13871TIP3    H163028   1.966   0.583   4.166  0.2309 -0.2198  0.4053
13871TIP3    H263029   2.040   0.480   4.249  0.9519 -0.2028 -0.2137
13872TIP3   OH263030   4.136   5.514  15.180 -0.0008  0.0507 -0.5165
13872TIP3    H163031   4.044   5.540  15.168 -0.8663 -2.3983  0.4212
13872TIP3    H263032   4.184   5.596  15.181 -2.2588  1.4188 -0.4351
13873TIP3   OH263033   3.001   3.131   4.682 -0.0194  0.3423  0.1142
13873TIP3    H163034   3.043   3.047   4.666  1.0995  0.5925  1.6074
13873TIP3    H263035   2.963   3.155   4.598 -2.3210 -2.6909  0.2146
13874TIP3   OH263036   5.070   4.726   4.938 -0.1730  0.4016 -0.0401
13874TIP3    H163037   5.070   4.795   4.871 -2.0965  2.4433  1.9523
13874TIP3    H263038   4.983   4.731   4.977 -0.1221 -2.7822  0.6001
13875TIP3   OH263039   0.854   3.959  14.242 -0.6466  0.1899 -0.6300
13875TIP3    H163040   0.858   3.868  14.271 -1.3056  0.6189  0.8157
13875TIP3    H263041   0.929   3.968  14.183  0.2500 -0.9175  0.3089
13876TIP3   OH263042   0.999   4.941  16.305  0.0902 -0.6811 -0.8379
13876TIP3    H163043   1.001   4.845  16.307 -0.1702 -0.6961 -1.2279
13876TIP3    H263044   0.920   4.962  16.256 -1.2609 -0.2435  1.4411
13877TIP3   OH263045   3.486   0.057  11.955  0.3384 -0.2429  0.2328
13877TIP3    H163046   3.565   0.008  11.929 -1.1445 -1.9858 -1.1595
13877TIP3    H263047   3.427  -0.010  11.990 -0.9467  0.8655  0.2333
13878TIP3   OH263048   3.050   6.552  14.148  0.2853 -0.4597  0.5712
13878TIP3    H163049   3.035   6.514  14.235 -0.5680 -1.1083  0.1563
13878TIP3    H263050   2.977   6.518  14.095  0.4875  0.3802 -0.2508
13879TIP3   OH263051   3.212   4.516   0.540 -0.1656  0.2418  0.5655
13879TIP3    H163052   3.302   4.483   0.549 -0.2974  0.2334  2.0576
13879TIP3    H263053   3.157   4.438   0.548 -0.3428  0.3691  0.5854
13880TIP3   OH263054   5.702   6.517   3.169 -1.0210 -0.1641 -0.0172
13880TIP3    H163055   5.773   6.556   3.220  0.2066  0.0165 -1.8188
13880TIP3    H263056   5.646   6.475   3.234  1.0090 -0.7503  1.3947
13881TIP3   OH263057   5.398   2.137  15.239 -0.2598  0.0405  0.4757
13881TIP3    H163058   5.315   2.181  15.254  0.1065  0.7915  0.3123
13881TIP3    H263059   5.380   2.078  15.165 -0.2587  1.2977 -0.5512
13882TIP3   OH263060   6.501   0.925  11.257 -0.3002  0.6993  0.0976
13882TIP3    H163061   6.524   0.916  11.165 -0.2617 -1.4265  0.2909
13882TIP3    H263062   6.417   0.880  11.265 -0.5536  1.3224  1.0005
13883TIP3   OH263063   1.008   4.404   3.268 -0.6673 -0.5429 -0.7177
13883TIP3    H163064   1.093   4.443   3.288 -0.7420 -0.0154 -1.3966
13883TIP3    H263065   0.944   4.459   3.313 -0.5551 -1.8979  1.1534
13884TIP3   OH263066   4.055   6.542   0.514 -0.2957  0.5303  0.2743
13884TIP3    H163067   3.995   6.552   0.588 -0.9055  1.3410 -0.3225
13884TIP3    H263068   4.099   6.459   0.530 -2.9848 -1.0571 -0.3059
13885TIP3   OH263069   0.735   2.222  15.361 -0.5091  0.4423 -0.7697
13885TIP3    H163070   0.795   2.208  15.435 -1.3019  0.0443 -0.1862
13885TIP3    H263071   0.652   2.184  15.391 -1.7363  3.1835 -0.5882
13886TIP3   OH263072   3.764   3.655   1.859  0.1371 -0.2827 -0.2933
13886TIP3    H163073   3.721   3.608   1.788 -0.1721  0.2969 -0.4948
13886TIP3    H263074   3.847   3.609   1.871  1.0168  0.6903 -2.2627
13887TIP3   OH263075   5.132   6.475   5.726  0.1074 -0.2131  0.3353
13887TIP3    H163076   5.146   6.549   5.786  1.8090 -0.5246  0.3689
13887TIP3    H263077   5.196   6.489   5.656  0.7127 -1.8225  0.5323
13888TIP3   OH263078   5.291   4.723   3.253 -0.6456  0.1179  0.4855
13888TIP3    H163079   5.240   4.643   3.263 -1.2332  0.6504  1.7524
13888TIP3    H263080   5.252   4.785   3.314 -1.8362  2.2170 -2.2833
13889TIP3   OH263081   5.646   6.517  16.038  0.0813  0.4926 -0.2392
13889TIP3    H163082   5.668   6.560  16.120  0.8150 -2.5061  1.1997
13889TIP3    H263083   5.613   6.587  15.982  0.8005  2.8034  2.1455
13890TIP3   OH263084   4.327   4.412  11.865 -0.4623 -1.0660  1.1368
13890TIP3    H163085   4.359   4.330  11.901 -0.5257 -0.9761  1.4009
13890TIP3    H263086   4.258   4.387  11.804  0.1738 -1.2685  0.4920
13891TIP3   OH263087   4.234   3.068   1.040 -0.1279  0.5008 -0.0654
13891TIP3    H163088   4.241   3.064   1.135 -0.9611  0.3251 -0.0042
13891TIP3    H263089   4.153   3.117   1.024 -0.3159  0.0103 -0.6709
13892TIP3   OH263090   2.558   2.769  16.242 -0.5906 -0.0268 -0.5017
13892TIP3    H163091   2.652   2.768  16.226 -0.3518 -1.8893  0.8881
13892TIP3    H263092   2.545   2.707  16.314 -2.9987 -0.5557 -1.3373
13893TIP3   OH263093   0.850   5.298   6.275  0.4940 -0.0229  0.2347
13893TIP3    H163094   0.802   5.296   6.192 -0.8299 -1.3380  1.0032
13893TIP3    H263095   0.861   5.392   6.294 -1.2143  0.3027 -0.2913
13894TIP3   OH263096   2.844   4.686   4.679 -0.1019 -0.5114 -0.4330
13894TIP3    H163097   2.764   4.704   4.727 -0.6446  1.9191 -2.1410
13894TIP3    H263098   2.838   4.593   4.656 -3.4175  0.0515 -2.2221
13895TIP3   OH263099   1.393   3.084  10.415  0.1350 -0.0388  0.0057
13895TIP3    H163100   1.448   3.024  10.365  1.3135  1.2593 -0.2976
13895TIP3    H263101   1.310   3.086  10.368  0.1885 -1.2038 -0.1383
13896TIP3   OH263102   1.591   2.251   2.394 -0.1396 -0.0686  0.4489
13896TIP3    H163103   1.546   2.235   2.477 -0.8107  0.3011  0.1625
13896TIP3    H263104   1.541   2.321   2.353 -0.0153 -0.4896 -0.4277
13897TIP3   OH263105   0.626   2.430   2.663 -0.4385  0.1221 -0.0389
13897TIP3    H163106   0.611   2.514   2.707 -0.3170 -0.3102  0.8341
13897TIP3    H263107   0.643   2.368   2.734  1.9165 -0.1476 -0.8099
13898TIP3   OH263108   0.477   3.545   4.386 -0.1756  0.1518  0.2508
13898TIP3    H163109   0.528   3.472   4.422 -1.1408 -0.4025  0.4962
13898TIP3    H263110   0.436   3.585   4.463  1.9732  2.2564  0.4047
13899TIP3   OH263111   1.496   4.192  15.052  0.3185 -0.2141 -0.2185
13899TIP3    H163112   1.407   4.224  15.040  0.9887  1.6778 -0.3004
13899TIP3    H263113   1.489   4.097  15.043 -1.2712  0.1133 -2.8644
13900TIP3   OH263114   6.167   4.650  12.765  0.4048 -0.4303 -0.3139
13900TIP3    H163115   6.133   4.613  12.683 -0.3023 -1.6042  0.4931
13900TIP3    H263116   6.110   4.613  12.833  1.1360  0.3461  0.7268
13901TIP3   OH263117   0.567   2.398  12.091 -0.7649 -0.1751  0.1563
13901TIP3    H163118   0.550   2.340  12.017  0.0418  0.6144 -0.6559
13901TIP3    H263119   0.648   2.443  12.068  0.5151 -1.2483  2.3406
13902TIP3   OH263120   4.600   5.326  12.331 -0.0746  0.0089  0.0578
13902TIP3    H163121   4.533   5.268  12.293 -0.8800  0.3280  0.9627
13902TIP3    H263122   4.550   5.386  12.387  1.0302 -0.2027  1.3052
13903TIP3   OH263123   6.016   0.197   0.380  0.0555  0.0472 -0.1418
13903TIP3    H163124   5.971   0.115   0.403  0.1578  0.4795  1.6835
13903TIP3    H263125   6.104   0.169   0.356  0.0350 -0.4192  0.3006
13904TIP3   OH263126   1.350   4.544  12.546  0.0840 -0.1083  0.3098
13904TIP3    H163127   1.279   4.608  12.541 -0.5229 -0.8342 -0.3401
13904TIP3    H263128   1.430   4.597  12.537 -0.4286  0.5171 -0.6543
13905TIP3   OH263129   3.750   3.468  15.299 -0.2640 -0.1361 -0.2564
13905TIP3    H163130   3.801   3.534  15.346 -1.2394  1.1391 -0.9752
13905TIP3    H263131   3.777   3.385  15.338 -0.5969  0.8475  2.1134
13906TIP3   OH263132   6.695   3.560  12.752  0.2002  0.3550 -0.2971
13906TIP3    H163133   6.780   3.541  12.712 -0.4930 -1.5333 -0.9093
13906TIP3    H263134   6.632   3.552  12.680 -0.6880  0.0678  0.4966
13907TIP3   OH263135   1.288   0.318  11.692 -0.2466 -0.2159 -0.1067
13907TIP3    H163136   1.214   0.291  11.745 -0.6169 -1.4730 -1.2307
13907TIP3    H263137   1.319   0.238  11.650  0.8641  0.5240 -0.7598
13908TIP3   OH263138   2.085   3.390  15.720 -0.1679 -0.3992  0.0611
13908TIP3    H163139   2.108   3.480  15.695  2.9693 -0.5462  2.1005
13908TIP3    H263140   2.079   3.343  15.637 -3.1081  1.8958 -1.1351
13909TIP3   OH263141   6.511   4.448  11.821 -0.5125  0.6119  0.0728
13909TIP3    H163142   6.538   4.400  11.743 -2.2741 -0.5293  0.1270
13909TIP3    H263143   6.591   4.491  11.852  0.9940 -1.7290 -0.3719
13910TIP3   OH263144   5.804   0.610   0.190 -0.0510 -0.2261 -0.2644
13910TIP3    H163145   5.831   0.576   0.275  2.9292 -1.3745 -1.6194
13910TIP3    H263146   5.857   0.688   0.177 -1.4345  0.6889 -0.5267
13911TIP3   OH263147   2.754   0.853  13.109 -0.4754 -0.5196 -0.2377
13911TIP3    H163148   2.675   0.801  13.123  0.4499 -1.6097  1.0175
13911TIP3    H263149   2.750   0.921  13.176 -0.6053 -0.2717 -0.4974
13912TIP3   OH263150   2.196   2.675  14.198 -0.3824  0.0412 -0.0258
13912TIP3    H163151   2.149   2.685  14.115  1.3779  0.1510 -1.0305
13912TIP3    H263152   2.242   2.591  14.190  0.9989  0.7655  0.2312
13913TIP3   OH263153   5.460   5.004   5.353 -0.4181 -0.1214  0.2903
13913TIP3    H163154   5.484   4.991   5.444  1.2039 -1.9558 -0.3615
13913TIP3    H263155   5.430   4.917   5.324  0.4108  0.1131 -1.2910
13914TIP3   OH263156   5.307   4.779  11.494  0.0864 -0.0480  0.0705
13914TIP3    H163157   5.350   4.716  11.552  0.0981  0.6279  0.8108
13914TIP3    H263158   5.241   4.728  11.448 -0.0481 -0.5652  0.8181
13915TIP3   OH263159   3.263   3.719  15.933 -0.0368 -0.9195  0.1242
13915TIP3    H163160   3.341   3.701  15.881 -0.4866 -0.4562 -0.7113
13915TIP3    H263161   3.191   3.717  15.871 -0.4480  0.8178  0.5037
13916TIP3   OH263162   0.300   4.416   0.115  0.0428  0.3208 -0.0999
13916TIP3    H163163   0.329   4.429   0.025 -0.4243 -0.6729 -0.4073
13916TIP3    H263164   0.359   4.349   0.150  0.0979  0.5592  0.2694
13917TIP3   OH263165   4.465   4.133   6.330  0.3502 -0.3885 -0.7582
13917TIP3    H163166   4.394   4.070   6.318 -0.1911  0.1094 -0.2056
13917TIP3    H263167   4.453   4.197   6.261  1.1144 -1.0756 -1.5444
13918TIP3   OH263168   0.868   3.811   1.087  0.0306  0.8529 -0.3899
13918TIP3    H163169   0.895   3.760   1.011 -0.6602  1.3796 -0.9929
13918TIP3    H263170   0.847   3.897   1.052 -0.7857  0.9484  0.3141
13919TIP3   OH263171   4.241   5.272  15.122 -0.5576  0.1259  0.0036
13919TIP3    H163172   4.228   5.233  15.209  2.2573  0.8609  0.7868
13919TIP3    H263173   4.214   5.363  15.132 -0.1290  0.2385  0.1370
13920TIP3   OH263174   0.774   4.196   2.407  0.6395 -0.2321 -0.4067
13920TIP3    H163175   0.806   4.277   2.447 -2.8763  1.1196 -0.1133
13920TIP3    H263176   0.817   4.193   2.322  1.6632  1.3711  0.0341
13921TIP3   OH263177   5.768   1.319   1.819 -0.3839 -0.0937  0.2198
13921TIP3    H163178   5.716   1.338   1.896 -2.5548  0.5312 -1.3470
13921TIP3    H263179   5.805   1.403   1.793 -0.5435 -0.0961 -0.0248
13922TIP3   OH263180   5.790   3.449   4.975  0.0798  0.0463  0.2010
13922TIP3    H163181   5.707   3.434   5.020 -0.0545  0.2763  0.0247
13922TIP3    H263182   5.850   3.386   5.015 -0.1036  0.0806  0.5304
13923TIP3   OH263183   4.618   5.669  15.708 -0.2510  0.4148 -0.0425
13923TIP3    H163184   4.622   5.615  15.787 -1.5456  0.6817  0.2252
13923TIP3    H263185   4.615   5.606  15.636  3.0616  0.1769 -0.0321
13924TIP3   OH263186   5.379   5.825   2.309 -0.6888  0.0049  0.5553
13924TIP3    H163187   5.307   5.857   2.254 -0.6750  0.0047  0.5375
13924TIP3    H263188   5.336   5.772   2.376 -0.5401 -2.0157 -0.8703
13925TIP3   OH263189   2.893   0.479  12.516  0.0882  0.0621  0.6588
13925TIP3    H163190   2.877   0.554  12.460 -2.7538 -0.5563  0.5678
13925TIP3    H263191   2.976   0.499  12.560  0.1013  2.5594 -0.4150
13926TIP3   OH263192   5.867   1.856   2.751 -0.0707  0.5238 -0.4730
13926TIP3    H163193   5.930   1.800   2.799 -0.4740 -2.7016 -3.5039
13926TIP3    H263194   5.785   1.844   2.798  0.2770  0.1478  0.0577
13927TIP3   OH263195   1.980   2.192  14.991 -0.0960  0.3219 -0.2696
13927TIP3    H163196   1.967   2.183  15.085 -1.3460  0.1168 -0.4568
13927TIP3    H263197   2.000   2.104  14.961 -0.3533  0.2753 -0.3000
13928TIP3   OH263198   0.900   3.044   4.499  0.2624  0.3773 -0.8728
13928TIP3    H163199   0.828   2.982   4.486  0.6149 -0.1222 -0.4351
13928TIP3    H263200   0.979   2.993   4.485  0.6189  0.2687  1.3042
13929TIP3   OH263201   5.826   5.869   0.027 -0.3630  0.9323  0.1412
13929TIP3    H163202   5.824   5.930   0.101 -0.3403  0.5511  0.4586
13929TIP3    H263203   5.804   5.784   0.066  1.5101  0.3804  0.0372
13930TIP3   OH263204   0.783   0.387   4.296  0.0757 -0.4350 -0.3050
13930TIP3    H163205   0.836   0.366   4.373 -0.5174 -2.0652 -0.3320
13930TIP3    H263206   0.707   0.329   4.302 -0.7072  0.4583 -1.3469
13931TIP3   OH263207   3.135   0.086  16.322  0.4793  0.3681  0.2957
13931TIP3    H163208   3.175   0.085  16.409  0.4087 -0.3666  0.3211
13931TIP3    H263209   3.092   0.001  16.315  0.8521  0.2556 -0.6380
13932TIP3   OH263210   4.745   2.398  15.243 -0.4268 -0.2808 -0.7143
13932TIP3    H163211   4.838   2.409  15.260 -0.9537  0.8832  1.6780
13932TIP3    H263212   4.729   2.446  15.162  1.0440 -0.5270 -1.1635
13933TIP3   OH263213   0.755   2.045  14.012  0.0441  0.2074  0.2763
13933TIP3    H163214   0.689   1.988  14.050  1.2408  0.3100  2.6154
13933TIP3    H263215   0.784   2.100  14.085  1.2358  1.5718 -1.1808
13934TIP3   OH263216   5.150   0.461  12.005  0.4258  0.0743  0.6626
13934TIP3    H163217   5.114   0.513  12.078  2.9245  0.1422  1.9029
13934TIP3    H263218   5.219   0.516  11.969  2.2687 -1.8744  1.1826
13935TIP3   OH263219   0.095   4.018  13.219  0.8597 -0.5540  0.1400
13935TIP3    H163220   0.041   4.083  13.175 -0.3859  0.1122  2.5393
13935TIP3    H263221   0.033   3.952  13.251  2.0907 -3.0075 -2.2635
13936TIP3   OH263222   6.312   0.333   4.422  0.2811 -0.2374  0.3388
13936TIP3    H163223   6.303   0.428   4.416  0.9874 -0.0617  1.7852
13936TIP3    H263224   6.309   0.314   4.516 -1.5504 -1.8260 -0.0128
13937TIP3   OH263225   5.071   3.811  14.404 -0.2649  0.1345 -0.0127
13937TIP3    H163226   5.121   3.891  14.389 -0.4471  0.9462  3.2581
13937TIP3    H263227   5.129   3.741  14.376  0.2842  1.3502 -1.9918
13938TIP3   OH263228   5.364   1.569  12.456 -0.0072 -0.4836 -0.0917
13938TIP3    H163229   5.289   1.620  12.429 -0.8868 -1.0297  1.2498
13938TIP3    H263230   5.421   1.565  12.379 -1.6369 -0.5804 -1.2984
13939TIP3   OH263231   1.642   0.401  16.794  0.3925  0.3174 -0.4020
13939TIP3    H163232   1.590   0.464  16.844 -0.9787 -1.6233  0.6787
13939TIP3    H263233   1.606   0.405  16.705 -2.8137 -2.2283  0.7134
13940TIP3   OH263234   2.890   3.535   4.643  0.2035  0.7465 -0.5978
13940TIP3    H163235   2.984   3.523   4.651  0.5491  3.2628 -0.6353
13940TIP3    H263236   2.860   3.549   4.733 -0.0225  0.7778 -0.6771
13941TIP3   OH263237   5.528   6.579  13.359  0.1483 -0.4189 -0.2357
13941TIP3    H163238   5.582   6.605  13.284 -0.7728 -0.6410 -0.9852
13941TIP3    H263239   5.568   6.498  13.390  1.3425  0.3840  0.3611
13942TIP3   OH263240   1.598   4.266  15.825  0.6878 -0.0283  0.1605
13942TIP3    H163241   1.575   4.321  15.750  1.9927 -0.4823 -0.5913
13942TIP3    H263242   1.683   4.299  15.854  0.8189 -0.7268  0.5824
13943TIP3   OH263243   3.383   2.317  14.924  0.6650 -0.1796 -0.7629
13943TIP3    H163244   3.289   2.330  14.914  0.2028 -0.9536  2.0902
13943TIP3    H263245   3.413   2.290  14.837 -1.5494  1.0404 -1.9500
13944TIP3   OH263246   4.563   4.145   3.468  0.4182 -0.1913 -0.2830
13944TIP3    H163247   4.598   4.183   3.549 -2.9576  0.7269  0.8114
13944TIP3    H263248   4.641   4.119   3.419  2.7471  4.0659  0.8861
13945TIP3   OH263249   5.943   4.432   4.609 -0.3784 -0.1020  0.4074
13945TIP3    H163250   5.915   4.480   4.531 -1.5169  1.4098  1.7061
13945TIP3    H263251   6.009   4.489   4.649 -0.0115 -0.7275  0.6901
13946TIP3   OH263252   0.882   3.871   2.471  0.6221  0.3183 -0.4068
13946TIP3    H163253   0.928   3.792   2.442 -0.3381  0.1902 -1.6001
13946TIP3    H263254   0.909   3.939   2.408  0.9037  0.7770  0.2025
13947TIP3   OH263255   2.007   3.213  16.832 -0.3011  0.1884 -0.2702
13947TIP3    H163256   1.974   3.294  16.871 -0.8308  0.4256 -1.1786
13947TIP3    H263257   1.965   3.143  16.881 -0.6132  0.4801 -0.1237
13948TIP3   OH263258   3.393   0.303  15.478 -0.8765  0.1965  0.4667
13948TIP3    H163259   3.374   0.210  15.483  0.8008 -0.1831  0.1696
13948TIP3    H263260   3.454   0.319  15.551  0.6042  0.5930 -0.8316
13949TIP3   OH263261   1.105   1.827   2.911  0.0417 -0.4715  0.3135
13949TIP3    H163262   1.102   1.742   2.868  0.3253 -1.1823  1.6752
13949TIP3    H263263   1.030   1.827   2.971  0.4502 -0.0432  0.8347
13950TIP3   OH263264   0.870   2.876   3.109  0.1731  0.6535  0.4492
13950TIP3    H163265   0.894   2.968   3.119 -1.1432  1.1713 -0.9946
13950TIP3    H263266   0.796   2.863   3.168  2.5199 -0.4181  3.3173
13951TIP3   OH263267   0.175   0.045  15.073 -0.2897  0.2794  0.2114
13951TIP3    H163268   0.124  -0.018  15.123  0.5772  0.9047  1.8970
13951TIP3    H263269   0.243  -0.007  15.030 -0.4885 -0.1265  0.3849
13952TIP3   OH263270   4.574   6.023  16.837 -0.5915 -0.3966  0.2177
13952TIP3    H163271   4.599   5.944  16.789  0.8419  0.2305 -0.1076
13952TIP3    H263272   4.501   5.996  16.893  1.2224 -2.4755  1.6662
13953TIP3   OH263273   0.846   6.672  16.522  0.1490  0.2327 -0.2201
13953TIP3    H163274   0.931   6.684  16.481  0.0353 -0.5097 -0.6781
13953TIP3    H263275   0.841   6.741  16.588  1.5494 -0.4047  0.5523
13954TIP3   OH263276   4.628   1.632  16.473 -0.3673 -0.5862  0.5512
13954TIP3    H163277   4.597   1.721  16.458 -0.0307 -0.6612 -0.6612
13954TIP3    H263278   4.559   1.576  16.436  1.1236 -0.7543 -2.0833
13955TIP3   OH263279   4.739   3.766   3.877 -0.0085  0.5328 -0.4631
13955TIP3    H163280   4.649   3.734   3.877 -0.0966  0.6666  2.5189
13955TIP3    H263281   4.756   3.792   3.968  2.6514  1.6124 -1.2084
13956TIP3   OH263282   4.336   4.288   3.500 -0.2410 -0.1231 -0.1082
13956TIP3    H163283   4.348   4.293   3.595  2.2534  2.1967 -0.4907
13956TIP3    H263284   4.419   4.253   3.467 -0.3872  0.8589 -1.5657
13957TIP3   OH263285   0.273   0.982   4.186 -0.1596  0.3134 -0.0722
13957TIP3    H163286   0.285   1.059   4.241 -0.1463  0.1912  0.0958
13957TIP3    H263287   0.202   1.006   4.126  0.5149  0.8155 -0.6690
13958TIP3   OH263288   1.458   3.143   5.827 -0.3122  0.6006 -0.0247
13958TIP3    H163289   1.395   3.130   5.756 -0.0241 -2.0502  0.1639
13958TIP3    H263290   1.460   3.238   5.840 -1.2149  1.0343 -2.7628
13959TIP3   OH263291   3.213   5.799   5.367 -0.2755 -0.6638  0.2538
13959TIP3    H163292   3.152   5.747   5.420  1.3248 -1.0787  1.7023
13959TIP3    H263293   3.292   5.806   5.420  0.0040  2.1510 -0.4847
13960TIP3   OH263294   2.229   4.813  13.563  0.4081 -0.0819 -0.2306
13960TIP3    H163295   2.150   4.768  13.594 -0.6535  0.8279 -1.5481
13960TIP3    H263296   2.302   4.762  13.599 -0.7729 -0.7152  1.3152
13961TIP3   OH263297   2.950   2.693   5.292  0.6088 -0.6224 -0.2228
13961TIP3    H163298   2.939   2.696   5.387  2.3232  0.6540 -0.0337
13961TIP3    H263299   2.890   2.760   5.259  1.6851  0.5564  0.1622
13962TIP3   OH263300   0.662   0.923  13.220 -0.5817 -0.1241 -0.5929
13962TIP3    H163301   0.612   1.000  13.192 -1.9775  0.5126  3.3442
13962TIP3    H263302   0.718   0.954  13.291 -0.0644 -2.4344  0.0784
13963TIP3   OH263303   3.926   6.437  12.718 -0.3466  0.5414 -0.5928
13963TIP3    H163304   3.836   6.458  12.696 -0.9100  1.7887  2.6607
13963TIP3    H263305   3.920   6.368  12.784  1.0443  0.8145 -0.1472
13964TIP3   OH263306   6.495   5.719  15.307  0.1375 -0.9741  0.2941
13964TIP3    H163307   6.494   5.804  15.262 -2.0062  0.2848  2.6259
13964TIP3    H263308   6.490   5.654  15.236 -0.0286  0.8678 -1.4142
13965TIP3   OH263309   6.118   1.172   3.974  0.1527 -0.4657 -0.0100
13965TIP3    H163310   6.186   1.173   3.907 -1.8417 -0.6918 -2.1369
13965TIP3    H263311   6.105   1.264   3.998  0.7311 -0.3630 -0.1013
13966TIP3   OH263312   1.221   1.058  12.158 -0.0129  0.1782 -0.3913
13966TIP3    H163313   1.190   1.087  12.072 -1.1407 -0.4082 -0.2046
13966TIP3    H263314   1.146   1.074  12.216  0.7116  0.4846  0.4595
13967TIP3   OH263315   4.202   2.942  16.404  0.3555 -0.5143  0.0521
13967TIP3    H163316   4.238   3.029  16.387  0.5386 -0.0000  2.8272
13967TIP3    H263317   4.212   2.895  16.321  0.8963  1.8705 -1.2748
13968TIP3   OH263318   3.963   0.829  13.193 -0.1875 -0.4803 -0.1323
13968TIP3    H163319   4.004   0.822  13.279 -0.1845 -1.7373 -0.2327
13968TIP3    H263320   3.874   0.798  13.207 -0.0974 -0.9649 -0.6488
13969TIP3   OH263321   1.677   5.685  12.308 -0.5101  0.0833 -0.1073
13969TIP3    H163322   1.749   5.641  12.355  0.4487  1.9603  0.2224
13969TIP3    H263323   1.698   5.778  12.314 -0.9855  0.4287 -3.3069
13970TIP3   OH263324   3.282   3.841   2.392 -0.4607 -0.0545  0.1514
13970TIP3    H163325   3.319   3.757   2.364 -1.9882 -0.9396  0.7283
13970TIP3    H263326   3.264   3.888   2.311 -1.7219 -1.2253 -0.2568
13971TIP3   OH263327   2.789   3.246  12.184 -0.5004 -0.1553  0.3879
13971TIP3    H163328   2.724   3.292  12.237 -2.0709  1.5603 -2.8148
13971TIP3    H263329   2.856   3.313  12.167 -0.2724 -0.5264 -0.1712
13972TIP3   OH263330   2.383   5.094  14.328 -0.0150 -0.1110  0.3903
13972TIP3    H163331   2.355   5.006  14.353  0.9838 -0.3930  0.5155
13972TIP3    H263332   2.390   5.142  14.410 -3.9898  1.1594  0.1307
13973TIP3   OH263333   5.491   2.387   3.587 -0.4035  0.5018 -0.2616
13973TIP3    H163334   5.527   2.466   3.628  2.8775 -0.5298 -1.0759
13973TIP3    H263335   5.485   2.323   3.657  3.3452 -0.6333 -0.9041
13974TIP3   OH263336   0.851   1.888  12.022  0.2093  0.6722 -0.1951
13974TIP3    H163337   0.873   1.980  12.008  2.5453  0.0945 -0.5764
13974TIP3    H263338   0.911   1.840  11.965  0.2128 -1.1546  1.2878
13975TIP3   OH263339   6.260   1.684  12.461  0.6713  0.0853 -0.3174
13975TIP3    H163340   6.333   1.712  12.405  1.2582 -1.1121 -0.1685
13975TIP3    H263341   6.194   1.751  12.449  0.1828 -0.9008 -3.6807
13976TIP3   OH263342   2.901   4.157  15.580  0.2749 -0.2368 -0.1512
13976TIP3    H163343   2.866   4.239  15.545 -0.2973 -0.7790 -0.8739
13976TIP3    H263344   2.844   4.137  15.654  1.6074  1.0134  1.2481
13977TIP3   OH263345   5.610   0.143  16.024  0.5848  0.3426  0.0622
13977TIP3    H163346   5.693   0.149  15.976 -0.9244  0.3122 -2.6820
13977TIP3    H263347   5.580   0.233  16.031 -0.3137  0.1475 -1.1317
13978TIP3   OH263348   4.833   0.401  12.273  0.2009 -0.2733  0.2276
13978TIP3    H163349   4.740   0.406  12.254 -0.2941 -1.2075  2.2943
13978TIP3    H263350   4.838   0.361  12.360  2.3771  2.4909  1.4638
13979TIP3   OH263351   3.403   4.626   1.364  0.0591  0.7901  0.1372
13979TIP3    H163352   3.307   4.629   1.371 -0.1245  3.4145 -2.4195
13979TIP3    H263353   3.434   4.655   1.450 -1.3769 -1.2383  1.3907
13980TIP3   OH263354   3.802   5.336   0.755 -0.0919 -0.4338 -0.1767
13980TIP3    H163355   3.742   5.278   0.801  0.1972  0.1413  0.9450
13980TIP3    H263356   3.767   5.424   0.773  0.5974 -0.1510 -0.2251
13981TIP3   OH263357   0.141   1.508   3.878  0.2215 -0.3794 -0.1060
13981TIP3    H163358   0.069   1.524   3.939 -1.4677 -3.0712 -1.2919
13981TIP3    H263359   0.130   1.573   3.809  0.3692  0.7605  0.9402
13982TIP3   OH263360   1.470   1.521  17.234  0.0217  0.1893 -0.2455
13982TIP3    H163361   1.439   1.484  17.316  2.8165 -0.2291  0.6995
13982TIP3    H263362   1.392   1.553  17.190 -1.8074 -1.8507  1.4406
13983TIP3   OH263363   0.596   3.836   4.669 -0.2662 -0.0585 -0.2636
13983TIP3    H163364   0.516   3.820   4.620 -0.5795  1.1525 -0.1853
13983TIP3    H263365   0.570   3.826   4.761 -0.9633  2.7339 -0.1023
13984TIP3   OH263366   1.149   2.075  11.798  0.3043  0.8088 -0.2351
13984TIP3    H163367   1.204   1.996  11.800 -0.7813  0.0495  0.1107
13984TIP3    H263368   1.161   2.114  11.885 -1.1483 -0.3839  0.5311
13985TIP3   OH263369   5.044   4.214  15.868 -0.1145  0.3971  0.5371
13985TIP3    H163370   5.131   4.222  15.830 -0.4539  0.0501 -0.3438
13985TIP3    H263371   5.059   4.196  15.961  0.7587 -0.1108  0.3033
13986TIP3   OH263372   0.326   5.572   4.684 -0.4338 -0.5795  0.6659
13986TIP3    H163373   0.285   5.530   4.759  0.6867 -1.4684  0.7971
13986TIP3    H263374   0.263   5.562   4.613 -0.9637 -0.8280  1.1727
13987TIP3   OH263375   3.978   2.796   4.108  0.3665  0.4712  0.2251
13987TIP3    H163376   3.933   2.732   4.164  0.4400  0.0266 -0.2246
13987TIP3    H263377   3.924   2.874   4.114 -0.2394  0.0730  0.0211
13988TIP3   OH263378   5.668   0.696   3.607 -0.4600  0.8419  0.1796
13988TIP3    H163379   5.630   0.785   3.604  2.5472  2.1267 -1.1850
13988TIP3    H263380   5.673   0.669   3.515 -2.3265 -1.2252  0.6469
13989TIP3   OH263381   4.780   4.920   6.340  0.4397  0.2514  0.6454
13989TIP3    H163382   4.728   4.852   6.298  0.9922  1.2496 -1.7526
13989TIP3    H263383   4.790   4.891   6.431 -1.7731 -1.4027  0.3889
13990TIP3   OH263384   0.678   2.556   3.582 -0.0624  0.4612 -0.3045
13990TIP3    H163385   0.602   2.614   3.586 -0.2566  0.1593  0.5927
13990TIP3    H263386   0.710   2.553   3.672  2.8368  2.9634 -1.1854
13991TIP3   OH263387   2.006   0.230  17.171 -0.4666 -0.1088  0.1311
13991TIP3    H163388   1.962   0.312  17.148 -0.4831 -0.4209 -0.9459
13991TIP3    H263389   2.090   0.234  17.125 -1.5665 -1.8795 -2.0862
13992TIP3   OH263390   3.775   5.438   1.806 -1.0340  0.2394 -0.0053
13992TIP3    H163391   3.792   5.489   1.885 -2.5211  0.6440  0.0781
13992TIP3    H263392   3.679   5.437   1.798 -0.9282 -0.2807 -1.4809
13993TIP3   OH263393   0.898   2.194   1.579  0.2501  0.3652  0.0415
13993TIP3    H163394   0.942   2.190   1.494  0.1992 -0.9291  0.0566
13993TIP3    H263395   0.890   2.102   1.606 -2.1132  0.5833  0.2159
13994TIP3   OH263396   2.672   1.432  13.205  0.5559 -0.3295  0.0049
13994TIP3    H163397   2.652   1.347  13.166  1.6240 -0.0975 -1.1043
13994TIP3    H263398   2.701   1.486  13.131 -1.8378  1.5679  0.3941
13995TIP3   OH263399   4.731   4.123  14.911  0.8643 -0.0298 -0.4716
13995TIP3    H163400   4.654   4.088  14.866  0.0692 -1.1594  1.7105
13995TIP3    H263401   4.698   4.195  14.964  1.2759 -0.6450  0.6229
13996TIP3   OH263402   4.460   0.580   1.713 -0.3000  0.1663 -0.1436
13996TIP3    H163403   4.512   0.525   1.771  0.1236  1.3510  0.6201
13996TIP3    H263404   4.515   0.657   1.697 -0.5369 -0.0016 -1.8639
13997TIP3   OH263405   5.180   3.609   2.563 -0.2038 -0.7068 -0.8002
13997TIP3    H163406   5.239   3.536   2.580  0.7623  0.1858 -0.2632
13997TIP3    H263407   5.234   3.687   2.574 -1.7384  0.1745  0.9270
13998TIP3   OH263408   2.351   3.302   3.225 -0.1920  0.3053  0.4316
13998TIP3    H163409   2.271   3.251   3.209 -0.5397  1.1109 -0.4289
13998TIP3    H263410   2.421   3.238   3.223 -0.8721 -0.5018  1.7604
13999TIP3   OH263411   1.580   0.618  16.982  0.1461  0.3355 -0.1103
13999TIP3    H163412   1.555   0.695  17.033  0.1011  0.1093  0.2049
13999TIP3    H263413   1.660   0.645  16.935  0.7418  0.2214  0.8328
14000TIP3   OH263414   3.766   1.882   5.971  0.1640  0.3128  0.2943
14000TIP3    H163415   3.855   1.861   5.946  0.5022 -0.4237  2.0118
14000TIP3    H263416   3.757   1.976   5.954  0.5410 -0.0411 -1.9229
14001TIP3   OH263417   1.402   5.606  11.156 -0.2594 -0.1013 -0.0446
14001TIP3    H163418   1.398   5.574  11.066  1.6146 -0.6996  0.0701
14001TIP3    H263419   1.310   5.617  11.181 -0.8611 -2.1610 -1.2285
14002TIP3   OH263420   1.368   5.109  10.395 -0.0082 -0.2935 -0.3763
14002TIP3    H163421   1.373   5.013  10.385  1.1471 -0.3287  0.5571
14002TIP3    H263422   1.458   5.136  10.412 -0.8460  0.5694  2.8906
14003TIP3   OH263423   1.497   4.474   4.045 -0.4361  0.3736  0.0017
14003TIP3    H163424   1.548   4.530   3.987 -0.4776  0.0638 -0.3311
14003TIP3    H263425   1.561   4.440   4.108 -0.2387  0.0019 -0.4046
14004TIP3   OH263426   4.548   2.890  12.663 -0.4494 -0.1930 -0.7934
14004TIP3    H163427   4.634   2.881  12.622 -0.2111  0.0102 -0.3474
14004TIP3    H263428   4.486   2.861  12.596 -0.1690  1.5150 -1.8443
14005TIP3   OH263429   1.851   5.308   4.449  0.1926  0.1373  0.2751
14005TIP3    H163430   1.901   5.384   4.421 -0.0643 -0.9781 -3.4610
14005TIP3    H263431   1.805   5.279   4.370 -1.4644 -2.5672  2.1432
14006TIP3   OH263432   4.595   1.928   6.399 -0.3616 -0.1613 -0.0312
14006TIP3    H163433   4.512   1.917   6.354 -1.0566 -0.4940  1.3271
14006TIP3    H263434   4.575   1.983   6.475  0.2998 -1.6846  1.2787
14007TIP3   OH263435   3.203   1.762   5.561  0.2288 -0.1700 -0.8539
14007TIP3    H163436   3.215   1.852   5.592  0.4233  0.8416 -3.6947
14007TIP3    H263437   3.289   1.736   5.528  0.0614 -1.2279 -0.4879
14008TIP3   OH263438   6.440   0.198  16.692  0.2388  0.7014 -0.0212
14008TIP3    H163439   6.365   0.244  16.652  0.6025  0.6819 -0.7381
14008TIP3    H263440   6.516   0.235  16.648  0.6552  0.7050  0.7013
14009TIP3   OH263441   4.624   4.374  13.895 -0.5500 -0.0242  0.3296
14009TIP3    H163442   4.602   4.444  13.834 -2.1056 -1.2681 -0.5847
14009TIP3    H263443   4.554   4.378  13.961  0.3700  0.4372  1.3051
14010TIP3   OH263444   6.229   1.987   0.053 -0.1245 -0.3269  0.2016
14010TIP3    H163445   6.176   2.058   0.017  0.6590 -0.0012 -0.3176
14010TIP3    H263446   6.202   1.982   0.145 -0.6727  0.1802  0.0754
14011TIP3   OH263447   3.367   2.906  17.218  0.0685  0.6056 -0.2892
14011TIP3    H163448   3.417   2.855  17.281 -2.3653 -1.2466  0.1949
14011TIP3    H263449   3.381   2.862  17.134 -0.6097  0.1704 -0.1788
14012TIP3   OH263450   0.964   2.982  17.029 -0.3393  0.0335 -0.1895
14012TIP3    H163451   0.994   2.974  17.120 -0.5708  1.2149 -0.0023
14012TIP3    H263452   0.929   3.071  17.023  1.1987  0.5518 -1.8868
14013TIP3   OH263453   0.258   1.627  14.974 -0.5853  0.0188  0.0290
14013TIP3    H163454   0.193   1.681  14.930  1.0867 -0.0125 -2.6103
14013TIP3    H263455   0.275   1.671  15.057 -1.4293  1.9153 -0.7870
14014TIP3   OH263456   6.134   4.555  13.763 -0.0027 -0.1149  0.0965
14014TIP3    H163457   6.115   4.500  13.838 -0.3703 -1.8283 -1.2152
14014TIP3    H263458   6.226   4.580  13.774  0.6678 -2.3494 -0.0926
14015TIP3   OH263459   4.683   5.287  17.236 -0.1658  0.1746 -0.0962
14015TIP3    H163460   4.681   5.315  17.328  1.1946 -0.9385  0.2925
14015TIP3    H263461   4.591   5.275  17.213 -0.5831  1.5176  0.7839
14016TIP3   OH263462   1.823   4.697  10.699 -1.1867  0.0534  0.1663
14016TIP3    H163463   1.890   4.759  10.728 -0.8935 -0.9173  1.6000
14016TIP3    H263464   1.839   4.686  10.605  0.1411  0.4577  0.3411
14017TIP3   OH263465   5.291   4.371   2.116  0.4286  0.2341 -0.0359
14017TIP3    H163466   5.379   4.333   2.110  0.5776  0.3732  1.1186
14017TIP3    H263467   5.307   4.464   2.133  0.0546  0.2728  0.0952
14018TIP3   OH263468   3.457   6.494   2.951  0.1013  0.4734  0.1025
14018TIP3    H163469   3.548   6.464   2.952 -0.2604 -0.6336  0.8465
14018TIP3    H263470   3.457   6.574   3.004  0.5171  0.1174  0.6398
14019TIP3   OH263471   0.820   1.274  13.274  0.6989  0.0192  0.2567
14019TIP3    H163472   0.793   1.360  13.305  1.3967  0.1172  0.6196
14019TIP3    H263473   0.847   1.289  13.183 -0.1916 -0.0252 -0.0114
14020TIP3   OH263474   0.738   6.519  14.982 -0.2099  0.0130 -0.5744
14020TIP3    H163475   0.785   6.592  15.021 -1.2176  1.1976 -1.5502
14020TIP3    H263476   0.741   6.450  15.048 -0.3077  1.3532  0.8440
14021TIP3   OH263477   5.265   4.121   4.618 -0.2858 -0.3076 -0.2066
14021TIP3    H163478   5.319   4.069   4.559  0.7593 -0.1751  0.6081
14021TIP3    H263479   5.225   4.188   4.562  1.6257  0.5604 -0.5840
14022TIP3   OH263480   3.084   0.692   1.587  0.3594  0.0525  0.1290
14022TIP3    H163481   3.016   0.744   1.545 -0.9276 -2.2790 -0.7900
14022TIP3    H263482   3.061   0.693   1.680  0.1297  0.7645  0.0705
14023TIP3   OH263483   4.139   1.684   5.189 -0.2764  0.4115  0.0564
14023TIP3    H163484   4.149   1.768   5.233  1.2771  0.7874 -0.9791
14023TIP3    H263485   4.220   1.673   5.138  0.0836 -2.2075  1.0597
14024TIP3   OH263486   2.732   5.539   1.691 -0.1612 -0.5095 -0.1414
14024TIP3    H163487   2.659   5.484   1.663 -0.8945 -0.0758  0.8962
14024TIP3    H263488   2.762   5.499   1.772 -1.2144  1.0427  1.0582
14025TIP3   OH263489   2.158   0.979   0.006  0.1083  0.5866  0.2148
14025TIP3    H163490   2.190   1.001   0.094  0.6309  2.1135 -0.3415
14025TIP3    H263491   2.236   0.981  -0.049 -0.1980 -0.4914 -0.2780
14026TIP3   OH263492   5.376   1.588   1.064 -0.0993 -0.0772 -0.3582
14026TIP3    H163493   5.393   1.571   0.971 -1.5668 -0.8884 -0.4958
14026TIP3    H263494   5.428   1.665   1.084  0.9740 -0.4583 -1.6171
14027TIP3   OH263495   1.381   5.508   5.672 -0.1014 -0.2858  0.3384
14027TIP3    H163496   1.309   5.520   5.610 -0.9867  0.7813  1.5411
14027TIP3    H263497   1.358   5.429   5.721  0.4472 -0.9567 -0.4721
14028TIP3   OH263498   5.723   2.883  12.283  0.0002  0.1184 -0.1928
14028TIP3    H163499   5.817   2.867  12.278 -0.4420 -3.7184  2.3009
14028TIP3    H263500   5.694   2.886  12.192  2.2465 -0.4479 -0.9486
14029TIP3   OH263501   3.479   5.763  11.863 -0.2136 -0.4825  0.0538
14029TIP3    H163502   3.392   5.763  11.901 -1.1431 -0.1165 -2.0080
14029TIP3    H263503   3.503   5.670  11.857 -1.3783 -0.7065 -1.3621
14030TIP3   OH263504   1.534   0.196   0.147 -0.1024  0.4218 -0.1840
14030TIP3    H163505   1.620   0.233   0.127  1.1619 -2.3127  0.0173
14030TIP3    H263506   1.481   0.214   0.070  1.4141 -0.0856 -1.3637
14031TIP3   OH263507   4.017   1.301  12.019  0.2729  0.1265  0.0452
14031TIP3    H163508   4.103   1.258  12.024 -0.2231 -0.7446  1.3163
14031TIP3    H263509   3.976   1.282  12.103 -1.3479  0.1552 -0.7202
14032TIP3   OH263510   1.846   1.929   1.046 -0.4089  0.1212  0.0976
14032TIP3    H163511   1.762   1.956   1.007 -0.1656 -0.1069 -0.5894
14032TIP3    H263512   1.875   1.856   0.992 -1.6228 -2.3424  2.6422
14033TIP3   OH263513   1.341   3.033  11.137 -0.1220 -0.0112  0.1251
14033TIP3    H163514   1.374   3.123  11.128  1.0295 -0.4433 -0.0216
14033TIP3    H263515   1.413   2.985  11.177 -1.3513 -0.5135  1.7961
14034TIP3   OH263516   5.234   1.518   4.192  0.2936  0.4078 -0.3463
14034TIP3    H163517   5.267   1.607   4.201 -1.0762  0.9703 -0.7255
14034TIP3    H263518   5.234   1.482   4.281 -0.6711  1.3547  0.0464
14035TIP3   OH263519   1.988   5.757   5.869  0.3565 -0.3189 -0.2413
14035TIP3    H163520   1.909   5.785   5.915  0.4628 -1.0229  0.3854
14035TIP3    H263521   1.957   5.694   5.804  0.3758 -0.4086 -0.1632
14036TIP3   OH263522   1.180   2.325   0.664  0.0905  0.5756 -0.9314
14036TIP3    H163523   1.169   2.264   0.590  0.6862 -0.2948 -0.3136
14036TIP3    H263524   1.264   2.367   0.649  0.5716 -0.1736 -0.3379
14037TIP3   OH263525   3.350   6.335   1.143 -0.0054 -0.0350  0.3504
14037TIP3    H163526   3.268   6.303   1.179 -0.3005  0.0112 -0.2769
14037TIP3    H263527   3.418   6.285   1.189 -0.2435  2.0179  3.0184
14038TIP3   OH263528   2.413   3.545  16.007 -0.2134  0.0219 -0.2796
14038TIP3    H163529   2.425   3.500  15.923 -2.7512 -1.2903  0.0064
14038TIP3    H263530   2.370   3.627  15.983 -0.2141  0.0068 -0.3307
14039TIP3   OH263531   5.169   3.432  13.257  0.0281 -0.0238 -0.2069
14039TIP3    H163532   5.242   3.427  13.319 -0.0412 -0.0567 -0.1283
14039TIP3    H263533   5.122   3.512  13.281  0.4751  0.3937 -0.7414
14040TIP3   OH263534   4.890   6.217   5.523 -0.0348 -0.0997 -0.1809
14040TIP3    H163535   4.823   6.209   5.591  0.2211  2.0487  0.3797
14040TIP3    H263536   4.909   6.127   5.496 -1.9961 -0.8277  0.7656
14041TIP3   OH263537   6.113   5.238   4.998  0.2997  0.6883  0.0004
14041TIP3    H163538   6.039   5.202   5.046  0.1021 -1.0691 -1.5883
14041TIP3    H263539   6.181   5.171   5.005 -0.1876 -0.2215 -3.2534
14042TIP3   OH263540   6.092   1.195   5.704 -0.0931  0.6320  0.3797
14042TIP3    H163541   6.001   1.205   5.676  0.3147  0.7930 -0.9212
14042TIP3    H263542   6.088   1.126   5.771 -1.3854  1.8108  1.5505
14043TIP3   OH263543   4.494   1.856   0.649  0.2415  0.0901 -0.4616
14043TIP3    H163544   4.487   1.887   0.739  0.0415  0.4454 -0.6038
14043TIP3    H263545   4.586   1.829   0.641  0.5388  1.1079 -0.4993
14044TIP3   OH263546   0.694   6.031   1.468  0.1066  1.1162 -0.6927
14044TIP3    H163547   0.658   6.094   1.531  1.1266  2.6003 -1.5851
14044TIP3    H263548   0.623   6.016   1.406 -0.3363  0.9072 -0.1484
14045TIP3   OH263549   6.775   0.686  15.227  0.0086  0.0052 -0.2180
14045TIP3    H163550   6.814   0.711  15.144 -2.0108 -2.3693 -1.9693
14045TIP3    H263551   6.706   0.751  15.241 -1.6152 -1.2969 -1.9591
14046TIP3   OH263552   2.593   5.292   6.561  0.3478 -0.1777  0.0077
14046TIP3    H163553   2.564   5.342   6.636 -0.4505 -0.8457  0.1549
14046TIP3    H263554   2.619   5.358   6.496 -0.1152  0.4159  0.4204
14047TIP3   OH263555   6.356   3.713  12.309  0.2144  1.6046 -0.7227
14047TIP3    H163556   6.345   3.693  12.402 -1.8684  2.3798 -0.7809
14047TIP3    H263557   6.392   3.632  12.271  0.5085  1.0884  0.6432
14048TIP3   OH263558   5.054   6.107   0.659 -0.1951 -0.6012 -0.3864
14048TIP3    H163559   4.981   6.100   0.721  0.6019  0.2111  0.6570
14048TIP3    H263560   5.096   6.021   0.661 -1.1697 -1.1045 -1.0655
14049TIP3   OH263561   6.688   5.716   5.127  0.0033 -0.0784  0.3947
14049TIP3    H163562   6.718   5.668   5.049  0.1344 -2.9924  2.1416
14049TIP3    H263563   6.600   5.683   5.142  0.5403 -0.6917  2.3272
14050TIP3   OH263564   6.456   6.202   3.593 -0.0569 -0.4562  0.2837
14050TIP3    H163565   6.378   6.152   3.568 -0.3439  0.2756 -0.2991
14050TIP3    H263566   6.510   6.139   3.641 -0.6537 -1.1797  0.0250
14051TIP3   OH263567   5.943   0.305   2.776  0.1793  0.7042  0.6664
14051TIP3    H163568   5.998   0.255   2.714 -0.8064  0.6303 -0.1626
14051TIP3    H263569   5.926   0.244   2.847  0.3860  0.4137  0.4722
14052TIP3   OH263570   0.374   0.798   5.454  0.1074  0.5081 -0.3031
14052TIP3    H163571   0.385   0.755   5.538  0.7651 -0.1458 -0.7110
14052TIP3    H263572   0.448   0.859   5.449  0.0396  0.5841 -0.3830
14053TIP3   OH263573   2.155   1.074  12.073  0.2243 -0.0556  0.5130
14053TIP3    H163574   2.176   1.042  11.986 -0.1975 -0.3447  0.5162
14053TIP3    H263575   2.150   1.169  12.063  0.5533 -0.0595  0.3046
14054TIP3   OH263576   4.298   5.826  16.555  0.3307 -0.0721 -0.3933
14054TIP3    H163577   4.314   5.889  16.625 -0.7604  0.0799 -0.2736
14054TIP3    H263578   4.260   5.750  16.598  1.0190 -0.5614 -0.6309
14055TIP3   OH263579   2.975   6.129  14.427  0.0577  0.0552  0.2920
14055TIP3    H163580   2.963   6.111  14.520 -0.3208 -1.0897  0.0338
14055TIP3    H263581   3.059   6.175  14.421  0.6423 -0.9112  1.0708
14056TIP3   OH263582   2.379   6.438  11.248  0.3901 -0.8086  0.2316
14056TIP3    H163583   2.347   6.372  11.309 -2.5633 -1.1084 -1.5382
14056TIP3    H263584   2.350   6.408  11.162  1.3781  1.4110 -0.9215
14057TIP3   OH263585   3.973   0.814  10.855 -0.2241 -0.0870  0.4265
14057TIP3    H163586   3.991   0.758  10.779 -0.8865 -0.4259  0.5184
14057TIP3    H263587   3.898   0.773  10.898 -2.0365  2.0285 -0.6612
14058TIP3   OH263588   6.242   0.805   2.669  0.0321  0.1926  0.3139
14058TIP3    H163589   6.190   0.819   2.748  0.4362  0.0830  0.6003
14058TIP3    H263590   6.262   0.893   2.637  1.3036  0.2730  1.2774
14059TIP3   OH263591   4.220   0.069   2.171  1.0004 -0.3265 -0.4770
14059TIP3    H163592   4.143   0.125   2.183 -0.5786 -2.5880  0.2907
14059TIP3    H263593   4.220   0.012   2.248  2.2525 -1.7585 -1.5024
14060TIP3   OH263594   0.568   5.445   4.686 -0.3331 -0.6443  0.0702
14060TIP3    H163595   0.533   5.356   4.692  0.2427 -0.8641  0.1807
14060TIP3    H263596   0.538   5.478   4.601  1.6119 -1.8756 -1.1364
14061TIP3   OH263597   4.764   3.228  13.001  0.0378 -0.0115 -0.0581
14061TIP3    H163598   4.822   3.162  13.039 -0.9530  0.2456  1.9369
14061TIP3    H263599   4.731   3.187  12.920  1.6272 -0.8299 -0.3198
14062TIP3   OH263600   3.301   3.552   0.563  0.1469 -0.1070  0.2073
14062TIP3    H163601   3.299   3.461   0.535 -3.7491 -0.7541  2.2077
14062TIP3    H263602   3.269   3.601   0.487  2.9701 -0.2469 -1.1319
14063TIP3   OH263603   3.661   2.712   5.046  0.5407 -0.0284 -0.5155
14063TIP3    H163604   3.568   2.736   5.046  0.8918  1.4834  1.7632
14063TIP3    H263605   3.707   2.794   5.028  1.4870 -0.5037 -0.2812
14064TIP3   OH263606   2.546   5.994   3.805 -0.7889 -0.3150 -0.3691
14064TIP3    H163607   2.486   6.061   3.772 -0.3776  0.5185  0.5616
14064TIP3    H263608   2.566   6.021   3.894  1.3356 -0.3323 -0.8193
14065TIP3   OH263609   3.018   5.367   5.652  0.1431 -0.4484  0.1663
14065TIP3    H163610   3.011   5.285   5.700  2.2527  0.7031  2.5619
14065TIP3    H263611   2.932   5.408   5.662 -0.1616 -1.2771  0.9942
14066TIP3   OH263612   2.598   1.473  11.865  0.4121 -0.2070  0.2775
14066TIP3    H163613   2.523   1.474  11.925 -0.6297  0.2262 -1.0196
14066TIP3    H263614   2.584   1.396  11.810  1.4343 -0.6731  0.6697
14067TIP3   OH263615   6.229   2.593   6.313 -0.1676  0.5381 -0.2796
14067TIP3    H163616   6.157   2.598   6.250 -0.4236  0.3349 -0.0054
14067TIP3    H263617   6.213   2.665   6.374 -0.2655  0.3520 -0.0856
14068TIP3   OH263618   3.046   0.994   5.451 -0.6072 -0.2801 -0.5586
14068TIP3    H163619   2.965   1.044   5.444  0.1241  1.0289  0.1576
14068TIP3    H263620   3.060   0.957   5.363 -1.7651 -0.1982 -0.7800
14069TIP3   OH263621   2.438   5.782  11.840 -0.0566  0.3896 -0.4237
14069TIP3    H163622   2.361   5.725  11.836 -0.1044  0.4958 -1.0446
14069TIP3    H263623   2.512   5.722  11.842 -0.0804  0.3116 -1.7414
14070TIP3   OH263624   0.295   6.633   5.150  0.0177 -0.1439  0.1737
14070TIP3    H163625   0.241   6.575   5.097 -1.9399  0.3942  1.5205
14070TIP3    H263626   0.385   6.615   5.122 -0.9523  0.2916 -3.4752
14071TIP3   OH263627   3.822   3.990  14.037  0.0808 -0.3079 -0.2770
14071TIP3    H163628   3.811   3.965  13.945 -1.6757  0.9931 -0.4558
14071TIP3    H263629   3.824   3.908  14.085 -1.4201 -0.9398 -1.2529
14072TIP3   OH263630   2.355   4.628   0.562  0.0684 -0.2608  0.3482
14072TIP3    H163631   2.285   4.665   0.617  1.2410  0.2944  1.5081
14072TIP3    H263632   2.400   4.566   0.619  1.6739  0.7476  0.2230
14073TIP3   OH263633   6.246   4.314   4.475 -0.0969  0.0555 -0.2118
14073TIP3    H163634   6.175   4.260   4.511 -0.0170  1.2761  1.8751
14073TIP3    H263635   6.319   4.302   4.536  1.3081 -0.7191 -2.0145
14074TIP3   OH263636   1.161   5.326   3.216  0.0195  0.2236 -0.8138
14074TIP3    H163637   1.079   5.340   3.169 -0.0912 -2.3003 -1.4334
14074TIP3    H263638   1.170   5.231   3.221  2.9359  0.4514 -0.7888
14075TIP3   OH263639   4.135   0.826   2.879 -0.8639  0.8862 -0.0854
14075TIP3    H163640   4.073   0.853   2.946 -0.9586 -0.9270  0.6048
14075TIP3    H263641   4.134   0.730   2.883  0.3799  0.7891 -1.5329
14076TIP3   OH263642   2.702   3.896  15.077  0.6086  0.2439  0.2463
14076TIP3    H163643   2.782   3.948  15.070  0.4363  0.2726 -2.0428
14076TIP3    H263644   2.633   3.959  15.096  0.5571  0.7764 -1.5757
14077TIP3   OH263645   0.933   2.482   3.985 -0.5533  0.0601 -0.9221
14077TIP3    H163646   0.999   2.413   3.988 -1.3442 -0.6326  1.7096
14077TIP3    H263647   0.858   2.442   3.941 -0.8940 -0.6961  0.3160
14078TIP3   OH263648   0.391   4.350  12.611  0.5642  0.1109 -0.2014
14078TIP3    H163649   0.306   4.365  12.569  1.4397  1.8110 -1.3972
14078TIP3    H263650   0.448   4.318  12.541  0.5014 -2.6607  0.9437
14079TIP3   OH263651   3.714   1.538  12.100 -0.0740 -0.0951 -0.0520
14079TIP3    H163652   3.698   1.552  12.194  0.3760 -0.6091  0.1110
14079TIP3    H263653   3.760   1.617  12.072 -1.0249  0.4643 -0.0523
14080TIP3   OH263654   5.587   6.082   1.272  0.2110 -0.3882 -0.1273
14080TIP3    H163655   5.613   6.067   1.181 -0.1169 -2.2889  0.0691
14080TIP3    H263656   5.491   6.080   1.270  0.2149 -1.1082  0.3650
14081TIP3   OH263657   3.274   5.057   1.862  0.6704 -0.1872 -0.2693
14081TIP3    H163658   3.320   5.044   1.779  1.6931 -0.3152  0.3103
14081TIP3    H263659   3.343   5.078   1.925 -0.3748  2.8225 -0.0327
14082TIP3   OH263660   2.688   0.140  15.185  0.9211  0.0832 -0.2570
14082TIP3    H163661   2.684   0.049  15.156  2.0381 -0.0683  0.0498
14082TIP3    H263662   2.602   0.176  15.163 -0.7994 -2.0061  2.7456
14083TIP3   OH263663   5.153   3.500  11.924 -0.2585 -0.3487 -0.1685
14083TIP3    H163664   5.248   3.500  11.921 -0.2124 -0.2514  0.9314
14083TIP3    H263665   5.125   3.532  11.839  0.6683 -1.7651 -1.0232
14084TIP3   OH263666   3.493   1.803  12.224  0.0988 -0.0286 -0.0219
14084TIP3    H163667   3.523   1.738  12.288 -0.1687 -0.8339 -0.7124
14084TIP3    H263668   3.558   1.873  12.229  0.1789 -0.1632  1.0010
14085TIP3   OH263669   5.010   0.716  15.764 -0.2600 -0.2485 -0.7251
14085TIP3    H163670   4.939   0.723  15.701 -0.6782  0.3464 -0.2008
14085TIP3    H263671   5.089   0.716  15.711 -0.6777 -1.8615 -1.3666
14086TIP3   OH263672   0.930   1.882   5.391 -0.0055 -0.0794 -0.6061
14086TIP3    H163673   0.886   1.889   5.306 -3.0260  1.3149  0.9700
14086TIP3    H263674   0.901   1.798   5.426  1.6531 -0.8894 -1.1680
14087TIP3   OH263675   5.670   0.378   2.562  0.1850  0.2817  0.6748
14087TIP3    H163676   5.765   0.377   2.562  0.2028  1.3884  1.0235
14087TIP3    H263677   5.646   0.395   2.471  0.2340 -3.4532 -0.1418
14088TIP3   OH263678   2.726   3.800  14.462 -0.4343  0.1645 -0.1198
14088TIP3    H163679   2.805   3.853  14.449  0.2608 -0.0773  2.7709
14088TIP3    H263680   2.748   3.743  14.536 -2.4582 -1.6510 -0.8722
14089TIP3   OH263681   1.845   1.346  11.444 -0.2592 -0.0549  0.3736
14089TIP3    H163682   1.934   1.364  11.474 -0.0873 -1.6038  0.8248
14089TIP3    H263683   1.856   1.279  11.376 -1.1758 -1.2091  1.3431
14090TIP3   OH263684   1.302   2.410  13.026 -0.0804  0.0756  0.1647
14090TIP3    H163685   1.208   2.400  13.039  0.1503 -1.5227  0.7675
14090TIP3    H263686   1.317   2.376  12.938 -0.0260 -0.0030  0.2037
14091TIP3   OH263687   5.540   2.000   4.757  0.3431 -0.3486 -0.0796
14091TIP3    H163688   5.482   1.925   4.745 -0.7368  0.3519  0.7383
14091TIP3    H263689   5.615   1.965   4.805 -0.6981 -0.6673  1.3521
14092TIP3   OH263690   0.249   6.634   0.540  0.1454 -0.1860 -0.2676
14092TIP3    H163691   0.302   6.668   0.468 -1.8152  4.2531  0.1815
14092TIP3    H263692   0.313   6.601   0.604  2.1632  1.2335 -1.4971
14093TIP3   OH263693   6.783   0.986   2.880 -0.7265  0.1869 -0.6128
14093TIP3    H163694   6.796   0.908   2.826  0.3061  0.4308 -0.7305
14093TIP3    H263695   6.794   0.955   2.970  0.4780  0.3462 -0.7010
14094TIP3   OH263696   3.765   5.780   4.654  0.2185 -1.1139  0.1065
14094TIP3    H163697   3.694   5.716   4.661  0.2844 -1.1491  0.4926
14094TIP3    H263698   3.845   5.728   4.668  0.2765 -0.9598  0.3493
14095TIP3   OH263699   5.828   0.852   1.286 -0.2409  0.0331 -0.4594
14095TIP3    H163700   5.890   0.881   1.220 -0.4645 -0.7809 -1.0411
14095TIP3    H263701   5.756   0.812   1.237 -2.2215  2.7626  0.1073
14096TIP3   OH263702   2.518   1.649  14.510  0.0712 -0.0745 -0.0665
14096TIP3    H163703   2.508   1.632  14.603  1.4329  1.7183  0.4391
14096TIP3    H263704   2.607   1.684  14.502 -0.3414  0.5977 -1.9224
14097TIP3   OH263705   5.900   6.526  11.023  0.0174  0.5901  0.1532
14097TIP3    H163706   5.807   6.551  11.020  0.3357  1.9611  1.1187
14097TIP3    H263707   5.925   6.520  10.931 -0.8565  0.9092 -0.1149
14098TIP3   OH263708   1.288   5.729  17.061  0.1238  0.2919 -0.0174
14098TIP3    H163709   1.323   5.815  17.084  0.0654  1.1795 -3.0525
14098TIP3    H263710   1.364   5.671  17.061  0.5709  0.8776 -0.4629
14099TIP3   OH263711   5.228   5.427  16.209  0.7041 -0.0384 -0.1878
14099TIP3    H163712   5.265   5.457  16.292  1.1161 -1.1996  0.0604
14099TIP3    H263713   5.287   5.358  16.180  0.2199 -0.0546 -1.1472
14100TIP3   OH263714   3.030   1.394  12.519  0.0127 -0.3618  0.1765
14100TIP3    H163715   2.971   1.321  12.501 -0.0950 -0.1909 -0.1588
14100TIP3    H263716   3.109   1.374  12.470 -0.7946  0.8092 -1.6865
14101TIP3   OH263717   2.466   5.461   4.058 -0.8317  0.0464 -0.0460
14101TIP3    H163718   2.496   5.549   4.034 -1.8451  0.4575  0.1747
14101TIP3    H263719   2.545   5.415   4.084 -0.0080  0.2727 -2.0889
14102TIP3   OH263720   2.203   6.249   0.715 -0.4682 -0.2814 -0.0712
14102TIP3    H163721   2.152   6.168   0.717  0.7670 -1.0654 -0.2841
14102TIP3    H263722   2.290   6.224   0.745  0.2635  0.7314 -1.3099
14103TIP3   OH263723   5.103   0.768  10.797 -0.1244 -0.3642  0.6213
14103TIP3    H163724   5.119   0.794  10.706  1.6518  1.1330  1.3363
14103TIP3    H263725   5.167   0.700  10.814 -0.0320 -0.1973  0.9412
14104TIP3   OH263726   1.724   0.953  11.429 -0.0106  0.5460  0.7537
14104TIP3    H163727   1.796   0.920  11.484 -1.2277 -1.3118  1.2785
14104TIP3    H263728   1.754   1.039  11.399  2.0500  0.1806  1.6921
14105TIP3   OH263729   4.459   4.891   0.710 -0.5047 -0.1577  0.1582
14105TIP3    H163730   4.492   4.981   0.716  1.7429 -0.7130 -2.6906
14105TIP3    H263731   4.514   4.841   0.770 -0.3917  0.0174  0.2002
14106TIP3   OH263732   0.916   5.465  10.542 -0.9099  0.4306 -0.2920
14106TIP3    H163733   0.831   5.422  10.546 -1.2063  1.0693  0.6984
14106TIP3    H263734   0.944   5.457  10.451 -1.6839 -0.4415 -0.4541
14107TIP3   OH263735   2.048   0.565   2.763 -0.1548  0.2043  0.0467
14107TIP3    H163736   2.143   0.560   2.768 -0.2491 -0.6467  1.4832
14107TIP3    H263737   2.019   0.559   2.855 -1.5699  0.6604 -0.3553
14108TIP3   OH263738   5.305   2.709   1.916  0.2758  1.0203 -0.3438
14108TIP3    H163739   5.357   2.768   1.862  1.6531  0.1953  0.0327
14108TIP3    H263740   5.322   2.622   1.879  1.9128  0.3318  1.8556
14109TIP3   OH263741   1.282   5.297   2.426  0.0310 -0.1271  0.1442
14109TIP3    H163742   1.375   5.316   2.414  0.3941 -1.8935  0.1093
14109TIP3    H263743   1.244   5.381   2.454  1.9782  0.1505  2.0645
14110TIP3   OH263744   4.495   1.330   0.261 -0.0826  0.1180  0.1031
14110TIP3    H163745   4.485   1.393   0.190 -1.1106 -0.3578 -0.1920
14110TIP3    H263746   4.501   1.383   0.340  2.0526  0.6967 -0.4139
14111TIP3   OH263747   5.972   3.457   3.211  0.2333  0.0475  0.2405
14111TIP3    H163748   6.066   3.464   3.194  0.4120 -1.7021  0.4359
14111TIP3    H263749   5.949   3.368   3.185 -1.5422  0.7223 -0.5464
14112TIP3   OH263750   6.412   0.737   1.803  0.6452  0.0574 -0.3268
14112TIP3    H163751   6.390   0.828   1.784  1.9295  0.3650 -0.3384
14112TIP3    H263752   6.327   0.692   1.802 -0.0489  1.3269  0.1816
14113TIP3   OH263753   5.150   2.290   5.568 -0.1092 -0.3513 -0.1170
14113TIP3    H163754   5.119   2.248   5.487  0.6849  0.9144 -1.0942
14113TIP3    H263755   5.215   2.229   5.602  0.3212 -0.3904 -0.9931
14114TIP3   OH263756   3.865   5.215   6.337  0.3479  0.2585 -0.5044
14114TIP3    H163757   3.853   5.130   6.294 -3.7158  0.5841 -0.2113
14114TIP3    H263758   3.841   5.199   6.428  1.3016  1.3306 -0.0619
14115TIP3   OH263759   0.223   5.388   3.062  0.3367  0.0693  0.3674
14115TIP3    H163760   0.295   5.419   3.116  0.4831  0.3923 -0.0131
14115TIP3    H263761   0.222   5.447   2.986 -0.5326  0.2727  0.5308
14116TIP3   OH263762   1.175   3.914   4.269 -0.1696 -0.1894 -1.0507
14116TIP3    H163763   1.217   3.983   4.321 -0.4143 -0.5180 -0.4121
14116TIP3    H263764   1.081   3.928   4.282 -0.2054 -1.4787  0.1954
14117TIP3   OH263765   1.177   4.782   0.360 -0.5414  0.3611  0.7035
14117TIP3    H163766   1.111   4.752   0.298 -0.2656 -0.5514  0.8562
14117TIP3    H263767   1.200   4.870   0.328  1.5088 -1.0874 -2.0474
14118TIP3   OH263768   6.284   6.702   0.138  0.2426  0.1667 -0.0384
14118TIP3    H163769   6.245   6.683   0.052  0.7007 -0.7657 -0.0468
14118TIP3    H263770   6.284   6.797   0.143 -0.3504  0.2184 -0.8198
14119TIP3   OH263771   3.175   3.993  16.126 -0.0112 -0.2136 -0.0865
14119TIP3    H163772   3.172   4.025  16.216  1.5708  0.7108 -0.3402
14119TIP3    H263773   3.172   4.073  16.072 -1.1202 -0.7673 -0.8606
14120TIP3   OH263774   1.130   0.141   5.790 -0.1356  0.1954  0.6137
14120TIP3    H163775   1.037   0.134   5.770  0.0539 -1.0272  0.1451
14120TIP3    H263776   1.155   0.228   5.758 -0.1498 -1.1649 -3.2662
14121TIP3   OH263777   5.163   5.476   1.163 -0.4449  0.2380 -0.3568
14121TIP3    H163778   5.075   5.449   1.189 -0.1524 -0.3358  0.0326
14121TIP3    H263779   5.213   5.478   1.244  0.9051 -3.1518 -1.0327
14122TIP3   OH263780   6.071   2.126  12.027 -0.2937  0.0395 -0.2153
14122TIP3    H163781   6.049   2.033  12.019 -0.1493 -0.1998  1.8844
14122TIP3    H263782   6.125   2.144  11.950  0.4205 -1.8530 -0.1895
14123TIP3   OH263783   0.313   5.622  16.345 -0.0460  0.6036  0.6505
14123TIP3    H163784   0.372   5.569  16.398 -1.0977  0.6195  1.8555
14123TIP3    H263785   0.343   5.609  16.255  1.1246 -0.2193  1.1524
14124TIP3   OH263786   2.901   3.231   1.654  0.1314 -0.1562  0.4408
14124TIP3    H163787   2.843   3.307   1.647 -0.1696 -0.6678 -3.9099
14124TIP3    H263788   2.983   3.266   1.687 -0.4868  1.7670 -0.0235
14125TIP3   OH263789   0.761   0.603  14.309  0.1295  0.4577 -0.5330
14125TIP3    H163790   0.698   0.571  14.245 -0.9329  1.5604 -0.0615
14125TIP3    H263791   0.761   0.538  14.379 -0.4896  0.4555 -0.5373
14126TIP3   OH263792   1.864   1.420   5.316 -0.1222  0.0439 -0.1059
14126TIP3    H163793   1.849   1.506   5.278  0.4521  0.0104 -0.4044
14126TIP3    H263794   1.826   1.358   5.254  0.8700 -0.0147 -0.6660
14127TIP3   OH263795   0.990   5.296  15.824  0.1211  0.4204 -0.1123
14127TIP3    H163796   1.063   5.272  15.882  0.8633  2.0277 -0.3773
14127TIP3    H263797   1.023   5.281  15.736 -0.8965 -1.6954 -0.1741
14128TIP3   OH263798   4.283   5.207  16.835 -0.0128 -0.3637 -0.0757
14128TIP3    H163799   4.210   5.153  16.806 -0.1255  0.5477 -1.5960
14128TIP3    H263800   4.261   5.295  16.805  0.9983  0.1983  0.7863
14129TIP3   OH263801   1.211   0.869   4.820  0.3226 -0.1038  0.1283
14129TIP3    H163802   1.116   0.872   4.831  0.1744  0.7362 -1.3127
14129TIP3    H263803   1.247   0.912   4.898 -0.5213  0.8828 -0.0275
14130TIP3   OH263804   3.438   0.966  13.979  0.0257  0.1130  0.2536
14130TIP3    H163805   3.395   1.049  14.002  1.4290  0.8701  0.1788
14130TIP3    H263806   3.469   0.931  14.063  0.7630  0.4061  0.0999
14131TIP3   OH263807   0.523   6.562   2.381  0.3482  0.0764 -0.1537
14131TIP3    H163808   0.551   6.470   2.379  0.5843  0.1291  0.4829
14131TIP3    H263809   0.595   6.608   2.426 -0.0680  0.4650  0.1180
14132TIP3   OH263810   6.465   2.820   0.544 -0.1798 -0.7566 -0.1838
14132TIP3    H163811   6.401   2.804   0.474 -0.8181 -0.6533  0.3767
14132TIP3    H263812   6.441   2.906   0.579  0.0846 -0.8539  0.2320
14133TIP3   OH263813   0.269   0.528  14.673 -0.8359  0.5264  0.2947
14133TIP3    H163814   0.337   0.518  14.739 -1.6892  1.4973  1.3428
14133TIP3    H263815   0.196   0.570  14.719 -1.8660  0.1854 -0.9860
14134TIP3   OH263816   0.468   0.616  11.474 -0.1804 -0.2100  0.4527
14134TIP3    H163817   0.498   0.525  11.469 -0.6554 -0.2442 -2.3621
14134TIP3    H263818   0.382   0.616  11.432 -0.9284  1.2632  1.9160
14135TIP3   OH263819   4.275   0.528   2.527 -0.1503  0.1780  0.0324
14135TIP3    H163820   4.269   0.528   2.622 -3.0648 -0.1302 -0.0915
14135TIP3    H263821   4.301   0.439   2.504  0.6867  0.2912  0.5198
14136TIP3   OH263822   0.793   0.357   3.031  0.5254 -0.8693  0.2223
14136TIP3    H163823   0.879   0.350   3.071  0.6748 -1.8868 -0.2712
14136TIP3    H263824   0.802   0.314   2.946 -1.0897 -3.1644  1.1601
14137TIP3   OH263825   4.044   6.523   1.997 -0.1042  0.4488  0.2981
14137TIP3    H163826   4.093   6.446   2.025 -0.9508 -0.1646  0.1421
14137TIP3    H263827   3.989   6.545   2.072 -0.6852  0.2126 -0.0552
14138TIP3   OH263828   4.952   5.368   3.559  0.2490  0.0172  0.3108
14138TIP3    H163829   4.957   5.293   3.500 -0.2952  0.2802 -0.0779
14138TIP3    H263830   4.881   5.348   3.619  0.4664 -0.0219  0.5581
14139TIP3   OH263831   0.625   4.543  14.137 -0.4523  0.4205 -0.0120
14139TIP3    H163832   0.621   4.522  14.231  0.7350 -0.6867 -0.1923
14139TIP3    H263833   0.701   4.495  14.105 -1.8051 -0.5399 -1.8959
14140TIP3   OH263834   1.864   3.178   2.546 -0.2629  0.5079  0.1770
14140TIP3    H163835   1.831   3.205   2.460 -0.0556  0.8417  0.2044
14140TIP3    H263836   1.957   3.163   2.533 -0.1125  1.1623  0.4894
14141TIP3   OH263837   3.253   2.066  15.752  0.3836  0.0029  0.5323
14141TIP3    H163838   3.300   2.023  15.823  1.9632  1.8549  0.6490
14141TIP3    H263839   3.172   2.099  15.793  0.7943  0.1451  1.2400
14142TIP3   OH263840   5.528   4.306   0.506  0.3841  0.0343  0.2587
14142TIP3    H163841   5.578   4.388   0.498 -2.3375  1.6760 -1.0722
14142TIP3    H263842   5.437   4.333   0.491 -0.6531 -3.1567  0.4976
14143TIP3   OH263843   5.622   5.473  13.957  0.2666  0.0263  0.1989
14143TIP3    H163844   5.576   5.547  13.917  1.3815  0.7458  0.2379
14143TIP3    H263845   5.569   5.452  14.034  0.0723  0.9475  0.3255
14144TIP3   OH263846   5.251   1.109  11.224 -0.1101 -0.7289 -0.0687
14144TIP3    H163847   5.187   1.038  11.230  0.1774 -0.9882 -0.0697
14144TIP3    H263848   5.206   1.178  11.175 -1.4607  0.2457  2.4214
14145TIP3   OH263849   0.569   4.040  14.683 -0.0748 -0.3702  0.3311
14145TIP3    H163850   0.654   4.040  14.639 -0.4000  0.8317 -0.3000
14145TIP3    H263851   0.557   3.949  14.710  0.3214 -1.0337 -1.6776
14146TIP3   OH263852   3.198   4.712   6.727  0.0632  0.5042  0.1986
14146TIP3    H163853   3.141   4.636   6.740  3.0481 -2.2031 -1.6071
14146TIP3    H263854   3.140   4.782   6.698 -2.3547 -2.0786 -1.3763
14147TIP3   OH263855   6.475   6.293  13.803 -0.4379  0.3428  0.5739
14147TIP3    H163856   6.405   6.228  13.808  0.5211 -0.7000  0.5779
14147TIP3    H263857   6.430   6.376  13.790 -1.5942 -0.5071 -0.8955
14148TIP3   OH263858   4.213   3.954  13.761 -0.0174  0.0224 -0.0416
14148TIP3    H163859   4.200   3.964  13.667 -0.3356  0.6509  0.0685
14148TIP3    H263860   4.127   3.968  13.799  0.2575  0.5071  0.4036
14149TIP3   OH263861   1.577   2.859   4.262  0.7376  0.1392 -0.1351
14149TIP3    H163862   1.487   2.854   4.231  0.8114  0.2658 -0.3689
14149TIP3    H263863   1.570   2.898   4.349  0.3111 -2.3815  0.9964
14150TIP3   OH263864   1.431   6.553  13.170  0.2622  0.1897  0.7195
14150TIP3    H163865   1.343   6.590  13.165 -0.1320 -0.8441  0.0804
14150TIP3    H263866   1.489   6.628  13.158 -0.5308  0.7703  0.4875
14151TIP3   OH263867   5.982   2.212   5.759 -0.4070  0.0786  0.0672
14151TIP3    H163868   6.053   2.182   5.701 -1.3807 -3.4991  0.6203
14151TIP3    H263869   6.024   2.222   5.844 -0.2844 -0.8056  0.1159
14152TIP3   OH263870   1.483   4.430   5.599  0.3919  0.2383  0.5940
14152TIP3    H163871   1.530   4.421   5.682 -2.3482  1.1706  2.3188
14152TIP3    H263872   1.392   4.439   5.624 -0.6442 -0.6380 -2.6188
14153TIP3   OH263873   5.253   3.488  11.432  0.2073 -0.0412  0.2023
14153TIP3    H163874   5.246   3.477  11.337  0.7429 -2.3301  0.4053
14153TIP3    H263875   5.286   3.578  11.443 -0.8994  0.6315 -1.7095
14154TIP3   OH263876   3.722   4.287   6.930  0.1326  0.2643 -0.3015
14154TIP3    H163877   3.706   4.301   6.837  0.8213  0.4336 -0.3965
14154TIP3    H263878   3.733   4.374   6.967  1.8689  0.1279 -0.4371
14155TIP3   OH263879   1.572   4.971  13.282 -0.2876  1.0651 -0.1168
14155TIP3    H163880   1.566   4.949  13.375 -2.0863  0.7305 -0.2919
14155TIP3    H263881   1.661   4.945  13.257 -0.8135 -1.7737  0.7608
14156TIP3   OH263882   4.044   0.432  14.629  0.8816 -0.6464 -0.5143
14156TIP3    H163883   4.059   0.436  14.535  0.4359  0.8493 -0.5319
14156TIP3    H263884   4.100   0.501  14.665 -1.0342  0.6824  0.0207
14157TIP3   OH263885   4.180   0.124  13.283 -0.1156  0.1242  0.4085
14157TIP3    H163886   4.092   0.152  13.257  0.2308  1.1790  0.3732
14157TIP3    H263887   4.201   0.052  13.223 -1.7753 -1.5366  1.7334
14158TIP3   OH263888   0.296   5.231  15.198  0.9636 -0.5344 -0.1286
14158TIP3    H163889   0.353   5.164  15.158  2.9466  1.5537 -0.9038
14158TIP3    H263890   0.351   5.273  15.263 -0.8434 -0.8156  1.6233
14159TIP3   OH263891   4.153   4.798   0.478  0.2339 -0.3427  0.5413
14159TIP3    H163892   4.173   4.866   0.543 -0.8380 -0.9758  1.5574
14159TIP3    H263893   4.061   4.812   0.457  0.3492 -0.6932 -0.2013
14160TIP3   OH263894   3.819   5.772  16.174  0.0555  0.0416  0.2838
14160TIP3    H163895   3.823   5.677  16.169 -0.6543  0.0479 -0.7760
14160TIP3    H263896   3.819   5.801  16.082 -2.1742  0.9226  0.5215
14161TIP3   OH263897   2.648   3.956  16.700  0.6901  0.4313  0.6838
14161TIP3    H163898   2.685   3.988  16.782  1.5861 -0.8834  0.8102
14161TIP3    H263899   2.633   4.035  16.648  3.2798  1.0537  0.8020
14162TIP3   OH263900   1.150   1.179  15.147  0.3065  0.0333  0.5678
14162TIP3    H163901   1.088   1.123  15.101  1.2427  0.2335 -0.9635
14162TIP3    H263902   1.153   1.144  15.236 -0.5527 -1.1556  0.1387
14163TIP3   OH263903   0.764   1.662  15.417 -0.2880 -0.0648  0.1504
14163TIP3    H163904   0.700   1.591  15.426  1.1883 -1.6933 -1.7513
14163TIP3    H263905   0.782   1.689  15.507  0.3009 -3.1889  1.0417
14164TIP3   OH263906   2.090   0.226   4.072  0.5230  0.0533 -0.3323
14164TIP3    H163907   2.088   0.171   3.994  0.9323  0.0969 -0.3735
14164TIP3    H263908   2.004   0.268   4.074 -0.2594 -1.5692  0.4111
14165TIP3   OH263909   5.931   4.010  15.631 -0.6303  0.0076  0.0176
14165TIP3    H163910   5.878   4.071  15.581  0.9936  1.1401 -0.3291
14165TIP3    H263911   5.935   3.931  15.576 -0.8978  0.3651 -0.5198
14166TIP3   OH263912   1.865   1.244   4.177  0.7395 -0.9713 -0.5337
14166TIP3    H163913   1.900   1.290   4.101 -0.1826  0.8027  0.0836
14166TIP3    H263914   1.927   1.262   4.247  0.8938 -1.5110 -0.5260
14167TIP3   OH263915   4.651   2.842  16.566  0.0838 -0.1053  0.1626
14167TIP3    H163916   4.668   2.821  16.475  0.2878  0.2094  0.1254
14167TIP3    H263917   4.708   2.916  16.585 -1.2211  0.9507  0.0451
14168TIP3   OH263918   3.426   1.252   0.282 -0.5908  0.1166  0.3195
14168TIP3    H163919   3.423   1.340   0.319 -1.2203  0.3556 -0.2929
14168TIP3    H263920   3.437   1.266   0.187 -0.8482 -0.4590  0.2043
14169TIP3   OH263921   5.047   0.742  16.036  0.3370  0.4652  0.4982
14169TIP3    H163922   4.968   0.785  16.068  0.1331  0.3840  0.1033
14169TIP3    H263923   5.036   0.738  15.941  0.6141  0.0539  0.4827
14170TIP3   OH263924   6.040   4.046  13.021  0.2474  0.1972  0.0693
14170TIP3    H163925   5.959   3.996  13.020  1.0469 -1.0959 -0.2415
14170TIP3    H263926   6.108   3.982  13.041  1.7808  0.3921 -4.0200
14171TIP3   OH263927   1.978   3.040   0.579 -0.4831 -0.1904 -0.3765
14171TIP3    H163928   1.993   3.071   0.489  2.0082 -0.6871 -0.1639
14171TIP3    H263929   2.008   2.950   0.579 -0.5990 -0.2399  0.9220
14172TIP3   OH263930   5.783   2.865   1.256  0.4730  0.1399 -0.2562
14172TIP3    H163931   5.876   2.871   1.235  0.2380  0.9108 -1.1131
14172TIP3    H263932   5.745   2.945   1.220 -0.5452 -0.2444 -0.0541
14173TIP3   OH263933   6.188   3.683   3.211 -0.5145  0.5530  0.4602
14173TIP3    H163934   6.205   3.724   3.296  2.7131 -0.2573  0.2730
14173TIP3    H263935   6.236   3.600   3.214 -0.1642  0.6175 -2.2288
14174TIP3   OH263936   5.700   5.583  15.596  0.1768 -0.1157 -0.3306
14174TIP3    H163937   5.749   5.534  15.662  0.5528  0.3193 -0.2873
14174TIP3    H263938   5.710   5.675  15.621 -0.9874 -0.0445 -0.0986
14175TIP3   OH263939   5.471   3.598   2.088 -0.1888  0.7509 -0.5718
14175TIP3    H163940   5.512   3.613   2.173 -0.0978  1.4579 -0.7334
14175TIP3    H263941   5.388   3.554   2.109 -0.1838  0.9500 -0.1136
14176TIP3   OH263942   4.580   0.312  14.706  0.3055  0.1715 -0.3640
14176TIP3    H163943   4.607   0.264  14.627 -0.9641 -0.4006 -0.4664
14176TIP3    H263944   4.648   0.377  14.719  1.6989 -1.2014 -0.6436
14177TIP3   OH263945   4.707   6.462   5.342  0.3029 -0.3318  0.0194
14177TIP3    H163946   4.669   6.375   5.336 -0.5152 -0.0502  0.9287
14177TIP3    H263947   4.689   6.489   5.432  2.5737 -0.1512  0.4300
14178TIP3   OH263948   4.512   2.375  16.834 -0.4279  0.2790  0.4082
14178TIP3    H163949   4.600   2.386  16.872  0.2817 -1.1698 -0.7514
14178TIP3    H263950   4.488   2.285  16.856 -1.0308  0.2173 -0.4922
14179TIP3   OH263951   3.769   0.639   1.114  0.1983  0.3663 -0.2689
14179TIP3    H163952   3.690   0.692   1.105  0.5181  1.6121  3.5410
14179TIP3    H263953   3.737   0.550   1.125 -0.6107  0.6459 -0.3289
14180TIP3   OH263954   4.489   4.924   6.262  0.0752 -0.5045  0.1590
14180TIP3    H163955   4.529   4.837   6.263  0.3394 -0.3836  0.3843
14180TIP3    H263956   4.459   4.937   6.352  1.0307  0.0850  0.4081
14181TIP3   OH263957   3.669   2.579  16.012  0.2832  0.0335 -0.2254
14181TIP3    H163958   3.641   2.567  16.103  1.4983  0.2173  0.1914
14181TIP3    H263959   3.708   2.667  16.011 -0.5219  0.3854 -1.1300
14182TIP3   OH263960   5.679   2.146  12.327 -0.0594 -0.1194  0.3714
14182TIP3    H163961   5.734   2.194  12.265 -0.3150 -0.7706 -0.3690
14182TIP3    H263962   5.640   2.214  12.382 -0.5161  0.5402 -0.7488
14183TIP3   OH263963   6.622   1.177  15.509  0.5779 -0.2003  0.3552
14183TIP3    H163964   6.665   1.108  15.561 -2.2851 -1.7997  0.6870
14183TIP3    H263965   6.647   1.158  15.419 -0.5447 -1.9730  0.4006
14184TIP3   OH263966   5.202   4.865  13.481  0.2952 -0.2355 -0.0590
14184TIP3    H163967   5.291   4.830  13.485  0.7104  0.9308  1.3560
14184TIP3    H263968   5.213   4.960  13.478 -0.9128 -0.0367  1.0903
14185TIP3   OH263969   5.876   0.566   5.373 -0.7698  0.1000  0.8421
14185TIP3    H163970   5.813   0.629   5.339  0.2134 -0.8204 -2.8694
14185TIP3    H263971   5.830   0.482   5.371 -0.2518 -0.1823  0.3893
14186TIP3   OH263972   2.348   0.593   0.983  0.8814  0.5904  0.4875
14186TIP3    H163973   2.278   0.542   1.023 -0.1285  1.7036  0.1822
14186TIP3    H263974   2.319   0.684   0.990  1.9260  1.0075 -0.3553
14187TIP3   OH263975   5.488   1.551   0.419  0.0831 -0.2585 -0.2001
14187TIP3    H163976   5.471   1.642   0.393  2.3385 -0.1245 -1.2887
14187TIP3    H263977   5.499   1.555   0.514 -3.1234  0.0431  0.2295
14188TIP3   OH263978   5.190   4.601  15.891  0.1932  0.5495 -0.0053
14188TIP3    H163979   5.263   4.594  15.830  0.4567  0.2101  0.3533
14188TIP3    H263980   5.191   4.693  15.917  0.8411  0.4160  0.4368
14189TIP3   OH263981   4.894   0.369   2.834  0.7666  0.1844  0.0140
14189TIP3    H163982   4.815   0.315   2.831  1.6861 -1.2049  0.3079
14189TIP3    H263983   4.953   0.330   2.770  1.2923  1.0898 -0.0639
14190TIP3   OH263984   0.759   4.362  11.957  0.1122  0.0717 -0.0893
14190TIP3    H163985   0.783   4.405  11.876  0.0521  2.0182  0.9000
14190TIP3    H263986   0.694   4.296  11.931  0.2633  0.5163 -1.6325
14191TIP3   OH263987   0.857   5.535  17.024 -0.3228 -0.1114  0.3085
14191TIP3    H163988   0.907   5.482  17.086 -1.1537 -0.6916  0.4882
14191TIP3    H263989   0.913   5.610  17.007  0.4756 -0.5911  0.7582
14192TIP3   OH263990   0.511   1.850   0.264 -0.2345 -0.1725  0.2229
14192TIP3    H163991   0.590   1.795   0.265 -0.0323  0.1239  0.4123
14192TIP3    H263992   0.447   1.798   0.216  0.7907  0.6042 -2.0405
14193TIP3   OH263993   1.377   4.225  15.298 -0.4522 -0.2534  0.6690
14193TIP3    H163994   1.432   4.219  15.220 -1.7349  0.0531 -0.2901
14193TIP3    H263995   1.300   4.173  15.276 -2.5452  2.8624  0.1968
14194TIP3   OH263996   5.988   5.806  14.049 -0.2422 -0.3468 -0.0488
14194TIP3    H163997   5.907   5.760  14.071  0.2702 -1.4189 -0.3540
14194TIP3    H263998   6.036   5.743  13.995  1.4683 -0.3041  1.3998
14195TIP3   OH263999   0.533   0.995  12.708  0.8512  0.1311 -0.6926
14195TIP3    H164000   0.487   1.078  12.698  0.9157 -0.0873 -3.3624
14195TIP3    H264001   0.623   1.015  12.683  1.2201 -0.4172  0.1646
14196TIP3   OH264002   4.630   1.415  15.496 -0.3123  0.2405  0.3529
14196TIP3    H164003   4.551   1.382  15.538 -0.1529 -1.6820 -0.7699
14196TIP3    H264004   4.678   1.336  15.471  0.2936  1.3273 -2.0566
14197TIP3   OH264005   0.852   2.781  15.051 -0.4889  0.8657  0.3538
14197TIP3    H164006   0.761   2.776  15.022 -1.3953 -2.0325  3.3896
14197TIP3    H264007   0.903   2.788  14.970 -3.2269 -1.1165 -1.6375
14198TIP3   OH264008   1.396   2.119   1.801 -0.3585 -0.2668 -0.1719
14198TIP3    H164009   1.323   2.089   1.746 -0.0458 -0.1058 -0.6741
14198TIP3    H264010   1.473   2.075   1.765  0.3086  2.0646 -1.7041
14199TIP3   OH264011   1.087   4.029   6.189 -0.0653 -0.4346 -0.2121
14199TIP3    H164012   1.060   3.978   6.265  2.2373 -0.3483  0.6817
14199TIP3    H264013   1.034   4.109   6.194  2.3845  1.0979  3.2307
14200TIP3   OH264014   1.413   0.433  14.652  0.2337  0.0521 -0.6480
14200TIP3    H164015   1.342   0.498  14.646 -0.5844 -0.7928 -0.3083
14200TIP3    H264016   1.475   0.471  14.714  0.6810  1.3560 -1.8699
14201TIP3   OH264017   2.175   5.865  11.911 -0.1798 -0.1128 -0.0728
14201TIP3    H164018   2.244   5.921  11.947 -0.0785 -0.2374 -0.0732
14201TIP3    H264019   2.112   5.926  11.873  1.4702 -0.0393 -2.8892
14202TIP3   OH264020   2.628   0.464   2.268 -0.4887  0.3489 -0.2209
14202TIP3    H164021   2.540   0.478   2.303 -0.5522 -1.3951  0.3586
14202TIP3    H264022   2.617   0.467   2.173 -1.2637 -0.3390 -0.1580
14203TIP3   OH264023   2.638   0.024  12.467  0.7032 -0.3814  0.0443
14203TIP3    H164024   2.598   0.055  12.386 -1.6714 -0.1496  1.2853
14203TIP3    H264025   2.671   0.104  12.509  1.8478 -0.4916 -0.5999
14204TIP3   OH264026   6.228   4.537   2.820 -0.3721  0.5929  0.0670
14204TIP3    H164027   6.293   4.560   2.887 -1.4069 -0.7729  1.5850
14204TIP3    H264028   6.144   4.541   2.866 -1.1756  0.3554 -1.3479
14205TIP3   OH264029   4.538   2.012  14.504  0.2529 -0.4622  0.1218
14205TIP3    H164030   4.475   2.034  14.573 -1.5777 -1.7857 -1.0736
14205TIP3    H264031   4.595   1.947  14.544  0.1084 -0.1653  0.8272
14206TIP3   OH264032   2.147   1.678  16.291  0.2481 -0.6894 -0.7161
14206TIP3    H164033   2.077   1.643  16.235 -0.4566  1.3888 -1.1565
14206TIP3    H264034   2.101   1.720  16.364  1.1213 -1.6548  0.4147
14207TIP3   OH264035   0.241   3.557   4.236 -0.0411 -0.6495  0.3637
14207TIP3    H164036   0.204   3.479   4.277 -0.2730  0.3774  2.1180
14207TIP3    H264037   0.330   3.564   4.272 -0.3074  0.3565  0.8432
14208TIP3   OH264038   0.889   0.939   5.141  0.8806  0.1689  0.4348
14208TIP3    H164039   0.880   0.911   5.232 -0.8659  1.1794  0.6041
14208TIP3    H264040   0.952   0.878   5.103  0.4655 -1.2185  1.9162
14209TIP3   OH264041   1.768   0.907  14.659 -0.1107 -0.5005  0.3769
14209TIP3    H164042   1.807   0.852  14.727  0.0390 -0.5787  0.2278
14209TIP3    H264043   1.824   0.985  14.655 -0.1418 -0.4785  0.3714
14210TIP3   OH264044   5.252   2.404   5.314  0.6550  0.2220 -0.5773
14210TIP3    H164045   5.308   2.392   5.238  0.3612  0.6706 -0.8687
14210TIP3    H264046   5.287   2.482   5.358  1.7174 -0.8698  0.5502
14211TIP3   OH264047   2.316   4.143  14.753  0.2447  0.0516 -0.2533
14211TIP3    H164048   2.355   4.141  14.840  3.5218  0.7854 -1.6177
14211TIP3    H264049   2.308   4.236  14.732  0.8998 -0.1207 -1.3201
14212TIP3   OH264050   3.120   5.027   2.469 -0.4119 -0.3461 -0.0164
14212TIP3    H164051   3.138   5.121   2.477 -1.3525 -0.0860 -0.8963
14212TIP3    H264052   3.117   4.995   2.559 -3.5762  1.1398  0.4535
14213TIP3   OH264053   3.892   6.233  12.902  0.2811  0.0758 -0.4130
14213TIP3    H164054   3.871   6.264  12.990  1.9299  0.8938 -0.2875
14213TIP3    H264055   3.956   6.163  12.916  0.0331 -0.2540 -0.9308
14214TIP3   OH264056   1.180   6.376   0.752 -0.0365 -0.3203 -0.6609
14214TIP3    H164057   1.172   6.283   0.776 -0.2972  0.2381  1.5188
14214TIP3    H264058   1.263   6.381   0.703  1.3252 -1.2743  1.4707
14215TIP3   OH264059   1.076   5.806  16.247 -0.2018 -0.1828 -0.5943
14215TIP3    H164060   1.107   5.872  16.185 -0.0782 -2.1474 -2.7013
14215TIP3    H264061   0.987   5.835  16.270  1.3092  2.8616  1.7350
14216TIP3   OH264062   2.427   5.633   1.678 -0.4767 -0.0329 -0.3906
14216TIP3    H164063   2.440   5.557   1.734 -0.2600  1.9193  2.3325
14216TIP3    H264064   2.390   5.598   1.597 -1.8227 -2.8180  1.3689
14217TIP3   OH264065   4.714   5.228   4.751 -0.1623 -0.0454 -0.7590
14217TIP3    H164066   4.730   5.201   4.841 -0.7861 -1.8539 -1.1704
14217TIP3    H264067   4.798   5.264   4.721  0.5647 -1.1194 -0.0384
14218TIP3   OH264068   6.410   2.498  16.697 -0.2836  0.3415  0.1810
14218TIP3    H164069   6.395   2.418  16.646  1.1877 -0.2483  0.6270
14218TIP3    H264070   6.385   2.475  16.786  1.1061  0.0369  0.5082
14219TIP3   OH264071   1.939   2.632  15.484  0.2104  0.3551 -0.3430
14219TIP3    H164072   2.004   2.564  15.503 -0.3344  0.4500  1.9261
14219TIP3    H264073   1.986   2.696  15.431  2.2512  0.9102  2.0831
14220TIP3   OH264074   1.219   4.890  11.163  0.2989 -0.3280 -0.1947
14220TIP3    H164075   1.190   4.920  11.249  0.8301  1.2414 -0.5354
14220TIP3    H264076   1.188   4.958  11.103  1.9741 -0.1845 -0.9423
14221TIP3   OH264077   6.563   1.609   2.839 -0.5764 -0.2362  0.0655
14221TIP3    H164078   6.540   1.571   2.753 -1.1220  1.5778 -0.6094
14221TIP3    H264079   6.487   1.590   2.894  0.8262 -3.6657  0.9260
14222TIP3   OH264080   1.864   1.766  16.391  0.3987  0.4154 -0.4058
14222TIP3    H164081   1.855   1.843  16.335  1.3142  0.1716 -0.9014
14222TIP3    H264082   1.812   1.698  16.347  0.9445  0.2850 -0.8606
14223TIP3   OH264083   4.926   1.558   1.203 -0.1512 -0.0552 -0.8116
14223TIP3    H164084   4.980   1.617   1.257  1.7539 -1.5907 -0.9957
14223TIP3    H264085   4.900   1.488   1.262 -1.2322  0.2259 -0.9480
14224TIP3   OH264086   0.244   2.069   1.652  0.3057 -0.0015 -0.6314
14224TIP3    H164087   0.263   2.030   1.737  1.6427  0.7087 -0.6026
14224TIP3    H264088   0.276   2.005   1.589 -1.1315 -0.7556 -0.6271
14225TIP3   OH264089   1.318   2.867  11.486  0.3918  0.4668 -0.2067
14225TIP3    H164090   1.320   2.818  11.568  1.5956  1.7338  0.5502
14225TIP3    H264091   1.371   2.815  11.426 -1.5542 -1.1236 -0.5785
14226TIP3   OH264092   2.126   2.238   0.367 -0.6199  0.2018 -0.4253
14226TIP3    H164093   2.080   2.322   0.368 -0.4709  0.2788  0.2723
14226TIP3    H264094   2.210   2.257   0.407  0.7208  0.4463 -3.2114
14227TIP3   OH264095   5.930   2.049  14.393  0.4209 -0.3106  0.6684
14227TIP3    H164096   5.900   2.005  14.473  0.3220  0.3574  0.9990
14227TIP3    H264097   5.855   2.099  14.363  1.1004  1.1841  1.3704
14228TIP3   OH264098   5.385   0.658   2.439 -0.2223  0.7285 -0.2537
14228TIP3    H164099   5.365   0.725   2.505  0.8818  1.5950 -0.7840
14228TIP3    H264100   5.388   0.576   2.489 -0.5761  1.2092  0.5751
14229TIP3   OH264101   5.273   0.237   4.590 -0.0294 -0.2947  0.3824
14229TIP3    H164102   5.252   0.309   4.649  0.7708  0.1193  0.1679
14229TIP3    H264103   5.345   0.191   4.633  0.3671 -0.1586 -0.1293
14230TIP3   OH264104   6.625   4.802  11.110 -0.1113  0.1509 -0.1252
14230TIP3    H164105   6.667   4.721  11.081  0.8470  1.0033 -1.2070
14230TIP3    H264106   6.586   4.781  11.195 -2.9734 -2.4377 -1.9704
14231TIP3   OH264107   2.513   1.467  11.334 -0.0683 -0.1695  0.3531
14231TIP3    H164108   2.565   1.548  11.334  0.5752 -0.5775  1.7787
14231TIP3    H264109   2.449   1.481  11.263  1.3088  0.7561 -0.7582
14232TIP3   OH264110   2.181   3.167   2.091 -0.2946  0.1574  0.1710
14232TIP3    H164111   2.272   3.138   2.097  0.1640  1.8029  1.6349
14232TIP3    H264112   2.186   3.252   2.048 -1.1788  0.1251 -0.0082
14233TIP3   OH264113   2.766   1.239  10.470 -0.8223  0.2761 -0.1007
14233TIP3    H164114   2.683   1.234  10.518  0.0065 -0.0025  1.3348
14233TIP3    H264115   2.799   1.149  10.470 -0.3811  0.4370 -0.4344
14234TIP3   OH264116   3.255   6.140   2.136 -0.2819 -0.1334 -0.4878
14234TIP3    H164117   3.259   6.158   2.042  0.2179 -1.4452 -0.7328
14234TIP3    H264118   3.346   6.122   2.161 -0.4912 -0.3361  0.1297
14235TIP3   OH264119   2.333   6.643  14.828  0.0268 -0.3033 -0.1307
14235TIP3    H164120   2.254   6.591  14.844 -0.3215  0.1312 -0.4202
14235TIP3    H264121   2.304   6.712  14.767  0.3754  0.5202  0.6307
14236TIP3   OH264122   3.362   0.803   2.948  0.1986 -0.2144 -0.8175
14236TIP3    H164123   3.304   0.827   3.019 -0.7616 -0.4065 -1.5275
14236TIP3    H264124   3.312   0.739   2.897  1.0635 -0.4497 -1.3851
14237TIP3   OH264125   1.975   2.479   5.320  0.3498 -0.6373 -0.5632
14237TIP3    H164126   1.991   2.408   5.258  0.0322 -1.0028 -0.2249
14237TIP3    H264127   1.953   2.435   5.403  2.4474 -0.1731  0.2631
14238TIP3   OH264128   2.552   0.908  10.997  0.4911 -0.1307  0.3311
14238TIP3    H164129   2.507   0.911  11.081  0.1593 -0.3487  0.1604
14238TIP3    H264130   2.501   0.847  10.944 -0.5610  1.6634 -0.7684
14239TIP3   OH264131   3.371   2.301   5.384 -0.2672 -0.4121 -0.1817
14239TIP3    H164132   3.286   2.261   5.369  0.2301 -1.8040  0.6204
14239TIP3    H264133   3.383   2.298   5.479  1.0747 -1.0878 -0.3569
14240TIP3   OH264134   0.058   2.257   4.152  0.0642 -0.3085 -0.7213
14240TIP3    H164135   0.089   2.238   4.064  2.3213 -0.0444 -0.0171
14240TIP3    H264136   0.017   2.176   4.182 -4.3374  0.7791 -3.4368
14241TIP3   OH264137   6.154   6.479   5.456  0.2769  0.0417 -0.3808
14241TIP3    H164138   6.171   6.395   5.499 -0.7245 -0.7145 -1.4115
14241TIP3    H264139   6.232   6.532   5.473  0.4025 -0.6636  1.3097
14242TIP3   OH264140   1.851   3.070   5.991  0.1331  0.0842  0.2619
14242TIP3    H164141   1.840   2.990   5.939  1.1041  0.4379 -0.5012
14242TIP3    H264142   1.935   3.059   6.034  0.1247  0.5560  0.3980
14243TIP3   OH264143   0.736   4.805   0.331  0.1223 -0.1760 -0.2146
14243TIP3    H164144   0.756   4.890   0.291  0.5691 -0.1364  0.0895
14243TIP3    H264145   0.715   4.748   0.257  0.5946 -0.0091 -0.4813
14244TIP3   OH264146   6.745   4.139   5.669  0.6948 -0.4221 -0.9831
14244TIP3    H164147   6.760   4.047   5.689  0.3987 -0.3233 -0.2785
14244TIP3    H264148   6.722   4.140   5.576 -2.9463 -1.4945 -0.1501
14245TIP3   OH264149   3.791   0.803  11.899  0.0704  0.0627  0.0370
14245TIP3    H164150   3.736   0.790  11.822 -1.1686  0.3906  0.8530
14245TIP3    H264151   3.872   0.840  11.865 -0.1948 -0.4641 -1.1859
14246TIP3   OH264152   6.686   4.517  13.542  0.6748  0.5900  0.7437
14246TIP3    H164153   6.608   4.571  13.532  1.2635  1.5249  1.0662
14246TIP3    H264154   6.678   4.449  13.476 -1.4829 -0.6260  2.2116
14247TIP3   OH264155   2.375   0.502  12.648  0.6178 -0.6785  0.4178
14247TIP3    H164156   2.410   0.428  12.698  0.2981 -0.6682  0.6564
14247TIP3    H264157   2.419   0.495  12.563 -0.0605 -1.6643  0.1321
14248TIP3   OH264158   2.651   5.438  14.789  0.3679 -0.0974  0.8384
14248TIP3    H164159   2.696   5.520  14.766 -0.1780 -0.2111 -0.6330
14248TIP3    H264160   2.561   5.465  14.806  0.2433 -0.3605  0.5899
14249TIP3   OH264161   1.738   0.614  16.595 -0.2102  0.1327  0.2293
14249TIP3    H164162   1.685   0.631  16.517 -1.4758  1.1278  1.2820
14249TIP3    H264163   1.814   0.671  16.585  0.0807 -0.4118 -0.7111
14250TIP3   OH264164   5.126   6.746   2.143 -0.4070  0.5767  0.0844
14250TIP3    H164165   5.050   6.719   2.194 -0.3801 -0.2796 -0.3156
14250TIP3    H264166   5.096   6.742   2.052 -0.0123  0.6517 -0.0483
14251TIP3   OH264167   3.501   3.750   1.229 -0.2959  0.2601 -0.1812
14251TIP3    H164168   3.421   3.738   1.280  0.2495  0.0042  0.6256
14251TIP3    H264169   3.528   3.662   1.203 -0.1926  0.3301 -0.3157
14252TIP3   OH264170   2.714   4.239   3.795  0.3254 -0.2486 -0.5262
14252TIP3    H164171   2.771   4.215   3.869  1.7654  1.0897 -1.1709
14252TIP3    H264172   2.635   4.186   3.808 -0.2375  1.2803  3.0218
14253TIP3   OH264173   4.459   4.212  14.349 -0.4272  0.2939 -0.2034
14253TIP3    H164174   4.405   4.211  14.270  2.4038  1.1536 -2.2448
14253TIP3    H264175   4.533   4.155  14.328 -0.0905 -0.1947  2.1924
14254TIP3   OH264176   4.797   0.829  16.155  0.0904 -0.0001 -0.3741
14254TIP3    H164177   4.711   0.790  16.139 -0.1149  0.2403  0.1308
14254TIP3    H264178   4.791   0.917  16.118  0.2893 -0.1603 -0.7918
14255TIP3   OH264179   1.997   2.851  11.212  0.0113 -0.0088 -0.2069
14255TIP3    H164180   1.933   2.850  11.283  0.0641  1.8962 -0.1218
14255TIP3    H264181   1.951   2.808  11.139 -0.6037 -0.5493  0.4908
14256TIP3   OH264182   0.075   5.145  11.580 -0.5605 -0.3090 -0.3438
14256TIP3    H164183   0.155   5.152  11.632 -0.0934 -1.2811 -0.9192
14256TIP3    H264184   0.011   5.199  11.626  0.0801 -0.5197  0.8038
14257TIP3   OH264185   4.384   4.685  14.252  0.4433 -0.2355 -0.0847
14257TIP3    H164186   4.467   4.733  14.244  0.4187 -0.3182 -0.8691
14257TIP3    H264187   4.409   4.593  14.255  0.4327 -0.2182  0.5002
14258TIP3   OH264188   1.571   5.411  14.284  0.3549 -0.2221 -0.2948
14258TIP3    H164189   1.514   5.427  14.210 -0.5437  1.2276  0.6824
14258TIP3    H264190   1.518   5.433  14.361  1.0444 -2.3090  0.8249
14259TIP3   OH264191   4.637   2.919  11.353  0.4754 -0.5881  0.1410
14259TIP3    H164192   4.557   2.908  11.405 -0.0844  1.4537 -0.2373
14259TIP3    H264193   4.605   2.946  11.267  1.5940  0.2570 -0.0055
14260TIP3   OH264194   3.566   1.117   3.793  0.2648 -0.4547  0.3354
14260TIP3    H164195   3.561   1.067   3.874 -2.4545 -1.5858 -0.4503
14260TIP3    H264196   3.634   1.075   3.741 -1.4126 -2.8735  0.0290
14261TIP3   OH264197   5.508   0.331  11.802 -0.4149 -0.7769 -0.0873
14261TIP3    H164198   5.548   0.249  11.771  0.6416 -0.5565  0.6677
14261TIP3    H264199   5.536   0.397  11.738  0.0656 -0.7001  0.2069
14262TIP3   OH264200   1.155   5.049   0.016  0.4472  0.1607  0.5710
14262TIP3    H164201   1.091   4.982  -0.008  0.5355  0.1928  0.2366
14262TIP3    H264202   1.192   5.019   0.099  0.9244 -0.5181  0.1172
14263TIP3   OH264203   1.212   1.973  12.820  0.3634  0.0702  0.3333
14263TIP3    H164204   1.152   2.005  12.887  0.7051 -0.0489  0.6958
14263TIP3    H264205   1.188   1.881  12.808 -0.4660  0.3910 -0.5433
14264TIP3   OH264206   3.292   5.814  15.492  0.0669 -0.1227 -0.2686
14264TIP3    H164207   3.290   5.860  15.408 -0.1968 -1.1766 -0.8584
14264TIP3    H264208   3.268   5.724  15.470  2.9807 -1.1334  0.4690
14265TIP3   OH264209   4.056   5.963  15.145  0.5031 -0.2077  0.1613
14265TIP3    H164210   4.031   6.053  15.163  0.1977  0.1738 -2.0627
14265TIP3    H264211   3.983   5.927  15.094 -0.1050 -2.2163  2.3401
14266TIP3   OH264212   4.114   6.654   4.730 -0.5634 -0.2916  0.1714
14266TIP3    H164213   4.024   6.645   4.762 -0.0548 -1.0043  1.4721
14266TIP3    H264214   4.122   6.590   4.660 -0.3729 -1.9278  1.6698
14267TIP3   OH264215   6.243   1.696   2.752 -0.1401 -0.4254  0.7250
14267TIP3    H164216   6.285   1.781   2.761 -0.2682 -0.3145  0.2501
14267TIP3    H264217   6.206   1.696   2.664 -0.7031 -0.7173  0.9564
14268TIP3   OH264218   6.376   5.588  12.658  0.4066  0.3608  0.3065
14268TIP3    H164219   6.317   5.558  12.726  0.2805 -0.4671 -0.1703
14268TIP3    H264220   6.461   5.596  12.702 -0.1290  1.9721  1.0982
14269TIP3   OH264221   0.870   1.869   3.327 -0.2808  0.1620  0.0750
14269TIP3    H164222   0.810   1.807   3.369 -0.5796  1.2304  1.2580
14269TIP3    H264223   0.853   1.952   3.371  1.0310  0.8031 -0.6028
14270TIP3   OH264224   6.380   0.911  15.035  0.1414 -0.2842  0.0145
14270TIP3    H164225   6.395   0.852  14.961  2.0340 -1.2932  1.1693
14270TIP3    H264226   6.433   0.988  15.015 -0.5158  0.0681 -0.3850
14271TIP3   OH264227   6.091   4.576   0.965  0.6332 -0.6419  0.1331
14271TIP3    H164228   6.082   4.591   0.871  2.0471  0.4316  0.1558
14271TIP3    H264229   6.105   4.481   0.973  3.2080 -0.3913 -0.9846
14272TIP3   OH264230   5.782   4.810  12.444 -0.0599 -0.5729 -0.0931
14272TIP3    H164231   5.703   4.770  12.406 -0.6252  1.9522 -1.7403
14272TIP3    H264232   5.851   4.792  12.380 -0.3477  1.1016 -0.9095
14273TIP3   OH264233   4.845   0.284   5.794  0.1124 -0.0073  0.0826
14273TIP3    H164234   4.759   0.265   5.830  0.4084  1.6573  1.7476
14273TIP3    H264235   4.906   0.252   5.860  0.7140  0.9910  0.0185
14274TIP3   OH264236   3.643   0.717  12.125 -0.0855  0.0749  0.1345
14274TIP3    H164237   3.649   0.621  12.126  0.8533  0.1152  2.0646
14274TIP3    H264238   3.693   0.743  12.048 -1.0256 -1.0149 -0.8674
14275TIP3   OH264239   2.243   3.235  17.027 -0.3386 -0.1806  0.5832
14275TIP3    H164240   2.335   3.230  17.052  0.0644 -1.8854 -1.1126
14275TIP3    H264241   2.221   3.328  17.037  1.5221  0.2294  1.1289
14276TIP3   OH264242   1.415   2.243   0.197 -0.1063 -0.3429 -0.0688
14276TIP3    H164243   1.452   2.253   0.109  0.7109 -1.3170  0.1603
14276TIP3    H264244   1.473   2.293   0.254 -0.5345  0.1418 -0.0586
14277TIP3   OH264245   1.687   2.121  13.309 -0.2554  0.1227  0.1413
14277TIP3    H164246   1.714   2.168  13.230  0.1997 -1.9073 -0.9716
14277TIP3    H264247   1.663   2.034  13.277 -0.4683 -0.5973  2.2016
14278TIP3   OH264248   5.953   1.313  13.514 -0.2538  0.0663  0.5876
14278TIP3    H164249   5.904   1.394  13.500  2.0383  0.7477 -5.1150
14278TIP3    H264250   6.039   1.343  13.544 -1.0508 -0.7177  3.8663
14279TIP3   OH264251   1.964   1.962  11.191 -0.1458 -0.3019  0.2303
14279TIP3    H164252   1.893   2.011  11.149 -0.3195 -0.1931  0.6519
14279TIP3    H264253   1.961   1.988  11.283 -1.4612 -2.5327  0.8612
14280TIP3   OH264254   1.454   4.263  13.636  0.2196  0.3406  0.3954
14280TIP3    H164255   1.410   4.242  13.554 -1.4495  0.0770  1.3271
14280TIP3    H264256   1.420   4.349  13.661  2.5489  1.5391 -0.3912
14281TIP3   OH264257   2.572   3.731   0.651  0.2355 -0.5035  0.1107
14281TIP3    H164258   2.651   3.708   0.603  0.1303  0.0096 -0.3124
14281TIP3    H264259   2.571   3.671   0.726  1.8010  0.4852  0.9353
14282TIP3   OH264260   4.928   0.920  12.413  0.9641 -0.6981  0.0464
14282TIP3    H164261   4.900   0.929  12.322  1.0836  0.1677  0.0882
14282TIP3    H264262   4.915   1.007  12.451  2.8354 -0.5010  0.3121
14283TIP3   OH264263   3.894   1.680   4.883  0.5152 -0.0773 -0.3116
14283TIP3    H164264   3.859   1.630   4.956 -1.4875  1.9942  0.2237
14283TIP3    H264265   3.874   1.627   4.806  3.8175 -2.9060  0.6721
14284TIP3   OH264266   5.621   0.879   5.519  0.2401 -0.4866  0.1984
14284TIP3    H164267   5.669   0.891   5.601 -0.2269 -2.8554  0.8803
14284TIP3    H264268   5.561   0.953   5.515  1.5007  0.6078  1.0908
14285TIP3   OH264269   1.239   0.796  15.018  0.1354 -0.1187 -0.2705
14285TIP3    H164270   1.220   0.702  15.012  0.2480 -0.1009 -0.8532
14285TIP3    H264271   1.158   0.839  14.991 -0.1750 -0.0457  0.7615
14286TIP3   OH264272   1.951   0.148  11.528  0.3942 -0.5784  0.6512
14286TIP3    H164273   1.879   0.085  11.530 -0.0071 -0.1685 -0.3705
14286TIP3    H264274   1.997   0.128  11.447  0.7281 -0.0753  0.7178
14287TIP3   OH264275   4.281   1.074   3.538  0.0147  0.3148 -0.4136
14287TIP3    H164276   4.373   1.060   3.516  0.3432  1.2671  0.3401
14287TIP3    H264277   4.239   1.094   3.454  0.6975  0.9717 -0.6027
14288TIP3   OH264278   5.515   0.097   5.190  0.0212 -0.3038  0.0974
14288TIP3    H164279   5.466   0.071   5.113 -1.0984 -0.9420  1.0165
14288TIP3    H264280   5.584   0.031   5.198 -0.6372 -0.9582  0.3731
14289TIP3   OH264281   6.474   0.260  15.002  0.2671  0.0306  0.0258
14289TIP3    H164282   6.405   0.195  14.989 -0.7560  0.8211  1.3424
14289TIP3    H264283   6.461   0.325  14.934  1.3327 -1.1489 -1.3362
14290TIP3   OH264284   3.744   4.009   2.810  0.2886  0.1000 -0.4866
14290TIP3    H164285   3.695   3.932   2.781  0.6257  0.0044 -0.8089
14290TIP3    H264286   3.812   4.020   2.744 -0.1443  1.0531 -0.7801
14291TIP3   OH264287   5.649   6.738  13.548  0.8037 -0.0198 -0.2758
14291TIP3    H164288   5.704   6.668  13.582 -2.0819 -1.8771  0.7590
14291TIP3    H264289   5.585   6.694  13.493 -0.4292  1.9088 -0.4420
14292TIP3   OH264290   5.778   2.228   3.907 -0.4551  0.3458  0.3160
14292TIP3    H164291   5.802   2.159   3.970  1.3872  1.5358  0.9679
14292TIP3    H264292   5.814   2.198   3.824 -0.2499  0.1831  0.4614
14293TIP3   OH264293   5.729   0.543  15.494 -0.0628 -0.1412 -0.2148
14293TIP3    H164294   5.809   0.565  15.447 -0.8459  0.3685 -1.3113
14293TIP3    H264295   5.722   0.448  15.487  1.4848 -0.4349  1.5893
14294TIP3   OH264296   6.320   4.840  12.898 -0.2452 -0.2575 -0.2861
14294TIP3    H164297   6.294   4.853  12.990  1.2268 -1.6373  0.3581
14294TIP3    H264298   6.282   4.756  12.874  1.8978 -1.3419  0.0403
14295TIP3   OH264299   0.724   5.108   6.114  0.5191 -0.6572 -0.4021
14295TIP3    H164300   0.638   5.115   6.073  0.2966  1.0328  0.3003
14295TIP3    H264301   0.739   5.014   6.123 -2.1349 -0.9637  1.2674
14296TIP3   OH264302   4.838   5.438  14.974 -0.0891 -0.5673 -0.4365
14296TIP3    H164303   4.745   5.419  14.980 -0.1014 -0.4248 -0.1070
14296TIP3    H264304   4.842   5.525  14.935 -0.1833  0.3205  1.4682
14297TIP3   OH264305   3.421   2.219  14.641 -0.1809 -0.4727 -0.2963
14297TIP3    H164306   3.432   2.271  14.562 -0.5716  0.1350  0.0423
14297TIP3    H264307   3.326   2.214  14.654 -0.1630 -1.5531 -0.5116
14298TIP3   OH264308   6.764   3.954  14.137 -0.0706 -0.7224 -0.8385
14298TIP3    H164309   6.760   3.863  14.167 -1.1346 -0.0668  1.0806
14298TIP3    H264310   6.677   3.989  14.156  0.9004  1.2212  0.1153
14299TIP3   OH264311   3.070   3.322   5.986 -0.1968  0.0231 -0.6113
14299TIP3    H164312   3.129   3.363   6.049 -0.4823 -0.5327  0.0375
14299TIP3    H264313   3.002   3.387   5.971  0.3342  0.4894 -1.0129
14300TIP3   OH264314   1.356   1.887   7.041  0.0175 -0.0367  0.4200
14300TIP3    H164315   1.421   1.951   7.010 -0.3019 -0.3282 -0.8772
14300TIP3    H264316   1.331   1.919   7.127  2.0053 -0.0065  1.0139
14301TIP3   OH264317   4.639   0.766   4.532 -0.7715  0.8674  0.0092
14301TIP3    H164318   4.624   0.690   4.588 -0.6308  0.2678 -0.7691
14301TIP3    H264319   4.734   0.779   4.534 -1.0420  2.8009  2.4703
14302TIP3   OH264320   4.797   5.437   3.106 -0.3802 -0.1978 -0.2301
14302TIP3    H164321   4.724   5.496   3.089 -0.2815  0.2423  0.8489
14302TIP3    H264322   4.863   5.461   3.041 -0.4836  0.6341 -0.0352
14303TIP3   OH264323   3.133   2.515   2.814 -0.3110 -0.4905  0.2530
14303TIP3    H164324   3.104   2.506   2.905  0.8721  1.0590  0.7998
14303TIP3    H264325   3.225   2.489   2.815 -0.0509  0.3878 -0.3395
14304TIP3   OH264326   3.002   4.357   2.499  0.1534  0.3082 -0.1291
14304TIP3    H164327   3.049   4.397   2.426 -1.2772 -0.2288 -1.3612
14304TIP3    H264328   2.976   4.431   2.554 -1.9010  1.0755 -2.0426
14305TIP3   OH264329   3.001   3.694  14.398  0.4795 -0.0637 -1.1987
14305TIP3    H164330   2.962   3.607  14.406 -1.7240  1.0681  0.7579
14305TIP3    H264331   3.079   3.690  14.454 -1.7792  0.3631  2.1588
14306TIP3   OH264332   2.973   3.563   3.473 -0.4466 -0.3766 -0.2159
14306TIP3    H164333   2.974   3.589   3.565 -0.4432 -1.5266  0.1172
14306TIP3    H264334   3.040   3.617   3.432  2.9420 -3.1323  1.3940
14307TIP3   OH264335   6.166   4.299   2.079 -0.7095  0.1409  0.7844
14307TIP3    H164336   6.137   4.215   2.115  0.1494  0.1039  1.3907
14307TIP3    H264337   6.259   4.304   2.100  0.0322 -0.2567 -2.1469
14308TIP3   OH264338   1.554   4.855   0.701  0.0846  0.9139  0.2574
14308TIP3    H164339   1.597   4.778   0.664 -1.8220 -0.0115 -0.1024
14308TIP3    H264340   1.607   4.929   0.672  0.8921 -0.1327 -0.9567
14309TIP3   OH264341   2.826   5.011  13.199  0.1920  0.3796 -0.4425
14309TIP3    H164342   2.919   5.028  13.211  0.4165  0.8577 -2.6011
14309TIP3    H264343   2.782   5.091  13.226  0.5116  0.6964 -0.8733
14310TIP3   OH264344   1.065   6.663  15.068  0.0297 -0.5265  0.2505
14310TIP3    H164345   1.133   6.695  15.128  0.5455 -0.6598 -0.2606
14310TIP3    H264346   0.982   6.686  15.111  0.3917  0.7623  0.2621
14311TIP3   OH264347   2.930   3.413  14.719 -0.7788  0.4180  0.2189
14311TIP3    H164348   2.985   3.490  14.736 -0.8571  0.3074  1.0345
14311TIP3    H264349   2.960   3.348  14.784 -0.4745 -0.3644 -0.6826
14312TIP3   OH264350   4.279   6.103  11.507  0.4342  0.1250  0.1030
14312TIP3    H164351   4.296   6.183  11.556 -0.1983  1.6623 -2.1130
14312TIP3    H264352   4.209   6.060  11.555 -2.7511  3.4103 -1.3422
14313TIP3   OH264353   2.652   0.305   0.025 -0.1271 -0.5943  0.0063
14313TIP3    H164354   2.651   0.227  -0.031  0.0184 -0.7732  0.2528
14313TIP3    H264355   2.697   0.277   0.104 -0.9814 -0.5446  0.5157
14314TIP3   OH264356   3.942   0.204  16.037 -0.5907 -0.1367  0.1350
14314TIP3    H164357   3.865   0.229  16.087 -0.9829 -1.2557  0.1036
14314TIP3    H264358   3.926   0.113  16.012  0.9857 -0.5841  0.6419
14315TIP3   OH264359   6.171   5.453  11.242 -0.5880  0.1604  0.3551
14315TIP3    H164360   6.139   5.399  11.169 -1.3959  0.9590  0.1107
14315TIP3    H264361   6.178   5.541  11.205  0.2203  0.3232  0.8991
14316TIP3   OH264362   2.401   1.917   5.967 -0.5434 -0.2024  0.0482
14316TIP3    H164363   2.442   1.967   6.037 -0.6314 -0.5790  0.3694
14316TIP3    H264364   2.388   1.829   6.004  2.8212 -1.4963 -1.6503
14317TIP3   OH264365   5.382   6.288   2.836  0.0601  0.7349 -0.0976
14317TIP3    H164366   5.329   6.340   2.897  0.8748  0.6778  0.6710
14317TIP3    H264367   5.387   6.342   2.757  1.2010  2.0052  0.8168
14318TIP3   OH264368   0.116   3.514  12.174  0.2425 -0.1271 -0.2917
14318TIP3    H164369   0.176   3.579  12.139  0.8204 -0.4630  0.0699
14318TIP3    H264370   0.035   3.562  12.191  0.6626  0.4911 -0.0417
14319TIP3   OH264371   5.786   2.632   6.368  0.2130  0.3067 -0.4795
14319TIP3    H164372   5.803   2.664   6.279  0.8637 -2.4359 -1.3969
14319TIP3    H264373   5.720   2.565   6.357 -0.3704  0.5687  1.2615
14320TIP3   OH264374   6.297   2.227   0.292 -0.1705  0.0240  0.4513
14320TIP3    H164375   6.363   2.228   0.361 -0.5322 -2.4172  0.8729
14320TIP3    H264376   6.348   2.217   0.211  0.0768 -0.2901  0.6421
14321TIP3   OH264377   5.326   3.696   5.869 -0.5268 -0.3111 -0.0320
14321TIP3    H164378   5.338   3.791   5.874  0.0940 -0.4284  0.7077
14321TIP3    H264379   5.408   3.664   5.830 -0.2301 -0.6615  0.8657
14322TIP3   OH264380   5.452   0.068  12.084 -0.0841  0.4631  0.6889
14322TIP3    H164381   5.444   0.159  12.111 -0.0616  0.2606  1.3793
14322TIP3    H264382   5.509   0.027  12.150  2.0769  0.5573 -1.0493
14323TIP3   OH264383   2.871   2.535  11.341  0.1387  0.0626  0.4609
14323TIP3    H164384   2.873   2.568  11.430 -0.4304 -2.1484  1.3367
14323TIP3    H264385   2.790   2.569  11.303  0.5291  1.2391  0.6863
14324TIP3   OH264386   5.384   1.235  16.067  0.0998 -0.6416 -0.2699
14324TIP3    H164387   5.326   1.204  16.137  0.8119 -1.1012  0.1235
14324TIP3    H264388   5.343   1.316  16.037 -0.2614 -0.4774  0.6277
14325TIP3   OH264389   2.589   0.706   1.026  0.2473 -0.9607  0.5575
14325TIP3    H164390   2.512   0.661   0.992 -0.0846  0.3361 -0.4031
14325TIP3    H264391   2.610   0.659   1.107 -2.5928 -0.2422  1.7561
14326TIP3   OH264392   1.910   0.286   3.250 -0.3422  0.6202 -0.4976
14326TIP3    H164393   1.915   0.303   3.156 -0.2744  1.4026 -0.3543
14326TIP3    H264394   1.984   0.228   3.269 -0.6727  0.0191 -1.0183
14327TIP3   OH264395   6.032   0.474   4.553  0.2014 -0.3389 -0.4056
14327TIP3    H164396   6.084   0.402   4.589 -0.8062 -0.7746  0.2136
14327TIP3    H264397   5.955   0.431   4.516 -0.2052  0.3801 -0.4064
14328TIP3   OH264398   3.972   6.661  15.232  0.2336  0.3393 -0.0007
14328TIP3    H164399   3.924   6.742  15.245 -1.6826 -0.8526  0.6802
14328TIP3    H264400   3.909   6.602  15.191  1.5760 -0.8084 -0.4562
14329TIP3   OH264401   4.869   3.996   0.519 -0.3173 -0.6999 -0.2344
14329TIP3    H164402   4.949   3.942   0.521 -0.0247 -0.2417  1.0486
14329TIP3    H264403   4.859   4.020   0.427  2.6379  1.6133 -0.0312
14330TIP3   OH264404   4.548   6.735  13.852  0.2936 -0.0365 -0.6205
14330TIP3    H164405   4.456   6.758  13.864  0.3609 -0.3239  0.4761
14330TIP3    H264406   4.592   6.820  13.845  0.1553  0.1213  0.4415
14331TIP3   OH264407   3.655   0.957  11.229 -0.3840  0.7410  0.7311
14331TIP3    H164408   3.743   0.919  11.236 -0.5775  0.3864  1.3091
14331TIP3    H264409   3.596   0.882  11.230 -0.6617  0.9323 -0.4642
14332TIP3   OH264410   3.092   4.927   6.235 -0.8615  0.0436 -0.0324
14332TIP3    H164411   3.071   5.003   6.290 -2.1834  0.4582 -1.0692
14332TIP3    H264412   3.169   4.954   6.186  0.2476 -0.2815  1.5139
14333TIP3   OH264413   5.929   6.088  11.735  0.4118  0.4040  0.2939
14333TIP3    H164414   5.893   6.133  11.812 -0.8669 -1.1903  0.6547
14333TIP3    H264415   5.980   6.015  11.771 -0.0098 -0.2203 -0.3463
14334TIP3   OH264416   0.297   2.288  12.658  0.3900 -0.1686 -0.0046
14334TIP3    H164417   0.310   2.339  12.738 -2.3268  1.1136 -0.2992
14334TIP3    H264418   0.259   2.205  12.688  0.3935 -0.1240  0.1227
14335TIP3   OH264419   3.303   4.250   4.089 -0.3592 -0.1484 -0.0844
14335TIP3    H164420   3.331   4.270   4.178 -1.3928  1.0322 -0.0184
14335TIP3    H264421   3.208   4.250   4.093 -0.4332 -3.2275 -0.5122
14336TIP3   OH264422   1.593   3.039   3.441  0.9290 -0.0561 -0.4355
14336TIP3    H164423   1.518   3.000   3.396 -0.0443  2.1128 -0.7722
14336TIP3    H264424   1.660   3.049   3.374  0.1641  1.3935 -1.0243
14337TIP3   OH264425   6.089   5.093  16.051 -0.7537  0.4552  0.3669
14337TIP3    H164426   6.037   5.101  16.130 -0.6830 -0.0214  0.4662
14337TIP3    H264427   6.030   5.054  15.987 -0.1554 -1.3693  0.8733
14338TIP3   OH264428   4.706   2.863  17.034  0.0895  0.3988 -0.5542
14338TIP3    H164429   4.643   2.855  17.105  0.8057  0.6522  0.1078
14338TIP3    H264430   4.733   2.773  17.016  0.0869  0.3569 -0.3475
14339TIP3   OH264431   6.555   3.718   5.915 -0.3942  0.3286 -0.1973
14339TIP3    H164432   6.497   3.645   5.936  2.2015 -1.6718  0.2980
14339TIP3    H264433   6.533   3.741   5.825 -0.2846 -2.0196 -0.8562
14340TIP3   OH264434   0.870   6.008   4.979  0.5967  0.0893  0.1781
14340TIP3    H164435   0.784   5.979   5.008  0.7278 -0.1013  0.3851
14340TIP3    H264436   0.931   5.963   5.038  0.9864 -1.7986 -1.6006
14341TIP3   OH264437   3.634   4.049   7.084  0.3775 -0.7211 -0.4088
14341TIP3    H164438   3.714   4.025   7.132  1.4285  0.6756 -1.4251
14341TIP3    H264439   3.659   4.125   7.032 -1.5825 -0.3846 -0.8955
14342TIP3   OH264440   0.729   2.874  13.863  0.1582  0.0846  0.2646
14342TIP3    H164441   0.695   2.926  13.790  1.2827 -0.5471 -0.7127
14342TIP3    H264442   0.709   2.927  13.941 -1.2192  0.6659 -0.4696
14343TIP3   OH264443   3.258   5.401  15.165 -0.0975  0.6782 -0.2421
14343TIP3    H164444   3.186   5.463  15.171 -0.1842  0.4549  1.2261
14343TIP3    H264445   3.267   5.383  15.071 -2.3364  0.2328 -0.3997
14344TIP3   OH264446   1.497   0.329  16.554 -0.3208  0.3631 -0.5097
14344TIP3    H164447   1.510   0.380  16.474  2.0602 -1.2698 -1.2117
14344TIP3    H264448   1.403   0.313  16.557 -0.6034  1.5591 -2.2861
14345TIP3   OH264449   6.344   6.396  15.978  0.1859 -0.2192 -0.2941
14345TIP3    H164450   6.270   6.382  15.919  0.4445 -1.2092 -0.3922
14345TIP3    H264451   6.407   6.328  15.954  1.5099  1.1763 -0.8320
14346TIP3   OH264452   1.858   3.501  14.649 -0.0264  0.0259  0.4074
14346TIP3    H164453   1.853   3.411  14.617 -2.7450  0.5302 -0.7362
14346TIP3    H264454   1.924   3.543  14.594 -1.3244 -0.3429 -1.4724
14347TIP3   OH264455   0.046   3.174  15.868  0.4156 -0.1799 -0.2001
14347TIP3    H164456   0.050   3.113  15.942  1.4192 -3.6261 -2.9387
14347TIP3    H264457  -0.042   3.160  15.831  0.5535  0.2293 -0.6799
14348TIP3   OH264458   0.729   3.341  16.257 -0.1096 -0.6798  0.1934
14348TIP3    H164459   0.803   3.402  16.259  0.4353 -1.3465  0.5106
14348TIP3    H264460   0.750   3.280  16.186 -1.2751  0.2558 -0.9926
14349TIP3   OH264461   2.732   2.894  14.676  0.4668 -0.4652  0.0386
14349TIP3    H164462   2.762   2.809  14.711  1.2212 -0.6129 -0.9201
14349TIP3    H264463   2.750   2.956  14.746  0.1982 -1.0558  0.6383
14350TIP3   OH264464   4.966   0.534   3.405  0.2047  0.3071  0.4849
14350TIP3    H164465   5.044   0.525   3.350  0.2256  0.2241  0.5287
14350TIP3    H264466   4.993   0.502   3.491 -0.6645 -2.2817 -0.1707
14351TIP3   OH264467   6.493   1.427  10.585 -0.4610 -0.1015 -0.5114
14351TIP3    H164468   6.442   1.350  10.608 -0.9953 -0.1378 -1.7492
14351TIP3    H264469   6.577   1.392  10.555  0.5272 -0.0149  2.0314
14352TIP3   OH264470   4.164   3.397   4.553 -0.2113  0.1130 -0.1362
14352TIP3    H164471   4.160   3.382   4.647  1.5206  0.2302 -0.0355
14352TIP3    H264472   4.168   3.492   4.544  1.6565  0.0435 -0.2256
14353TIP3   OH264473   6.445   0.242  12.666  0.1568  0.1436  0.0523
14353TIP3    H164474   6.507   0.250  12.593 -0.8602  1.4458 -0.7120
14353TIP3    H264475   6.419   0.150  12.666  1.5694 -0.2719 -0.0395
14354TIP3   OH264476   0.172   3.073  12.207  0.2729 -0.4727 -0.3395
14354TIP3    H164477   0.107   3.073  12.136  0.0724 -0.4160 -0.1537
14354TIP3    H264478   0.182   2.981  12.230  1.6654 -0.6670 -1.6683
14355TIP3   OH264479   5.814   6.748   6.481 -0.0379 -0.1011  0.3646
14355TIP3    H164480   5.907   6.739   6.499 -0.0102  0.6808  0.5970
14355TIP3    H264481   5.796   6.841   6.489 -1.0774 -0.3749  1.5312
14356TIP3   OH264482   6.538   0.781   2.817  0.5251 -1.0734  0.0290
14356TIP3    H164483   6.522   0.875   2.825  1.1870 -1.0416  0.9460
14356TIP3    H264484   6.525   0.763   2.724  1.5433  0.1441 -0.3626
14357TIP3   OH264485   0.840   3.390  13.380  0.4604 -0.3045 -0.2606
14357TIP3    H164486   0.801   3.448  13.315  0.6355 -0.1949 -0.2685
14357TIP3    H264487   0.804   3.420  13.464 -0.3200 -0.9049 -0.3804
14358TIP3   OH264488   4.085   5.496   2.525  0.0329 -0.6308  0.0402
14358TIP3    H164489   4.063   5.482   2.618 -1.2981 -1.0049 -0.3105
14358TIP3    H264490   4.163   5.551   2.527 -0.9925  0.8207  1.3825
14359TIP3   OH264491   2.475   5.147  16.959 -0.1618 -0.3347  0.4521
14359TIP3    H164492   2.527   5.072  16.988 -0.2280  0.3897  2.5955
14359TIP3    H264493   2.539   5.206  16.918  0.5260 -0.0397  1.8884
14360TIP3   OH264494   3.507   6.052   5.105 -0.9699  0.0925  0.0499
14360TIP3    H164495   3.594   6.057   5.066 -0.6488  0.5189  0.8143
14360TIP3    H264496   3.518   6.088   5.193 -1.7417 -0.6051  0.4402
14361TIP3   OH264497   1.164   0.612   5.474  0.5395 -0.2926 -0.3844
14361TIP3    H164498   1.131   0.541   5.419 -1.3196  0.8345 -0.7583
14361TIP3    H264499   1.212   0.669   5.413  1.2869 -0.7700 -0.2420
14362TIP3   OH264500   2.153   2.443  13.528  0.1893  0.3351 -0.1734
14362TIP3    H164501   2.060   2.441  13.507  0.2665  0.4306 -0.5256
14362TIP3    H264502   2.168   2.362  13.577 -0.5249  1.3747  1.7856
14363TIP3   OH264503   2.683   4.498   5.616  0.3154 -0.2377  0.3705
14363TIP3    H164504   2.654   4.481   5.705  1.5183  0.8594  0.9869
14363TIP3    H264505   2.602   4.511   5.566 -0.3529 -0.8024  1.3063
14364TIP3   OH264506   4.327   4.871   6.487 -0.3586 -0.2865  0.4959
14364TIP3    H164507   4.315   4.839   6.577  0.6544 -0.4979  0.5618
14364TIP3    H264508   4.260   4.825   6.436 -1.1061  0.0301  1.1910
14365TIP3   OH264509   2.779   5.200   0.660  0.0315 -0.3871 -0.8339
14365TIP3    H164510   2.741   5.164   0.741 -2.1337 -0.2589 -1.7441
14365TIP3    H264511   2.826   5.278   0.688  1.6724 -1.8801  0.6742
14366TIP3   OH264512   6.058   2.422   4.246 -0.0166  0.2903 -0.1170
14366TIP3    H164513   6.097   2.449   4.329 -0.0755  0.2613 -0.0794
14366TIP3    H264514   5.969   2.395   4.270  0.1823 -0.3406 -0.0911
14367TIP3   OH264515   1.003   6.450   2.964 -0.2994 -0.0399  0.0207
14367TIP3    H164516   1.007   6.523   2.901 -2.2508 -0.1045 -0.1980
14367TIP3    H264517   1.017   6.492   3.049  1.2445  0.2030 -0.3371
14368TIP3   OH264518   2.133   4.875  11.133 -0.3015  0.2423 -0.6825
14368TIP3    H164519   2.155   4.786  11.107  1.9465  0.4522  0.4609
14368TIP3    H264520   2.180   4.930  11.070 -0.9659  0.6630 -0.8242
14369TIP3   OH264521   6.154   1.032   1.102 -0.2457  0.3018  0.0986
14369TIP3    H164522   6.162   1.017   1.007 -0.7568 -0.0347  0.1048
14369TIP3    H264523   6.067   1.071   1.113  0.4552  1.8318  0.2663
14370TIP3   OH264524   2.801   1.240   3.953 -0.2511  0.8472  0.3519
14370TIP3    H164525   2.873   1.286   3.910 -0.6552 -0.3049 -1.6129
14370TIP3    H264526   2.832   1.150   3.963 -0.4879  0.9154  1.7179
14371TIP3   OH264527   1.570   3.197   1.383 -0.9683 -0.1271 -0.2757
14371TIP3    H164528   1.592   3.289   1.370 -1.0111 -0.0053  0.4659
14371TIP3    H264529   1.653   3.154   1.403 -1.0471 -0.1158  0.0850
14372TIP3   OH264530   4.511   2.625  11.471 -1.3066  0.2915  0.4709
14372TIP3    H164531   4.433   2.660  11.428 -1.2569  0.1195  0.2402
14372TIP3    H264532   4.555   2.575  11.402 -0.8640  0.5980  0.5333
14373TIP3   OH264533   3.204   0.131  13.762  0.3816  0.2757 -0.3487
14373TIP3    H164534   3.167   0.100  13.844 -0.1014  1.1959 -0.2220
14373TIP3    H264535   3.144   0.099  13.695  1.0363 -0.8973 -0.3994
14374TIP3   OH264536   4.005   0.755  12.680  0.0202  0.6843 -0.6519
14374TIP3    H164537   3.948   0.788  12.611 -0.0641  0.2540 -0.7908
14374TIP3    H264538   3.961   0.779  12.762 -0.1641  0.6924 -0.7544
14375TIP3   OH264539   5.084   4.345   3.024  0.0477  0.1268 -0.6852
14375TIP3    H164540   5.078   4.362   3.117  2.1763 -1.2244 -0.2615
14375TIP3    H264541   5.000   4.305   3.002  0.4458 -1.8410  1.1905
14376TIP3   OH264542   0.559   3.347  14.386  0.0615  0.4313 -0.2385
14376TIP3    H164543   0.506   3.270  14.408  0.4573  0.2984  0.2588
14376TIP3    H264544   0.528   3.414  14.447  0.8677  0.1867  0.4380
14377TIP3   OH264545   6.773   0.711  11.095 -0.3200  0.5242  0.2533
14377TIP3    H164546   6.713   0.642  11.123  0.2082  0.3161  0.8595
14377TIP3    H264547   6.715   0.784  11.071 -0.7363  1.3788  3.6213
14378TIP3   OH264548   1.889   0.936   1.587 -0.5401 -0.5201  0.1151
14378TIP3    H164549   1.984   0.942   1.576 -0.3193 -1.3149  1.4283
14378TIP3    H264550   1.855   0.921   1.499  0.5007  0.2794 -0.4368
14379TIP3   OH264551   1.236   4.120  14.808  0.0782  0.2743  0.4228
14379TIP3    H164552   1.198   4.205  14.786  0.1485  0.9302  2.7063
14379TIP3    H264553   1.163   4.068  14.842 -0.1598 -0.9429 -1.8315
14380TIP3   OH264554   2.452   5.471   5.406 -0.0767  0.3741  0.1123
14380TIP3    H164555   2.515   5.543   5.397  0.1757  0.1825  0.3448
14380TIP3    H264556   2.455   5.427   5.321  0.3496  0.1665  0.2319
14381TIP3   OH264557   3.585   3.553   0.624 -0.3085 -0.5323 -0.0520
14381TIP3    H164558   3.609   3.584   0.711 -0.0089  0.1713 -0.3808
14381TIP3    H264559   3.492   3.577   0.615 -0.4288 -0.9049  0.2038
14382TIP3   OH264560   6.004   1.930   0.842  0.1444  0.1138  0.1434
14382TIP3    H164561   6.004   2.009   0.787 -1.3263  0.4083  0.5512
14382TIP3    H264562   6.008   1.858   0.779  1.2121  0.4866 -0.2399
14383TIP3   OH264563   4.547   0.416   4.233  0.4281  0.9145 -0.6131
14383TIP3    H164564   4.544   0.332   4.189  1.7381 -0.3545  1.6148
14383TIP3    H264565   4.622   0.409   4.293 -1.3772  2.4735  1.9045
14384TIP3   OH264566   0.260   1.140   6.117 -0.2689 -0.2644  0.5776
14384TIP3    H164567   0.326   1.125   6.049 -1.8709 -1.8980 -0.6921
14384TIP3    H264568   0.224   1.226   6.097 -0.2870 -0.4623 -0.2765
14385TIP3   OH264569   1.161   6.653  11.182 -0.9438 -0.5588  0.1358
14385TIP3    H164570   1.237   6.595  11.183 -0.1037  0.5431  2.3181
14385TIP3    H264571   1.163   6.696  11.267 -0.5047  3.9986 -2.0617
14386TIP3   OH264572   5.502   0.098   4.317 -0.3119  0.1698 -0.9143
14386TIP3    H164573   5.571   0.140   4.369 -0.3738  0.2313 -0.8827
14386TIP3    H264574   5.502   0.007   4.346 -0.9929  0.4205 -0.1319
14387TIP3   OH264575   2.940   4.199  12.074  0.3859  0.5508  0.9051
14387TIP3    H164576   2.976   4.241  11.996  0.5320 -0.6985  0.2775
14387TIP3    H264577   2.971   4.108  12.069 -2.1381 -0.3551  0.7735
14388TIP3   OH264578   6.639   3.013   0.349 -0.7203 -0.7525  0.2144
14388TIP3    H164579   6.592   3.003   0.266  1.5365 -1.9933 -0.9673
14388TIP3    H264580   6.659   3.107   0.354  1.1672 -0.9900 -1.8619
14389TIP3   OH264581   4.284   6.025  16.761  0.1453 -0.2380  0.0602
14389TIP3    H164582   4.257   6.052  16.849 -1.2382  2.8237 -1.2111
14389TIP3    H264583   4.370   6.067  16.749  0.2836 -0.5661 -0.0876
14390TIP3   OH264584   5.824   0.289   4.466 -0.2387  0.0295  0.2687
14390TIP3    H164585   5.808   0.212   4.522 -2.6870 -0.2062 -0.7082
14390TIP3    H264586   5.755   0.351   4.490 -2.1845 -0.5878 -3.3614
14391TIP3   OH264587   2.998   6.004  15.230  0.1644  0.0014 -0.4720
14391TIP3    H164588   3.054   5.930  15.206  1.5013  1.1775 -1.0559
14391TIP3    H264589   2.939   5.969  15.297  0.1403 -1.8325 -1.4373
14392TIP3   OH264590   2.361   2.140  14.779  0.2174  0.3916 -0.2634
14392TIP3    H164591   2.434   2.087  14.747  1.3181  2.3342 -1.0165
14392TIP3    H264592   2.371   2.225  14.735 -1.8245  1.0643  0.5083
14393TIP3   OH264593   3.720   1.991   2.961  0.2736  0.0656 -0.4337
14393TIP3    H164594   3.650   1.928   2.976  0.3292 -0.3788 -1.9616
14393TIP3    H264595   3.694   2.069   3.009  0.0761 -1.0267  1.2731
14394TIP3   OH264596   5.496   5.267   2.971 -0.6324  0.0964 -0.2547
14394TIP3    H164597   5.577   5.216   2.967 -0.6905  0.0879 -1.7177
14394TIP3    H264598   5.524   5.354   3.001 -0.1557 -0.0674 -0.2161
14395TIP3   OH264599   4.407   3.677   2.706 -0.1975 -0.2894 -0.2011
14395TIP3    H164600   4.421   3.609   2.771  0.3440  1.9442  2.1083
14395TIP3    H264601   4.492   3.721   2.698  0.3695 -1.8944 -4.1054
14396TIP3   OH264602   0.866   4.654   4.158 -0.3371 -0.1002 -0.5210
14396TIP3    H164603   0.821   4.580   4.117  1.6075 -0.8947 -1.2985
14396TIP3    H264604   0.902   4.618   4.240 -0.9244  0.4679 -0.0079
14397TIP3   OH264605   1.129   0.100   1.356  0.2386  0.4172  0.0143
14397TIP3    H164606   1.076   0.020   1.361  0.2106  0.3631 -0.9883
14397TIP3    H264607   1.070   0.170   1.384  0.3781  0.0407  1.2711
14398TIP3   OH264608   5.989   5.634  15.198 -0.6555 -0.7784  0.4483
14398TIP3    H164609   6.043   5.712  15.211 -0.0347 -1.1762  0.2668
14398TIP3    H264610   6.050   5.561  15.205 -0.9477 -1.1828 -1.0382
14399TIP3   OH264611   0.878   1.426  12.497 -0.6316 -0.6065 -0.4970
14399TIP3    H164612   0.927   1.355  12.456 -1.5342 -1.9603  0.6870
14399TIP3    H264613   0.799   1.435  12.444 -0.6588 -0.7084 -0.4748
14400TIP3   OH264614   5.334   5.246  16.016 -0.5934 -0.0280  0.4973
14400TIP3    H164615   5.411   5.191  16.028 -0.7872 -1.0588 -2.5801
14400TIP3    H264616   5.367   5.325  15.972 -1.2490 -0.4005 -0.6850
14401TIP3   OH264617   1.162   5.539   5.487  0.1332  0.0916 -0.2588
14401TIP3    H164618   1.154   5.635   5.487  0.3500  0.1089 -0.5341
14401TIP3    H264619   1.075   5.508   5.461  0.3422  0.2336 -1.1264
14402TIP3   OH264620   2.151   2.195  13.692  0.1870 -0.5262  0.6742
14402TIP3    H164621   2.201   2.159  13.618 -0.0382 -2.0901  1.2632
14402TIP3    H264622   2.203   2.170  13.769 -0.3407 -0.1851  1.1364
14403TIP3   OH264623   3.034   6.534   4.764  0.0017 -0.2220 -0.7926
14403TIP3    H164624   3.052   6.443   4.739 -0.4905 -0.3338 -0.7494
14403TIP3    H264625   2.960   6.528   4.824  1.0195  0.0700  0.5050
14404TIP3   OH264626   1.139   1.727   1.513 -0.8607  0.2960  0.2556
14404TIP3    H164627   1.160   1.638   1.543 -1.5325 -0.7475 -2.2846
14404TIP3    H264628   1.141   1.722   1.418 -0.1994  3.2047  0.0789
14405TIP3   OH264629   6.657   1.419  14.516 -0.0777 -0.0444  0.0634
14405TIP3    H164630   6.714   1.426  14.593 -1.9176  0.4748  1.4223
14405TIP3    H264631   6.612   1.503  14.512  1.1143  0.5163 -2.5334
14406TIP3   OH264632   5.499   5.521   2.351 -0.1222  0.5091 -0.6877
14406TIP3    H164633   5.404   5.524   2.367  0.0629 -0.2155  0.5586
14406TIP3    H264634   5.537   5.569   2.424  0.5097  0.4278 -0.9618
14407TIP3   OH264635   4.659   5.130  11.588  0.4555 -0.0686 -0.4061
14407TIP3    H164636   4.740   5.103  11.631  1.0052  1.6088 -0.3377
14407TIP3    H264637   4.590   5.095  11.644  1.1376  2.9300  2.5347
14408TIP3   OH264638   6.755   3.201   3.187  0.5141 -0.0014 -0.3460
14408TIP3    H164639   6.760   3.249   3.104 -1.5493  2.9491  1.1208
14408TIP3    H264640   6.739   3.269   3.253 -0.7727 -2.5457  2.0917
14409TIP3   OH264641   4.261   5.044  14.236 -0.5271  0.0524 -0.4038
14409TIP3    H164642   4.232   5.042  14.145 -1.3513 -1.1797 -0.1248
14409TIP3    H264643   4.184   5.071  14.286 -0.8842 -2.0117  0.2094
14410TIP3   OH264644   0.535   5.396  16.781 -0.0911  0.0324 -1.1553
14410TIP3    H164645   0.503   5.319  16.827 -1.8014  0.7979 -0.9907
14410TIP3    H264646   0.589   5.361  16.710  0.0911 -1.2644 -0.3919
14411TIP3   OH264647   2.237   3.516   1.339  0.4224  0.2633 -0.0573
14411TIP3    H164648   2.199   3.432   1.365  1.6385  0.8691  4.0165
14411TIP3    H264649   2.314   3.492   1.286  0.2326 -1.1471  0.2830
14412TIP3   OH264650   4.929   0.462  15.819 -0.1487 -0.1769  0.0190
14412TIP3    H164651   4.858   0.399  15.831 -1.3922  1.2887  0.4662
14412TIP3    H264652   4.888   0.547  15.835  1.7246  0.6765  0.3119
14413TIP3   OH264653   1.106   0.068   2.890  0.0768 -0.0262 -0.0563
14413TIP3    H164654   1.058   0.018   2.825  0.3673 -0.2475 -0.0999
14413TIP3    H264655   1.044   0.080   2.962 -0.0726 -0.2280 -0.1519
14414TIP3   OH264656   4.985   4.627   5.956 -0.3060 -1.1895  0.1439
14414TIP3    H164657   5.019   4.561   6.016  0.1979 -0.3588  0.7792
14414TIP3    H264658   4.993   4.709   6.003 -2.0237 -0.8042 -0.1862
14415TIP3   OH264659   4.288   6.391  11.952  0.3437 -0.2520 -0.4872
14415TIP3    H164660   4.259   6.321  12.010 -0.2209 -1.2558 -1.9520
14415TIP3    H264661   4.372   6.420  11.988  0.9233 -2.1526 -0.2725
14416TIP3   OH264662   2.794   1.070   3.561 -0.1175  0.1144  0.2441
14416TIP3    H164663   2.746   1.060   3.643 -0.0571  1.1601  0.4187
14416TIP3    H264664   2.740   1.026   3.495 -0.6186  0.0686  0.6848
14417TIP3   OH264665   5.520   5.080  11.142 -0.0731 -0.1180  0.1293
14417TIP3    H164666   5.607   5.120  11.132  0.6718 -1.6182  0.5321
14417TIP3    H264667   5.484   5.081  11.053  0.3799  0.4485 -0.0574
14418TIP3   OH264668   2.181   4.020  12.589  0.1530  0.1151  0.9867
14418TIP3    H164669   2.258   3.964  12.587 -0.1703 -0.3579 -3.4599
14418TIP3    H264670   2.211   4.104  12.553 -1.0004  0.5240  0.9493
14419TIP3   OH264671   6.047   6.471   3.969 -0.3044  0.5091  0.4508
14419TIP3    H164672   5.972   6.421   4.000  0.4573 -0.9473 -0.0187
14419TIP3    H264673   6.050   6.457   3.875  1.7580 -1.1485  0.7267
14420TIP3   OH264674   2.273   4.511  10.742  0.2028 -0.1022 -0.8040
14420TIP3    H164675   2.211   4.472  10.680 -0.6668  0.0805 -0.0625
14420TIP3    H264676   2.275   4.604  10.719 -1.1121  0.2080  0.2452
14421TIP3   OH264677   5.439   0.149   5.464  0.0690  0.0807  0.6601
14421TIP3    H164678   5.455   0.140   5.370  0.8273  0.7804  0.7200
14421TIP3    H264679   5.344   0.157   5.471 -0.2379 -2.5725  0.1760
14422TIP3   OH264680   0.360   3.085   5.356  0.0659 -0.0508 -0.1384
14422TIP3    H164681   0.306   3.083   5.277  0.8453  1.7505 -0.7345
14422TIP3    H264682   0.334   3.165   5.401 -0.2938 -1.0040  1.4039
14423TIP3   OH264683   1.763   1.478   5.732 -0.2030 -0.3807 -0.1190
14423TIP3    H164684   1.676   1.461   5.768 -0.3655  2.7577  1.1446
14423TIP3    H264685   1.747   1.536   5.657  0.7076 -1.1987 -0.9763
14424TIP3   OH264686   3.405   1.655   1.711  0.1947  0.3859  0.0829
14424TIP3    H164687   3.454   1.700   1.780 -1.3078  2.5284 -0.2124
14424TIP3    H264688   3.432   1.698   1.630 -0.6347  0.1830 -0.3061
14425TIP3   OH264689   5.023   2.689  11.889  0.0150 -0.4525 -0.1951
14425TIP3    H164690   4.938   2.650  11.869 -1.4197  0.9442  2.8826
14425TIP3    H264691   5.074   2.616  11.924 -1.0906 -0.6097  1.1552
14426TIP3   OH264692   2.099   4.509  11.752  0.2820  0.1638  0.2622
14426TIP3    H164693   2.115   4.567  11.678  0.6367 -1.2773 -0.7954
14426TIP3    H264694   2.089   4.422  11.714 -1.1654 -0.3447  1.7523
14427TIP3   OH264695   4.355   3.189   2.489  0.2017  0.5284 -0.2919
14427TIP3    H164696   4.432   3.144   2.523  0.0982 -0.5800 -1.4909
14427TIP3    H264697   4.282   3.149   2.536  0.0660 -0.9311 -1.7379
14428TIP3   OH264698   5.027   3.886  17.218  0.8057 -0.0696  0.6472
14428TIP3    H164699   5.109   3.862  17.175  0.3698 -0.4947  0.0541
14428TIP3    H264700   5.053   3.953  17.282  1.6566 -0.4060  0.6640
14429TIP3   OH264701   1.317   1.202  14.463  0.1745 -0.0967  0.1909
14429TIP3    H164702   1.346   1.148  14.537 -1.3533  0.1979  1.0344
14429TIP3    H264703   1.352   1.290  14.482  2.4749 -0.6906 -1.0715
14430TIP3   OH264704   1.709   0.184  14.906 -0.1922 -0.3245  0.0598
14430TIP3    H164705   1.796   0.158  14.936 -0.0574  0.1329  0.0678
14430TIP3    H264706   1.694   0.269  14.947  0.2998  0.6501 -1.7295
14431TIP3   OH264707   4.604   3.234  12.564 -0.7162  0.6069  0.5804
14431TIP3    H164708   4.529   3.189  12.524 -1.0035  2.0011 -0.4984
14431TIP3    H264709   4.597   3.325  12.533  0.8893  0.9766  1.2356
14432TIP3   OH264710   3.149   4.405   5.068  0.5585  0.5818  0.6842
14432TIP3    H164711   3.123   4.489   5.104  0.8599  0.9862 -0.0328
14432TIP3    H264712   3.075   4.379   5.013  0.9651  0.9574 -0.0535
14433TIP3   OH264713   5.388   6.364  11.431 -0.0632 -0.4391  0.0421
14433TIP3    H164714   5.463   6.393  11.483  1.6528 -0.7785 -2.1942
14433TIP3    H264715   5.416   6.282  11.391 -0.0558  1.4569 -4.0977
14434TIP3   OH264716   5.015   1.389   3.667 -0.0198 -0.2589  0.4951
14434TIP3    H164717   5.097   1.342   3.653  0.6078  1.0371 -0.2475
14434TIP3    H264718   5.016   1.460   3.603 -1.4525  0.1250  0.8678
14435TIP3   OH264719   1.656   1.083  15.701 -0.3835 -0.1366 -0.4944
14435TIP3    H164720   1.745   1.117  15.707 -0.5442  0.1832  0.1199
14435TIP3    H264721   1.603   1.159  15.677 -0.3291 -0.5654 -1.9970
14436TIP3   OH264722   2.037   5.863  13.487  0.3944 -0.1234 -0.7451
14436TIP3    H164723   1.942   5.868  13.486  0.4175  0.4190 -0.2897
14436TIP3    H264724   2.060   5.824  13.403 -0.2888 -1.4007 -0.3420
14437TIP3   OH264725   5.261   3.901   4.150  0.4853 -0.2670  0.1026
14437TIP3    H164726   5.190   3.964   4.157  0.6880  0.3086 -2.5223
14437TIP3    H264727   5.221   3.822   4.114  0.6682 -0.9159  1.2697
14438TIP3   OH264728   6.210   0.712  16.440 -0.1316  0.1039 -0.6581
14438TIP3    H164729   6.116   0.730  16.451 -0.7180 -2.9438 -0.2308
14438TIP3    H264730   6.248   0.735  16.524 -0.9411 -1.2597  0.0893
14439TIP3   OH264731   4.884   4.623  11.605  0.5608 -0.6682  0.4655
14439TIP3    H164732   4.941   4.583  11.538 -0.5093 -2.2428  0.4675
14439TIP3    H264733   4.816   4.667  11.555  1.9657  1.5540  0.4530
14440TIP3   OH264734   5.159   2.208  12.028  0.0485 -0.4303  0.3782
14440TIP3    H164735   5.214   2.137  12.060  1.2329  0.4652  0.3705
14440TIP3    H264736   5.194   2.287  12.070 -1.7225  0.0586  0.9733
14441TIP3   OH264737   0.838   0.946   1.798 -0.1964 -0.2365 -0.5038
14441TIP3    H164738   0.834   1.033   1.838 -0.1675  0.7365 -2.5475
14441TIP3    H264739   0.747   0.917   1.795 -0.2933  0.0584 -0.4993
14442TIP3   OH264740   1.437   4.502   2.169 -0.2744  0.3137  0.4220
14442TIP3    H164741   1.343   4.499   2.154 -0.0367 -0.6762 -0.9553
14442TIP3    H264742   1.461   4.413   2.194  0.6143  0.0470 -1.3203
14443TIP3   OH264743   1.820   6.315   4.500  0.6845 -0.2751  0.3469
14443TIP3    H164744   1.836   6.282   4.589  0.3002  3.2773  1.7897
14443TIP3    H264745   1.725   6.304   4.487  1.1591 -3.5051 -0.8173
14444TIP3   OH264746   0.312   2.188  13.081  0.3488  0.2445 -0.8962
14444TIP3    H164747   0.382   2.126  13.102  1.0860  1.2914 -0.2286
14444TIP3    H264748   0.234   2.152  13.124 -0.0013 -1.9987 -3.3220
14445TIP3   OH264749   5.680   3.092  15.076 -0.2760 -0.2322  0.5392
14445TIP3    H164750   5.641   3.074  14.990 -0.9990  0.3356  0.7423
14445TIP3    H264751   5.763   3.044  15.075  0.3878  0.8650 -1.0268
14446TIP3   OH264752   2.976   2.544  15.155 -0.0809  0.0240 -0.2611
14446TIP3    H164753   3.069   2.536  15.178  0.1423 -0.1204 -1.1993
14446TIP3    H264754   2.939   2.597  15.226  0.4458 -1.0014  0.7970
14447TIP3   OH264755   4.020   1.708   4.430  0.3067 -0.0840 -0.1664
14447TIP3    H164756   4.050   1.767   4.500 -0.0876 -0.5567  0.4107
14447TIP3    H264757   4.047   1.751   4.349  0.2550  0.7681  0.2568
14448TIP3   OH264758   1.271   0.651   1.450  0.2522 -0.2850  0.0250
14448TIP3    H164759   1.220   0.623   1.374 -2.3252 -2.0755  2.2889
14448TIP3    H264760   1.248   0.744   1.461  1.9378  0.4431 -2.3051
14449TIP3   OH264761   5.036   6.008   3.380  0.2151  0.2888  0.6221
14449TIP3    H164762   4.978   5.947   3.426 -0.0272  0.4455  0.5261
14449TIP3    H264763   5.028   6.090   3.428 -0.8881  0.7557 -0.3579
14450TIP3   OH264764   1.085   4.169  15.203  0.0710 -0.5435  0.3813
14450TIP3    H164765   1.052   4.251  15.239  0.9404  0.4687 -1.0644
14450TIP3    H264766   1.157   4.195  15.146 -0.7000 -2.1516 -1.3900
14451TIP3   OH264767   1.303   5.359  10.268 -0.1414  0.3033 -0.2404
14451TIP3    H164768   1.377   5.416  10.290 -0.3041  0.2683  0.4223
14451TIP3    H264769   1.310   5.286  10.330 -1.7925  1.2291  1.0950
14452TIP3   OH264770   2.249   3.699  13.182  0.5721  0.0258 -0.1330
14452TIP3    H164771   2.231   3.741  13.266 -0.1767 -3.0137  1.2812
14452TIP3    H264772   2.336   3.661  13.193  0.5335 -0.2560 -0.8126
14453TIP3   OH264773   2.075   0.568  14.185 -0.0319  0.1224 -0.3313
14453TIP3    H164774   2.051   0.479  14.160  0.1340 -0.4778  1.6003
14453TIP3    H264775   2.018   0.588  14.260  0.1483  1.5303 -0.5555
14454TIP3   OH264776   5.925   2.661   4.528  0.2344  0.8605  0.4278
14454TIP3    H164777   5.878   2.583   4.559 -1.6217  1.9930  0.5357
14454TIP3    H264778   6.015   2.649   4.559  0.7282 -2.6550 -2.0604
14455TIP3   OH264779   2.531   1.371   5.062 -0.2105 -0.0608  0.3044
14455TIP3    H164780   2.449   1.394   5.108 -0.6162 -0.2486 -0.3203
14455TIP3    H264781   2.551   1.448   5.010 -0.6627 -0.4857 -0.4999
14456TIP3   OH264782   6.514   0.789   4.085  0.2748 -0.0953 -0.2274
14456TIP3    H164783   6.432   0.830   4.114  1.8447  1.7244  1.8736
14456TIP3    H264784   6.518   0.707   4.134 -1.0843 -1.0184 -1.6240
14457TIP3   OH264785   1.851   0.001   0.974 -0.2594  0.0907 -0.2754
14457TIP3    H164786   1.757   0.014   0.958 -0.9606 -1.4137  2.2286
14457TIP3    H264787   1.857  -0.091   1.001  1.8497  0.3647  0.2360
14458TIP3   OH264788   0.774   1.519  17.016 -0.2212 -0.2054 -0.7045
14458TIP3    H164789   0.788   1.494  17.107  0.6375 -0.0273 -0.7785
14458TIP3    H264790   0.788   1.614  17.015  0.5337 -0.3141 -1.1571
14459TIP3   OH264791   3.411   2.612  11.142  0.2514 -1.0231  0.1465
14459TIP3    H164792   3.457   2.680  11.190  1.3539 -2.1710  0.7377
14459TIP3    H264793   3.323   2.612  11.179  0.3383 -0.1418  0.3532
14460TIP3   OH264794   3.448   1.505  12.833  0.0686  0.3362 -0.2611
14460TIP3    H164795   3.360   1.541  12.839 -0.1142 -0.1253 -0.1384
14460TIP3    H264796   3.490   1.554  12.762 -0.7865 -0.4842 -1.3555
14461TIP3   OH264797   0.435   2.619  16.103  0.3386 -0.2220  0.2918
14461TIP3    H164798   0.339   2.626  16.104  0.2521 -0.8120 -1.6260
14461TIP3    H264799   0.465   2.706  16.078  0.2274 -0.4232 -0.5670
14462TIP3   OH264800   1.696   5.315   2.915  0.9458  0.2627  0.1125
14462TIP3    H164801   1.779   5.315   2.867 -0.3293  1.4135 -2.1895
14462TIP3    H264802   1.720   5.345   3.002  3.0602 -0.1427 -0.2755
14463TIP3   OH264803   5.467   3.160  16.825 -0.4857  0.5490  0.1818
14463TIP3    H164804   5.432   3.079  16.787 -1.4590  1.2676 -0.4844
14463TIP3    H264805   5.503   3.133  16.909  0.1385 -0.7659 -0.4916
14464TIP3   OH264806   4.097   1.106   0.373 -0.4214 -0.0179  0.7670
14464TIP3    H164807   4.191   1.091   0.375 -0.8866 -3.8370 -2.0080
14464TIP3    H264808   4.064   1.059   0.450 -0.3490 -1.2180  0.0756
14465TIP3   OH264809   3.542   2.206  16.352 -0.4389 -0.4457  0.3468
14465TIP3    H164810   3.559   2.266  16.280  4.2848 -2.0911 -0.0894
14465TIP3    H264811   3.469   2.151  16.322 -3.2912  3.4003 -0.1416
14466TIP3   OH264812   3.123   1.957   1.337  0.0332 -0.1873 -0.1881
14466TIP3    H164813   3.130   2.047   1.306 -0.1903  1.0152  3.1112
14466TIP3    H264814   3.197   1.912   1.296 -0.3335  1.2544 -2.5331
14467TIP3   OH264815   0.830   0.096   3.639  0.1397  0.4312 -0.0747
14467TIP3    H164816   0.847   0.020   3.585  0.4603  1.3259 -1.2482
14467TIP3    H264817   0.869   0.075   3.724  1.9790  0.1123 -0.9898
14468TIP3   OH264818   2.040   3.841  16.104  0.4252  0.0741 -0.1885
14468TIP3    H164819   2.120   3.811  16.146  1.0136  0.7742 -0.7935
14468TIP3    H264820   2.048   3.936  16.102 -0.0073  0.1024 -1.0439
14469TIP3   OH264821   1.074   0.482  15.465 -0.2311 -0.3057 -0.6348
14469TIP3    H164822   0.995   0.474  15.518 -0.5916  0.0530 -1.1058
14469TIP3    H264823   1.076   0.574  15.439  1.9727  0.4081  1.8623
14470TIP3   OH264824   3.035   5.802  17.207 -0.0593 -0.0188  0.2695
14470TIP3    H164825   3.007   5.724  17.159 -0.1627 -0.3551  0.8706
14470TIP3    H264826   2.993   5.875  17.161 -0.2799 -0.3490 -0.0584
14471TIP3   OH264827   5.387   4.014  13.439 -0.6988 -0.2647 -0.6303
14471TIP3    H164828   5.372   4.011  13.344 -2.5944  0.8318 -0.3877
14471TIP3    H264829   5.386   3.922  13.466 -1.7013 -0.5041 -1.4553
14472TIP3   OH264830   3.624   0.612   0.767 -0.0330  0.1682  0.2835
14472TIP3    H164831   3.587   0.611   0.855 -1.0658 -1.4428 -0.1463
14472TIP3    H264832   3.717   0.591   0.780 -0.2464 -0.3647  0.9571
14473TIP3   OH264833   0.402   6.265  11.705  0.3243  0.1081 -0.5669
14473TIP3    H164834   0.325   6.247  11.651  0.5559  1.0237 -1.2216
14473TIP3    H264835   0.381   6.346  11.751 -0.4188 -1.3885  1.7857
14474TIP3   OH264836   1.736   0.726   6.093  0.0885 -0.0446  0.1308
14474TIP3    H164837   1.765   0.772   6.171 -0.8612 -0.1045  0.5247
14474TIP3    H264838   1.737   0.633   6.117  4.2680 -0.5038 -1.3860
14475TIP3   OH264839   4.031   4.881  13.090 -0.3673  0.1602  0.5525
14475TIP3    H164840   4.008   4.884  12.997  2.1508  2.5670 -0.0802
14475TIP3    H264841   4.076   4.797  13.102  2.8667  1.5227 -1.3924
14476TIP3   OH264842   3.508   3.701  15.842  0.5528  0.5077 -0.5480
14476TIP3    H164843   3.595   3.739  15.828  1.7682 -1.7132  0.7725
14476TIP3    H264844   3.514   3.612  15.809 -1.3814  0.4598 -0.8699
14477TIP3   OH264845   3.681   0.260   0.939 -0.4679  0.2441  0.5490
14477TIP3    H164846   3.595   0.217   0.933  0.3031 -1.5664  1.8649
14477TIP3    H264847   3.675   0.313   1.018  0.3122 -1.5928  1.8862
14478TIP3   OH264848   4.985   4.780  12.791 -0.1405 -0.4809 -0.1490
14478TIP3    H164849   5.028   4.714  12.846 -1.0880  0.6250  2.0074
14478TIP3    H264850   4.985   4.859  12.846 -4.0030 -0.1897 -0.4642
14479TIP3   OH264851   6.092   1.938   0.311  0.6320 -0.5416 -0.0143
14479TIP3    H164852   6.048   1.853   0.320 -0.3424  0.1963  2.4295
14479TIP3    H264853   6.021   2.000   0.294  1.0558  0.2005  0.9227
14480TIP3   OH264854   4.455   5.444  14.659 -0.3452  0.1450  0.3937
14480TIP3    H164855   4.443   5.391  14.580  2.1558 -0.0587  0.1104
14480TIP3    H264856   4.421   5.389  14.730  0.4440 -1.0532 -0.1363
14481TIP3   OH264857   1.167   6.723   0.592  0.0970  0.3627 -0.4120
14481TIP3    H164858   1.257   6.753   0.603 -0.6315  2.9720 -1.1992
14481TIP3    H264859   1.115   6.780   0.650 -0.9489 -1.8362  0.8900
14482TIP3   OH264860   3.976   3.639  11.639  0.3028 -0.1021  0.1970
14482TIP3    H164861   4.062   3.679  11.628  0.9440 -1.6025 -0.3130
14482TIP3    H264862   3.951   3.610  11.552  0.2829 -1.6964  0.7245
14483TIP3   OH264863   3.689   2.765   3.390  0.1335  0.6877  0.0540
14483TIP3    H164864   3.633   2.825   3.340 -0.7991 -0.2004  0.0322
14483TIP3    H264865   3.651   2.679   3.376 -0.7645  0.5307  3.1218
14484TIP3   OH264866   4.689   2.308   0.441  0.0131 -0.5408  0.2498
14484TIP3    H164867   4.646   2.343   0.363 -2.2159 -0.7451  1.3346
14484TIP3    H264868   4.640   2.228   0.462 -0.0898  0.0415  2.4164
14485TIP3   OH264869   4.114   6.617   2.670 -0.0970 -0.0069 -0.0594
14485TIP3    H164870   4.158   6.696   2.639 -0.0620 -0.5410 -1.3952
14485TIP3    H264871   4.173   6.582   2.737  0.3651  0.5663 -0.1622
14486TIP3   OH264872   1.678   6.067  13.999  0.3063 -0.3179 -0.0283
14486TIP3    H164873   1.722   6.149  13.976  0.9465 -0.5262  0.4445
14486TIP3    H264874   1.590   6.076  13.962  0.2259  0.7738  0.3952
14487TIP3   OH264875   0.909   5.479  14.515 -0.2260  0.5313  0.0811
14487TIP3    H164876   0.978   5.524  14.563  0.9803 -2.2025  1.0593
14487TIP3    H264877   0.838   5.468  14.579 -1.0221  2.0532 -0.5068
14488TIP3   OH264878   3.002   3.241   5.698  0.3664 -0.2372 -0.3890
14488TIP3    H164879   3.085   3.276   5.729 -0.3952  0.9585  0.3362
14488TIP3    H264880   2.961   3.203   5.776 -0.9902  1.6551 -0.1295
14489TIP3   OH264881   0.962   4.660   1.765  0.3368  0.2994 -0.4445
14489TIP3    H164882   0.963   4.750   1.798 -1.1409  0.1526  0.0534
14489TIP3    H264883   0.872   4.647   1.735  0.8660 -0.6029 -1.6660
14490TIP3   OH264884   5.424   4.460  16.043 -0.1205 -0.8933  0.6306
14490TIP3    H164885   5.387   4.434  15.958  2.0230 -1.0505 -0.2926
14490TIP3    H264886   5.439   4.554  16.035  1.3203 -1.1465  0.3459
14491TIP3   OH264887   0.759   0.725  11.594 -0.4951 -0.3263  0.6803
14491TIP3    H164888   0.831   0.778  11.560  0.5412 -2.3766 -0.4072
14491TIP3    H264889   0.683   0.783  11.591  1.2967  2.2148  2.8530
14492TIP3   OH264890   4.219   1.312  12.812  0.1219 -0.2505 -0.1751
14492TIP3    H164891   4.243   1.335  12.902  1.2338  2.5801 -1.1236
14492TIP3    H264892   4.241   1.391  12.761 -1.4239 -1.4364 -2.7606
14493TIP3   OH264893   0.310   4.560  14.090 -0.4036  0.3221 -0.7359
14493TIP3    H164894   0.404   4.544  14.100 -0.4719  0.0947 -0.4598
14493TIP3    H264895   0.269   4.480  14.121 -0.7342  0.8672  0.2652
14494TIP3   OH264896   4.624   0.120   0.333 -0.0831  0.2309 -0.0387
14494TIP3    H164897   4.612   0.200   0.282  0.6116  0.8533  0.7584
14494TIP3    H264898   4.696   0.140   0.393 -0.6450 -0.6019  0.9353
14495TIP3   OH264899   2.355   3.918   3.061  0.2435  0.0519  0.2248
14495TIP3    H164900   2.288   3.954   3.119 -0.8088 -2.4044  0.5755
14495TIP3    H264901   2.432   3.906   3.117  0.4085  1.1589  0.2431
14496TIP3   OH264902   0.900   1.453   6.224  0.0124 -0.2756 -0.3742
14496TIP3    H164903   0.816   1.411   6.208  0.0878 -0.4429 -0.3327
14496TIP3    H264904   0.924   1.427   6.313 -0.7631  1.2686  0.3023
14497TIP3   OH264905   6.691   4.376  10.867  0.4024 -0.2270  0.3061
14497TIP3    H164906   6.604   4.400  10.898  1.2458  2.4555  0.6968
14497TIP3    H264907   6.728   4.324  10.938 -0.4260 -0.3378  0.6596
14498TIP3   OH264908   2.936   1.345  14.287 -0.1826  0.7009  0.1773
14498TIP3    H164909   2.941   1.430  14.243 -0.2824  1.2563  1.2174
14498TIP3    H264910   3.006   1.348  14.352  1.0053 -0.7502 -1.0053
14499TIP3   OH264911   0.883   6.124  13.636 -0.4203  0.3972 -0.0808
14499TIP3    H164912   0.973   6.117  13.605  0.1436  1.8543  1.1987
14499TIP3    H264913   0.864   6.039  13.676  0.1118 -0.1765 -1.0239
14500TIP3   OH264914   1.608   5.630   2.766  0.0153  0.1364 -0.9089
14500TIP3    H164915   1.528   5.597   2.807  0.4368  0.6316  0.3333
14500TIP3    H264916   1.660   5.663   2.839  1.0745  0.4107 -1.7826
14501TIP3   OH264917   0.844   0.859   0.316 -0.4644 -0.2362  0.5257
14501TIP3    H164918   0.812   0.898   0.234 -2.0550 -0.6885  0.9024
14501TIP3    H264919   0.937   0.879   0.318 -0.0333 -1.7252 -2.2513
14502TIP3   OH264920   0.663   5.497  12.052 -0.1389 -0.5691  0.2929
14502TIP3    H164921   0.582   5.475  12.005 -1.2512  0.8046  1.4973
14502TIP3    H264922   0.634   5.558  12.120  2.3070  2.1348 -0.9957
14503TIP3   OH264923   0.067   1.091  14.741  0.8722 -0.1050  0.1277
14503TIP3    H164924   0.069   1.116  14.648 -1.2489  2.2883  0.6596
14503TIP3    H264925   0.014   1.012  14.744  0.4032  0.1704 -0.6484
14504TIP3   OH264926   6.166   6.381   3.154 -0.4526 -0.3348  0.4366
14504TIP3    H164927   6.201   6.463   3.189  0.0321 -0.7916  1.0247
14504TIP3    H264928   6.074   6.381   3.179  0.0085 -0.8985  2.1472
14505TIP3   OH264929   5.237   2.342  15.082  0.5518 -1.0358 -0.8594
14505TIP3    H164930   5.247   2.255  15.043  0.4880 -1.6203  0.3956
14505TIP3    H264931   5.142   2.353  15.094  0.6895 -1.7208  1.0013
14506TIP3   OH264932   3.806   5.839  15.899 -0.0281  0.1340  0.1293
14506TIP3    H164933   3.893   5.879  15.896  0.4641 -0.9348  0.1366
14506TIP3    H264934   3.747   5.906  15.864  0.7780  0.9064  0.2483
14507TIP3   OH264935   4.399   5.792  14.340  0.0200 -0.0958 -0.5383
14507TIP3    H164936   4.340   5.768  14.412  0.8849  1.7228  0.7906
14507TIP3    H264937   4.341   5.832  14.275 -0.8447 -2.1968 -1.1144
14508TIP3   OH264938   0.277   6.163   1.967  0.0727 -0.1307  0.2344
14508TIP3    H164939   0.325   6.230   2.016  1.1079 -1.5963  1.2954
14508TIP3    H264940   0.193   6.155   2.012  0.2570 -0.0951  0.5848
14509TIP3   OH264941   4.060   2.423  16.754 -0.5229  0.2305 -0.5984
14509TIP3    H164942   4.097   2.477  16.824 -0.7608 -0.7421  0.2967
14509TIP3    H264943   4.029   2.485  16.689 -0.7458  1.1651  0.3902
14510TIP3   OH264944   1.073   3.379  10.848 -0.3660 -0.2167 -0.2499
14510TIP3    H164945   1.076   3.285  10.831 -1.5324 -0.3557  0.2702
14510TIP3    H264946   1.162   3.410  10.829  0.3525 -1.6250  0.7010
14511TIP3   OH264947   4.194   4.104  17.188 -0.1878  0.2766 -0.1933
14511TIP3    H164948   4.118   4.134  17.139 -0.5241  1.1003  0.8150
14511TIP3    H264949   4.195   4.158  17.267  0.7656 -0.5308  0.3636
14512TIP3   OH264950   6.566   0.869  13.667 -0.5551  0.1630 -0.3616
14512TIP3    H164951   6.579   0.877  13.572 -2.8188  1.7295 -0.5868
14512TIP3    H264952   6.636   0.924  13.705 -0.2804  0.3699 -1.1539
14513TIP3   OH264953   4.516   2.783   4.944  0.3126 -0.3984 -0.2526
14513TIP3    H164954   4.582   2.722   4.977  0.0853 -0.3094  0.3768
14513TIP3    H264955   4.566   2.859   4.915  0.4638 -0.1994  0.5198
14514TIP3   OH264956   2.243   2.358  14.495  0.4233  0.1678 -0.3230
14514TIP3    H164957   2.301   2.434  14.494 -0.3592  0.7521 -2.0648
14514TIP3    H264958   2.219   2.344  14.404  1.6457 -3.0464 -0.1998
14515TIP3   OH264959   5.077   2.418   4.599  0.3586  0.4069 -0.5622
14515TIP3    H164960   5.021   2.463   4.662  2.0685 -0.6895  1.8432
14515TIP3    H264961   5.106   2.487   4.539 -0.5695  1.6699  0.4126
14516TIP3   OH264962   4.735   2.805   3.106 -0.0187  0.0095  0.1685
14516TIP3    H164963   4.807   2.767   3.156  0.0482 -0.5098 -0.3311
14516TIP3    H264964   4.716   2.741   3.038 -0.1986  0.6625 -0.3989
14517TIP3   OH264965   6.723   6.188  11.878  0.3824  0.5423  0.2726
14517TIP3    H164966   6.704   6.120  11.943  0.8343  0.8701  0.7483
14517TIP3    H264967   6.653   6.252  11.890  0.2140  0.3860  0.1335
14518TIP3   OH264968   3.437   6.760  13.167 -0.1388  0.5147  0.4785
14518TIP3    H164969   3.467   6.751  13.077 -0.6578  4.2204 -0.1464
14518TIP3    H264970   3.517   6.758  13.220  0.1905 -1.3548 -0.0600
14519TIP3   OH264971   1.821   1.535   2.464 -0.1282  0.5255 -0.3545
14519TIP3    H164972   1.797   1.593   2.392  0.9577  2.3064  0.6493
14519TIP3    H264973   1.911   1.559   2.485 -0.3988  0.0201  1.5368
14520TIP3   OH264974   3.777   0.065  15.744 -0.4498 -0.5716 -0.2307
14520TIP3    H164975   3.861   0.055  15.698 -0.9213  1.2836 -1.5481
14520TIP3    H264976   3.796   0.040  15.835  1.2564 -1.2418 -0.7562
14521TIP3   OH264977   1.277   2.971   0.022 -0.9874  0.5568  0.4923
14521TIP3    H164978   1.322   3.052   0.047 -2.8057  1.1148  2.0071
14521TIP3    H264979   1.290   2.965  -0.073  0.9364  1.5213  0.6724
14522TIP3   OH264980   4.534   1.700  16.814 -0.1885  0.1087 -0.8760
14522TIP3    H164981   4.458   1.733  16.766  0.0579  1.2344 -0.4971
14522TIP3    H264982   4.545   1.760  16.887 -1.3351 -2.3106  1.3826
14523TIP3   OH264983   5.570   2.031   2.589 -0.1760  0.1811 -0.3003
14523TIP3    H164984   5.567   2.105   2.649 -1.1338 -0.1930  0.1187
14523TIP3    H264985   5.663   2.010   2.582 -0.1777 -1.1594  2.7620
14524TIP3   OH264986   6.205   3.278  15.822  0.1614 -0.4844  0.5148
14524TIP3    H164987   6.153   3.301  15.899 -0.7465 -0.2617 -0.1649
14524TIP3    H264988   6.192   3.184  15.810  2.5306 -1.1101  2.2782
14525TIP3   OH264989   1.280   1.486   1.032  0.0809 -0.3539  0.1564
14525TIP3    H164990   1.314   1.550   0.970  0.4304 -0.2675  0.4333
14525TIP3    H264991   1.197   1.524   1.063  0.5777  0.2586  0.7683
14526TIP3   OH264992   2.270   3.016   3.064  0.2440 -0.3536  0.1580
14526TIP3    H164993   2.262   3.057   3.151  1.5494 -1.4851  0.8366
14526TIP3    H264994   2.182   2.984   3.045 -0.0904  0.0374  1.0034
14527TIP3   OH264995   3.160   0.618   5.112  0.4723  0.3608  0.1684
14527TIP3    H164996   3.229   0.561   5.079  0.0090  1.4785 -2.9172
14527TIP3    H264997   3.206   0.690   5.156  1.2623  0.7831 -1.3358
14528TIP3   OH264998   3.329   3.105   4.671  0.4845 -0.7362 -0.4815
14528TIP3    H164999   3.412   3.153   4.673  0.1769 -0.2200  0.1074
14528TIP3    H265000   3.313   3.080   4.762  0.3907 -1.5322 -0.7086
14529TIP3   OH265001   5.600   1.437  15.046 -0.0768  0.0191  0.2079
14529TIP3    H165002   5.664   1.377  15.007  0.1228  1.2683 -1.4946
14529TIP3    H265003   5.515   1.400  15.023  0.0468 -0.0011 -0.2282
14530TIP3   OH265004   5.722   0.414  14.358 -0.1632  0.4461  0.0807
14530TIP3    H165005   5.635   0.414  14.397  0.7858 -0.1892  2.2867
14530TIP3    H265006   5.780   0.384  14.428  1.3539 -2.9180 -2.4229
14531TIP3   OH265007   1.948   1.031  16.599 -0.2262 -0.0783 -0.8661
14531TIP3    H165008   2.029   1.060  16.641  0.4317 -0.4543 -1.8512
14531TIP3    H265009   1.960   0.938  16.584 -1.9050 -0.6860  1.2999
14532TIP3   OH265010   0.180   2.860   3.022 -0.0015 -0.7084  0.5938
14532TIP3    H165011   0.128   2.908   3.087 -0.4982 -1.6560  0.8991
14532TIP3    H265012   0.125   2.785   2.998 -0.2680  0.1737 -1.6881
14533TIP3   OH265013   3.560   1.624  16.863 -0.0576  0.8140  0.0841
14533TIP3    H165014   3.478   1.670  16.881  0.2056  0.7917  1.4317
14533TIP3    H265015   3.628   1.688  16.882  0.2164  1.1728 -2.0847
14534TIP3   OH265016   5.474   1.929   0.162 -0.4755  0.2075 -0.2233
14534TIP3    H165017   5.500   1.912   0.253  0.3937 -3.8896 -1.1559
14534TIP3    H265018   5.378   1.929   0.165 -0.4568  0.9293  0.8099
14535TIP3   OH265019   5.625   6.266  11.777  0.0478  0.2988  0.6251
14535TIP3    H165020   5.574   6.278  11.857  0.7123  2.2845  0.7575
14535TIP3    H265021   5.715   6.255  11.807 -0.0788 -2.0042  0.3044
14536TIP3   OH265022   4.171   1.269   2.040  0.1593  0.2488  0.4601
14536TIP3    H165023   4.225   1.292   1.964 -1.9949 -0.0226 -1.1767
14536TIP3    H265024   4.204   1.183   2.066  0.6663  0.1737 -0.3911
14537TIP3   OH265025   2.480   6.504   0.279  0.7565 -0.1209 -0.0925
14537TIP3    H165026   2.508   6.449   0.205  1.5225 -0.2992  0.3138
14537TIP3    H265027   2.403   6.459   0.314  2.1723 -1.7215  1.0781
14538TIP3   OH265028   1.804   0.559  13.314  0.2783 -0.1753 -0.1008
14538TIP3    H165029   1.815   0.519  13.227 -0.0746 -1.8997  0.6194
14538TIP3    H265030   1.775   0.648  13.296  1.1158 -0.2144 -1.7711
14539TIP3   OH265031   1.142   4.983   2.214 -0.0318  0.4287 -0.4220
14539TIP3    H165032   1.202   5.054   2.191  0.6659  0.5708  1.7432
14539TIP3    H265033   1.081   5.022   2.276  0.2038 -0.7800  0.5828
14540TIP3   OH265034   6.654   3.237   1.842  0.1040 -0.3915  0.4548
14540TIP3    H165035   6.674   3.166   1.781 -2.6748 -0.8224 -0.0095
14540TIP3    H265036   6.731   3.293   1.839  1.0406 -1.7182 -1.5702
14541TIP3   OH265037   3.101   2.907  17.060 -0.2823 -0.0910  0.6260
14541TIP3    H165038   3.060   2.987  17.093 -0.8305  0.0459 -0.3630
14541TIP3    H265039   3.184   2.937  17.021  0.1017 -0.1791  1.3631
14542TIP3   OH265040   6.679   2.422   1.377  0.6811 -0.4693 -0.4504
14542TIP3    H165041   6.627   2.502   1.383  0.7266 -0.5695  1.8109
14542TIP3    H265042   6.757   2.440   1.430  0.3122 -2.2604  0.7623
14543TIP3   OH265043   2.989   5.792   0.228 -0.2731  0.2111  0.0098
14543TIP3    H165044   3.075   5.790   0.270 -0.3443 -2.1895  0.1599
14543TIP3    H265045   3.007   5.784   0.134 -0.2282  2.7843 -0.2220
14544TIP3   OH265046   3.927   0.368  15.485  0.2703  0.1733  0.4813
14544TIP3    H165047   3.882   0.452  15.488  0.3591  0.2149  0.6334
14544TIP3    H265048   3.871   0.309  15.536 -0.1659 -0.0374 -0.2314
14545TIP3   OH265049   4.157   5.180   0.516 -0.3256 -0.3202 -0.3394
14545TIP3    H165050   4.072   5.164   0.474  0.1295 -0.5945 -1.1724
14545TIP3    H265051   4.221   5.149   0.452  0.3890 -0.6206  0.5137
14546TIP3   OH265052   4.685   2.611  16.741  0.4811  0.0219  0.3741
14546TIP3    H165053   4.645   2.544  16.686 -0.7154 -0.0695  1.3434
14546TIP3    H265054   4.682   2.691  16.688  1.1805 -0.4918 -0.4641
14547TIP3   OH265055   2.367   6.070   4.331  0.2507  0.0567  0.1680
14547TIP3    H165056   2.459   6.094   4.320  0.0688  0.5716 -0.2275
14547TIP3    H265057   2.326   6.094   4.249  0.0697 -1.6895 -0.2584
14548TIP3   OH265058   3.351   6.577  13.828  0.0177 -0.3566  0.0853
14548TIP3    H165059   3.256   6.570  13.817 -0.4926  2.0704  2.3816
14548TIP3    H265060   3.369   6.524  13.906  0.0095  1.7856  1.5965
14549TIP3   OH265061   1.925   5.137   0.402  0.3433  0.0629  0.2249
14549TIP3    H165062   1.925   5.229   0.430  0.4300  0.2338 -0.3258
14549TIP3    H265063   1.994   5.133   0.336  2.2807 -1.0025  2.2286
14550TIP3   OH265064   6.360   5.071  16.011  0.0104 -0.7596  0.2955
14550TIP3    H165065   6.391   5.036  16.094 -1.7897 -1.8905  0.5089
14550TIP3    H265066   6.265   5.069  16.018 -0.1480  0.0415 -1.4197
14551TIP3   OH265067   1.627   3.681  14.678 -0.1416 -0.7526 -0.7939
14551TIP3    H165068   1.692   3.611  14.673  0.1959 -0.7232  2.1469
14551TIP3    H265069   1.548   3.638  14.711 -0.6429 -0.1822 -1.2386
14552TIP3   OH265070   1.168   1.007   0.652 -0.1616  0.3697 -0.4302
14552TIP3    H165071   1.110   1.078   0.624 -0.4825 -0.7735 -2.8220
14552TIP3    H265072   1.194   1.030   0.741 -0.6930  3.1898 -0.9699
14553TIP3   OH265073   2.442   0.927   6.016 -0.6556  0.2848 -0.0730
14553TIP3    H165074   2.347   0.934   6.004 -0.5076  0.3133 -1.2162
14553TIP3    H265075   2.453   0.911   6.110 -1.7833  0.4176  0.0855
14554TIP3   OH265076   4.090   5.781   3.806 -0.0939 -0.0266 -0.0171
14554TIP3    H165077   4.162   5.826   3.851  0.2118 -0.5504  0.0243
14554TIP3    H265078   4.011   5.811   3.850 -0.0495  1.9474 -1.2064
14555TIP3   OH265079   0.757   2.154  14.324 -0.7102  0.1818 -0.8983
14555TIP3    H165080   0.727   2.078  14.376  2.3997 -0.4123  0.1211
14555TIP3    H265081   0.777   2.221  14.390  0.9124  0.2846 -1.4890
14556TIP3   OH265082   2.219   3.070  15.647  0.7692 -0.2429  0.1097
14556TIP3    H165083   2.198   3.138  15.583 -1.5129 -1.9503 -1.0518
14556TIP3    H265084   2.208   3.113  15.732  1.3445  1.3687 -0.6061
14557TIP3   OH265085   6.329   6.123   5.116  0.0958 -0.6926  0.3630
14557TIP3    H165086   6.342   6.174   5.196 -0.8012  2.1043 -1.2213
14557TIP3    H265087   6.417   6.097   5.089  0.5515 -0.0984  1.2812
14558TIP3   OH265088   2.928   0.390  13.914 -0.0215  0.2144  0.3236
14558TIP3    H165089   2.836   0.368  13.900 -0.1545  0.3760  0.9219
14558TIP3    H265090   2.963   0.405  13.826 -0.0403 -1.9234 -0.0702
14559TIP3   OH265091   5.992   3.640   6.277  0.1123  0.1336 -0.0019
14559TIP3    H165092   5.896   3.640   6.282  0.1774 -1.4468  1.9175
14559TIP3    H265093   6.020   3.626   6.367  2.1743  0.5022 -0.5675
14560TIP3   OH265094   3.808   6.307   1.969 -0.1220  0.6547 -0.2337
14560TIP3    H165095   3.777   6.218   1.988  0.8264  0.5992  1.1339
14560TIP3    H265096   3.903   6.299   1.960 -0.1164  1.3963 -0.9672
14561TIP3   OH265097   4.667   4.474   6.021  1.0223 -0.0996  0.3057
14561TIP3    H165098   4.573   4.483   6.038  0.8428 -0.7774 -0.2610
14561TIP3    H265099   4.700   4.424   6.095  0.9616  0.2772  0.5849
14562TIP3   OH265100   3.300   2.866   3.070 -0.2970  0.8481  0.1780
14562TIP3    H165101   3.243   2.886   3.144 -1.0406 -0.0003 -0.1529
14562TIP3    H265102   3.243   2.873   2.993 -0.4419 -1.8169 -0.0158
14563TIP3   OH265103   0.415   3.088  15.710 -0.4074 -0.3672  0.2026
14563TIP3    H165104   0.506   3.064  15.726  0.0464 -0.9588 -2.8836
14563TIP3    H265105   0.400   3.066  15.618 -3.9006 -1.0026  0.8399
14564TIP3   OH265106   4.250   0.199  12.437  0.2173  0.1786 -0.3247
14564TIP3    H165107   4.315   0.162  12.497  1.2143  2.1053 -0.1784
14564TIP3    H265108   4.210   0.123  12.395  2.1365 -1.0637  0.0306
14565TIP3   OH265109   3.634   1.344   5.320  0.0330  0.1199 -0.2007
14565TIP3    H165110   3.571   1.274   5.300  1.5771 -1.5753  0.7112
14565TIP3    H265111   3.601   1.383   5.401  0.5712 -1.2865  0.7078
14566TIP3   OH265112   1.568   6.266   4.401 -0.7441  0.5954 -0.2564
14566TIP3    H165113   1.583   6.319   4.323 -0.2521  0.7140 -0.0776
14566TIP3    H265114   1.508   6.198   4.371  0.1135  0.1349 -0.9586
14567TIP3   OH265115   2.196   6.141  16.953 -0.3136  1.0013 -0.0953
14567TIP3    H165116   2.157   6.191  17.024 -1.4942  0.5316 -0.3992
14567TIP3    H265117   2.268   6.093  16.993 -0.8082  0.9392  0.7274
14568TIP3   OH265118   3.022   2.896  11.859 -0.1793  0.3309 -0.0669
14568TIP3    H165119   3.073   2.824  11.897 -0.7076  0.7257  1.4578
14568TIP3    H265120   3.060   2.975  11.898 -2.1540  0.6036  1.3918
14569TIP3   OH265121   0.498   2.783  11.947 -0.3579 -0.2950  0.3565
14569TIP3    H165122   0.411   2.798  11.986  0.0313 -0.3927  1.2939
14569TIP3    H265123   0.513   2.689  11.959 -0.2725 -0.3427 -0.1279
14570TIP3   OH265124   1.412   3.292   1.156 -0.0517 -0.1310 -0.2646
14570TIP3    H165125   1.421   3.197   1.168 -1.4111 -0.0949  1.1629
14570TIP3    H265126   1.426   3.328   1.244 -0.3141  0.9316 -0.6551
14571TIP3   OH265127   0.004   2.883  15.937 -0.1186  0.5331  1.0551
14571TIP3    H165128   0.059   2.872  16.015  1.1359 -0.6945  0.0126
14571TIP3    H265129  -0.079   2.842  15.960 -0.2510  1.4143  2.2387
14572TIP3   OH265130   3.677   5.132  12.115  0.3765 -0.3937 -0.2653
14572TIP3    H165131   3.759   5.099  12.154  0.8389 -1.5111 -2.1108
14572TIP3    H265132   3.695   5.134  12.021 -1.8378 -0.9669 -0.7209
14573TIP3   OH265133   6.215   5.039   5.584  0.2395 -0.1171  0.2744
14573TIP3    H165134   6.155   4.974   5.547 -0.8963  1.2292 -0.2767
14573TIP3    H265135   6.292   4.988   5.610 -0.5659 -1.6593 -0.2864
14574TIP3   OH265136   5.938   5.362   4.811  0.1494 -0.4258 -0.1048
14574TIP3    H165137   5.848   5.334   4.831  0.1122  0.3670  0.8670
14574TIP3    H265138   5.992   5.310   4.870  0.1713  0.5765  0.7792
14575TIP3   OH265139   0.956   0.308   1.681 -0.2961 -0.1730  0.0097
14575TIP3    H165140   1.047   0.335   1.668 -0.8465  2.3362  1.0596
14575TIP3    H265141   0.917   0.313   1.594 -0.3228  2.3707  0.1280
14576TIP3   OH265142   4.911   2.170  12.522  0.2259  0.6856  0.0302
14576TIP3    H165143   4.915   2.197  12.614  0.9717  0.9119 -0.0617
14576TIP3    H265144   4.989   2.209  12.482 -0.3555  0.9976 -0.8141
14577TIP3   OH265145   3.986   1.930   3.783 -0.1365 -0.4361 -0.1451
14577TIP3    H165146   4.015   2.013   3.746 -1.7852 -0.0892 -0.6807
14577TIP3    H265147   3.891   1.939   3.792  0.0093 -1.1405  2.5778
14578TIP3   OH265148   0.295   1.881   5.642 -0.1317 -0.6914  0.2169
14578TIP3    H165149   0.357   1.810   5.627 -0.6438 -1.2132  0.5566
14578TIP3    H265150   0.317   1.913   5.730  1.0528  0.5427 -0.5004
14579TIP3   OH265151   6.736   2.119   5.906  0.4055  0.1569  0.3271
14579TIP3    H165152   6.733   2.093   5.814 -0.2061  2.4565 -0.3271
14579TIP3    H265153   6.666   2.183   5.915  0.5433  0.0469  2.3805
14580TIP3   OH265154   5.058   5.848   3.087  0.0113  0.0938  0.1360
14580TIP3    H165155   5.030   5.781   3.149 -0.3492  1.0009  0.9721
14580TIP3    H265156   5.151   5.832   3.074  0.0123 -0.3249  0.6332
14581TIP3   OH265157   3.242   2.971  11.183  0.0221 -0.3826  0.8004
14581TIP3    H165158   3.303   3.021  11.237 -0.8196  1.7679 -0.1853
14581TIP3    H265159   3.161   2.969  11.234 -0.7264  1.5169 -0.2517
14582TIP3   OH265160   0.124   0.831   2.693 -0.2914 -0.6651 -0.2556
14582TIP3    H165161   0.050   0.830   2.632  0.3130 -0.8228 -0.9765
14582TIP3    H265162   0.169   0.913   2.674 -1.1656  0.1954  1.2501
14583TIP3   OH265163   1.879   6.114   0.992  0.0030  0.3833 -0.6446
14583TIP3    H165164   1.920   6.160   1.065 -2.6342  0.2859  0.9553
14583TIP3    H265165   1.816   6.177   0.956 -0.2646 -0.3391 -1.4665
14584TIP3   OH265166   5.832   5.073   5.454 -0.2020 -0.1165 -0.2999
14584TIP3    H165167   5.893   5.147   5.451  0.1656 -0.3180  1.6144
14584TIP3    H265168   5.759   5.099   5.397  1.8178 -0.0287 -2.9236
14585TIP3   OH265169   0.071   4.132   4.581  0.0692 -0.0075  0.3015
14585TIP3    H165170   0.093   4.098   4.494 -0.2795  1.9767 -0.5811
14585TIP3    H265171   0.024   4.060   4.623 -0.7757 -0.5771 -1.5698
14586TIP3   OH265172   6.182   2.253  16.781  0.2445 -0.2763  0.4787
14586TIP3    H165173   6.153   2.344  16.775  0.9511 -0.1031 -0.3987
14586TIP3    H265174   6.124   2.214  16.846 -0.2969  0.7096  0.6048
14587TIP3   OH265175   1.732   0.822   0.477  0.1104 -0.1045  0.2891
14587TIP3    H165176   1.718   0.727   0.481 -1.0302  0.1403  3.6143
14587TIP3    H265177   1.827   0.832   0.478  0.2278 -1.1775  0.6171
14588TIP3   OH265178   4.509   6.357  17.048 -0.3289 -0.4088  0.5189
14588TIP3    H165179   4.462   6.283  17.009 -0.4289  0.0487 -0.2516
14588TIP3    H265180   4.455   6.385  17.121 -1.5654  0.4861 -0.7181
14589TIP3   OH265181   4.190   6.562  13.357  0.3797 -0.2831 -0.1266
14589TIP3    H165182   4.166   6.654  13.353  1.4202 -0.0726 -1.8996
14589TIP3    H265183   4.107   6.516  13.372 -0.5933  0.7078 -2.3206
14590TIP3   OH265184   5.357   2.863   3.026  0.2309  0.0546  0.7523
14590TIP3    H165185   5.416   2.898   2.959 -0.6815 -0.9239 -0.6031
14590TIP3    H265186   5.413   2.812   3.084  0.7732 -0.6404 -0.3572
14591TIP3   OH265187   4.385   6.476  16.802  0.4384  0.3839  0.1552
14591TIP3    H165188   4.430   6.417  16.861 -0.1830  0.4660  0.7173
14591TIP3    H265189   4.320   6.520  16.857 -0.2371  0.3576 -0.6123
14592TIP3   OH265190   2.739   2.895  15.114 -0.0909  0.2316  0.4291
14592TIP3    H165191   2.689   2.954  15.057 -0.0349 -1.6633 -1.6782
14592TIP3    H265192   2.672   2.852  15.168 -0.6675 -1.2955 -1.4344
14593TIP3   OH265193   1.572   4.462  11.134  0.2859 -0.1920 -0.2262
14593TIP3    H165194   1.551   4.555  11.142  0.0635 -0.3830  1.5801
14593TIP3    H265195   1.627   4.457  11.056  0.5192  1.4855 -0.1936
14594TIP3   OH265196   1.885   1.057   3.566  0.3149 -0.3942 -0.2831
14594TIP3    H165197   1.950   1.021   3.627 -2.0404 -3.9706  0.3197
14594TIP3    H265198   1.926   1.049   3.480  1.1106 -1.6406  0.1964
14595TIP3   OH265199   3.276   2.217   1.954  0.4438 -0.4046 -0.1478
14595TIP3    H165200   3.353   2.161   1.960  0.4405 -0.3113  0.9291
14595TIP3    H265201   3.270   2.241   1.862  1.5579 -0.6251 -0.2812
14596TIP3   OH265202   2.344   5.938   2.701 -0.1664  0.2022 -1.1344
14596TIP3    H165203   2.300   5.854   2.707 -2.0943  1.1859 -1.1127
14596TIP3    H265204   2.422   5.921   2.649 -1.1964 -1.3230 -2.2050
14597TIP3   OH265205   1.910   3.894   0.900  0.1758  0.1843 -0.2527
14597TIP3    H165206   1.828   3.896   0.850  1.0543 -0.3295 -1.7496
14597TIP3    H265207   1.925   3.802   0.919  0.0418  0.3461  0.6340
14598TIP3   OH265208   6.782   2.495   4.333  0.3118  0.2704  0.5091
14598TIP3    H165209   6.795   2.565   4.268  2.4453  0.4816  1.1152
14598TIP3    H265210   6.789   2.415   4.282  0.2180  0.4663  0.1839
14599TIP3   OH265211   1.750   3.818  11.884  0.0343  0.1853  0.5014
14599TIP3    H165212   1.820   3.831  11.949  0.1533 -0.7241  0.5556
14599TIP3    H265213   1.776   3.873  11.810  2.0998 -2.0186 -0.4702
14600TIP3   OH265214   2.946   1.479  12.762 -0.1066 -0.0393  0.3930
14600TIP3    H165215   2.954   1.466  12.668 -1.5048 -0.3398  0.2943
14600TIP3    H265216   2.997   1.408  12.801 -2.1236 -1.8414 -0.1549
14601TIP3   OH265217   3.743   1.106  11.015 -0.4170 -0.3963  0.6864
14601TIP3    H165218   3.673   1.067  11.067 -1.0110  0.0792  0.2523
14601TIP3    H265219   3.822   1.061  11.043 -0.9958 -1.4027  0.7065
14602TIP3   OH265220   1.080   3.151  13.864 -0.2282 -0.3305 -0.3976
14602TIP3    H165221   1.130   3.216  13.913  0.4838 -1.4590  0.4134
14602TIP3    H265222   1.020   3.202  13.809 -1.4136  0.9554  2.0339
14603TIP3   OH265223   3.705   0.643  10.868  0.0251 -0.1114  0.1534
14603TIP3    H165224   3.695   0.587  10.790 -1.0808 -0.0300  0.2263
14603TIP3    H265225   3.635   0.708  10.860 -0.0515 -0.0566  1.1690
14604TIP3   OH265226   2.789   2.178   5.152  0.9209  0.0464  0.2350
14604TIP3    H165227   2.826   2.090   5.148  0.8242  0.0283 -0.3119
14604TIP3    H265228   2.854   2.229   5.200  1.4675 -0.0852 -0.3498
14605TIP3   OH265229   1.695   3.864   1.302 -0.6725 -0.2822  0.0851
14605TIP3    H165230   1.702   3.800   1.373 -0.9496 -0.4074  0.0021
14605TIP3    H265231   1.785   3.879   1.274 -0.6639 -1.2348 -0.4191
14606TIP3   OH265232   1.076   6.489  14.555 -0.7833  0.0971 -0.0982
14606TIP3    H165233   1.118   6.452  14.633  0.7863 -0.2912 -1.1252
14606TIP3    H265234   1.134   6.559  14.527 -1.2432  0.1037 -1.0582
14607TIP3   OH265235   5.399   0.665   3.947 -0.6356 -0.3195  0.4974
14607TIP3    H165236   5.423   0.609   3.874  1.1773  0.7624  0.2361
14607TIP3    H265237   5.308   0.643   3.966 -0.4611 -2.1095 -0.7023
14608TIP3   OH265238   6.685   1.833   1.727 -0.3167  0.4069 -1.0623
14608TIP3    H165239   6.687   1.906   1.790 -0.1769  0.6272 -1.3198
14608TIP3    H265240   6.725   1.869   1.648  1.1621 -0.3932 -0.7092
14609TIP3   OH265241   1.122   2.311  12.619 -0.0793 -0.1478 -0.1317
14609TIP3    H165242   1.099   2.317  12.711 -2.2672  0.6295 -0.7090
14609TIP3    H265243   1.175   2.389  12.602  0.1057 -0.1579  0.4024
14610TIP3   OH265244   5.810   5.123   3.537  0.1525  0.1430  0.1585
14610TIP3    H165245   5.761   5.048   3.573 -0.5610 -0.5017 -2.0566
14610TIP3    H265246   5.745   5.194   3.533 -0.0040 -0.0412 -0.6429
14611TIP3   OH265247   4.099   0.243   1.265  0.2154 -0.6558  0.4321
14611TIP3    H165248   4.078   0.286   1.348  0.7744  1.0023 -0.2669
14611TIP3    H265249   4.053   0.158   1.270 -2.3443  0.7130  1.1190
14612TIP3   OH265250   1.471   2.958  13.596 -0.6498 -0.6859 -1.0681
14612TIP3    H165251   1.378   2.944  13.615  0.0532 -0.8866  2.5641
14612TIP3    H265252   1.517   2.906  13.662  2.0193  0.9612 -1.5625
14613TIP3   OH265253   1.363   4.235  15.574  0.1638  0.2482 -0.7271
14613TIP3    H165254   1.386   4.327  15.590 -1.5772  0.8285 -1.3284
14613TIP3    H265255   1.374   4.224  15.479  0.4621 -0.1997 -0.6418
14614TIP3   OH265256   2.324   2.081  16.723  0.1018 -0.7111 -0.0370
14614TIP3    H165257   2.340   2.022  16.796  0.4697 -1.0334 -0.3788
14614TIP3    H265258   2.408   2.088  16.678  0.4178  1.1507  0.7913
14615TIP3   OH265259   3.050   3.806  13.130 -0.5304  0.2877 -0.1739
14615TIP3    H165260   3.108   3.853  13.070 -1.7982  1.5125 -0.4632
14615TIP3    H265261   3.004   3.742  13.074  1.7907 -1.9324  0.3577
14616TIP3   OH265262   3.070   3.444  17.065 -0.0951  0.2679  0.4529
14616TIP3    H165263   3.081   3.359  17.023 -0.9359 -0.1621  1.0870
14616TIP3    H265264   3.078   3.426  17.159 -1.4237  0.7010  0.6576
14617TIP3   OH265265   2.907   4.897  12.684  0.2867  0.0510  0.7035
14617TIP3    H165266   2.904   4.867  12.593  0.9549 -0.3111  0.7967
14617TIP3    H265267   2.932   4.989  12.678  0.7288 -0.0768  0.5378
14618TIP3   OH265268   2.564   0.807   4.571  0.1540  0.0331 -0.0649
14618TIP3    H165269   2.623   0.826   4.644 -0.0356  1.4487 -0.2643
14618TIP3    H265270   2.486   0.770   4.612  0.2857  0.2693  0.3999
14619TIP3   OH265271   3.427   1.892   4.739 -0.4697 -0.0948 -0.4859
14619TIP3    H165272   3.407   1.887   4.646  3.0488 -2.7876 -1.1808
14619TIP3    H265273   3.468   1.978   4.751 -0.9408  0.2609 -1.3714
14620TIP3   OH265274   5.472   4.467   1.333  0.4175 -0.0767  0.2043
14620TIP3    H165275   5.461   4.375   1.307  0.3193 -0.3727  1.2517
14620TIP3    H265276   5.396   4.512   1.296 -0.0166 -0.5917  0.4586
14621TIP3   OH265277   3.732   0.539  12.877  0.0143  0.2404 -0.0636
14621TIP3    H165278   3.717   0.499  12.791  0.2333 -0.6062  0.2885
14621TIP3    H265279   3.644   0.550  12.913  0.0068 -1.3334  0.4604
14622TIP3   OH265280   3.958   2.499   4.011  0.5036  0.0113  0.2292
14622TIP3    H165281   4.040   2.547   4.008  0.6609 -0.2380  0.4437
14622TIP3    H265282   3.950   2.458   3.925  0.2485  0.6231 -0.0338
14623TIP3   OH265283   2.083   4.285   5.543 -0.6487 -0.3440 -0.4526
14623TIP3    H165284   2.096   4.210   5.601 -0.1944  0.9879  1.2136
14623TIP3    H265285   2.163   4.337   5.554 -1.0503  0.4858 -1.4517
14624TIP3   OH265286   3.200   3.399  14.263  0.2800 -0.0782 -0.2373
14624TIP3    H165287   3.291   3.414  14.288 -0.2777  0.5056  1.4901
14624TIP3    H265288   3.162   3.352  14.337 -0.5668 -1.2167 -1.3817
14625TIP3   OH265289   6.781   3.606   0.277 -0.4385  0.4311 -0.0943
14625TIP3    H165290   6.838   3.627   0.352 -1.8545  1.0992  0.8263
14625TIP3    H265291   6.823   3.532   0.235 -0.1128 -0.5870  1.9528
14626TIP3   OH265292   5.200   3.575  12.827  0.3303  0.6599 -0.1278
14626TIP3    H165293   5.288   3.611  12.816  0.5524  1.1477  2.7964
14626TIP3    H265294   5.154   3.639  12.882 -0.8825 -1.0250  0.9082
14627TIP3   OH265295   5.810   4.186   2.693  0.2515  0.6695 -0.6809
14627TIP3    H165296   5.860   4.131   2.633 -0.1712 -0.1993 -0.2549
14627TIP3    H265297   5.872   4.251   2.724  1.5411 -1.2460  0.9363
14628TIP3   OH265298   3.877   2.138  12.720  0.8925 -0.0571  0.8916
14628TIP3    H165299   3.918   2.206  12.774  2.4239 -0.4428  0.2390
14628TIP3    H265300   3.887   2.058  12.771 -2.7251  0.4707  2.6031
14629TIP3   OH265301   6.479   1.793  13.683 -0.1958 -0.7073  0.2724
14629TIP3    H165302   6.541   1.746  13.626 -0.6650 -3.9698  2.3060
14629TIP3    H265303   6.534   1.839  13.746  0.2457 -0.5048 -0.2610
14630TIP3   OH265304   5.486   2.942   5.183  1.0540 -0.3968 -0.2628
14630TIP3    H165305   5.414   2.880   5.195  1.1235 -0.6153 -0.9502
14630TIP3    H265306   5.473   2.977   5.096  0.9825  0.6131  0.1502
14631TIP3   OH265307   6.444   6.529  12.222  0.0478  0.1398  0.3327
14631TIP3    H165308   6.397   6.582  12.286 -0.3923  0.2213 -0.0513
14631TIP3    H265309   6.375   6.494  12.166  0.5008  0.7542 -0.6121
14632TIP3   OH265310   3.233   6.244   4.958 -0.5623  0.3247 -0.0767
14632TIP3    H165311   3.158   6.271   5.011 -0.8497  0.5448 -0.5998
14632TIP3    H265312   3.199   6.176   4.900  0.0818 -0.9493  1.0019
14633TIP3   OH265313   2.054   5.293  16.917 -0.2747  0.8670  0.1241
14633TIP3    H165314   2.120   5.259  16.977  0.2133  1.0390 -0.3062
14633TIP3    H265315   2.096   5.369  16.876 -0.3325  0.3218 -0.9575
14634TIP3   OH265316   3.911   6.243   4.490  0.7046  0.2776 -0.2775
14634TIP3    H165317   3.817   6.235   4.505  0.6750 -0.1086 -0.6696
14634TIP3    H265318   3.939   6.155   4.468  1.2401  0.3028  0.2942
14635TIP3   OH265319   3.429   5.402  12.457 -0.5264 -0.0433 -0.5785
14635TIP3    H165320   3.450   5.319  12.501 -0.2377 -0.5790 -1.7096
14635TIP3    H265321   3.365   5.378  12.390  0.1206  0.5157 -1.4096
14636TIP3   OH265322   4.559   3.674  13.895 -0.2767  0.2039 -0.6876
14636TIP3    H165323   4.604   3.727  13.830 -0.6256  0.4737 -0.7097
14636TIP3    H265324   4.472   3.714  13.903 -1.1136 -1.3696 -1.9103
14637TIP3   OH265325   0.936   2.975  12.202 -0.3232  0.2401 -0.2001
14637TIP3    H165326   0.962   2.953  12.292 -0.9101 -0.7077 -0.2545
14637TIP3    H265327   0.865   3.038  12.212 -0.9273 -0.4679  0.0195
14638TIP3   OH265328   3.682   0.335   2.375 -0.1716  0.3573 -0.1328
14638TIP3    H165329   3.588   0.319   2.362 -0.1523  1.3045 -1.6169
14638TIP3    H265330   3.711   0.372   2.292  1.1305  1.8585  0.9630
14639TIP3   OH265331   0.331   3.602  13.111 -0.0165 -0.2232  0.1202
14639TIP3    H165332   0.391   3.533  13.140  0.7795  0.0495 -0.8407
14639TIP3    H265333   0.276   3.559  13.046  0.5231  0.0421 -0.5277
14640TIP3   OH265334   2.735   0.102  17.051 -0.4818 -0.1431  0.4194
14640TIP3    H165335   2.790   0.167  17.009 -0.0672 -2.5271 -2.9584
14640TIP3    H265336   2.784   0.074  17.128  2.1832 -0.7918 -1.4589
14641TIP3   OH265337   3.511   6.192  11.973 -0.6145 -0.4374 -0.2187
14641TIP3    H165338   3.513   6.116  12.030  0.6799  0.0954  0.4677
14641TIP3    H265339   3.575   6.172  11.904 -1.0622 -0.4359 -0.6342
14642TIP3   OH265340   2.120   4.813   3.007 -0.0339 -0.4761  0.4658
14642TIP3    H165341   2.061   4.856   2.945 -1.0144 -0.7829  1.1698
14642TIP3    H265342   2.166   4.748   2.955 -1.6400 -1.4862  0.2542
14643TIP3   OH265343   2.218   2.116  14.083  0.5279 -0.2147  0.7797
14643TIP3    H165344   2.207   2.029  14.122 -0.5639  0.1141  1.2504
14643TIP3    H265345   2.275   2.102  14.008  1.6425 -1.0747  1.7770
14644TIP3   OH265346   6.089   0.687   3.901  0.5552 -0.1986 -0.1322
14644TIP3    H165347   6.088   0.606   3.951 -0.4085  0.5472  1.1063
14644TIP3    H265348   6.004   0.689   3.857 -0.0007  0.7817  0.9496
14645TIP3   OH265349   5.341   3.727  13.960  0.2935 -0.3164  0.4125
14645TIP3    H165350   5.266   3.783  13.943 -0.2922 -0.6733  1.6991
14645TIP3    H265351   5.382   3.714  13.875 -0.7746  0.3550 -0.2136
14646TIP3   OH265352   3.906   0.771   1.690 -0.0777 -0.4471 -0.1870
14646TIP3    H165353   3.954   0.697   1.728  0.2882 -0.3847 -0.5328
14646TIP3    H265354   3.880   0.741   1.603 -2.0308 -1.0627  0.5948
14647TIP3   OH265355   4.428   1.376  13.667  0.7937 -0.3901 -0.0472
14647TIP3    H165356   4.443   1.402  13.576 -0.7833  1.0541  0.0651
14647TIP3    H265357   4.360   1.436  13.698  0.6805 -1.4339  1.8234
14648TIP3   OH265358   4.642   1.233  11.587  0.2767  0.1231  0.9262
14648TIP3    H165359   4.581   1.307  11.595 -1.4752 -1.1531 -0.3312
14648TIP3    H265360   4.697   1.255  11.513 -0.7007 -0.1344  0.1134
14649TIP3   OH265361   4.443   6.614   0.613  0.3940  0.6683 -0.3766
14649TIP3    H165362   4.408   6.696   0.579 -0.6388  0.5559  0.4040
14649TIP3    H265363   4.408   6.546   0.556  0.3199  0.6597 -0.3201
14650TIP3   OH265364   4.065   1.184   5.857  0.1015  0.1452  0.0037
14650TIP3    H165365   3.976   1.199   5.823  0.4420  1.4843 -0.3531
14650TIP3    H265366   4.052   1.159   5.949 -0.6226  0.9715  0.1333
14651TIP3   OH265367   4.034   0.797  11.682  0.8764 -0.8079  0.8562
14651TIP3    H165368   4.079   0.872  11.721  0.4910 -1.4666  2.6145
14651TIP3    H265369   4.095   0.764  11.616  1.3026  0.6834  0.4953
14652TIP3   OH265370   4.740   2.517  12.260  0.0566  0.1636 -0.1899
14652TIP3    H165371   4.778   2.541  12.345  1.8853  0.5379 -1.0763
14652TIP3    H265372   4.658   2.567  12.255  0.0694  0.3420  1.2294
14653TIP3   OH265373   3.266   6.159  11.238  0.4980 -0.1962 -0.4871
14653TIP3    H165374   3.339   6.106  11.267 -1.5681 -1.7458  2.1092
14653TIP3    H265375   3.275   6.241  11.286 -1.0782 -1.5173  2.1608
14654TIP3   OH265376   3.872   1.385  13.017 -0.1866 -0.6181 -0.0217
14654TIP3    H165377   3.781   1.377  12.990  0.4775 -2.3940 -1.9197
14654TIP3    H265378   3.879   1.326  13.093 -0.5276 -0.8140 -0.1391
14655TIP3   OH265379   2.114   3.325   2.492  0.5634 -0.8131  0.5185
14655TIP3    H165380   2.061   3.362   2.563  0.2620 -0.2247 -0.0085
14655TIP3    H265381   2.156   3.401   2.452  0.8575 -1.1609  0.1618
14656TIP3   OH265382   6.203   2.275   1.914 -0.1153 -0.4423 -0.5156
14656TIP3    H165383   6.199   2.210   1.844  1.9040 -0.5560 -0.5661
14656TIP3    H265384   6.281   2.251   1.964 -1.0742  0.1322  1.2881
14657TIP3   OH265385   4.250   2.043   2.711  0.0753 -0.1539  0.3755
14657TIP3    H165386   4.191   2.033   2.637 -1.0375 -0.8494  1.3291
14657TIP3    H265387   4.192   2.050   2.787  1.1823  0.7418  1.1583
14658TIP3   OH265388   1.396   5.914  16.781  0.0644  0.3482 -0.0516
14658TIP3    H165389   1.483   5.878  16.763  0.8859  1.8551  0.7743
14658TIP3    H265390   1.345   5.840  16.813  0.5082 -0.9261 -2.2281
14659TIP3   OH265391   1.651   1.828   0.538 -0.3146 -0.9858 -0.2760
14659TIP3    H165392   1.634   1.922   0.528 -1.8604 -1.3695 -1.5763
14659TIP3    H265393   1.717   1.808   0.472  0.6580 -0.6518  0.5927
14660TIP3   OH265394   3.223   2.935  12.200 -0.0066 -0.0036  1.1041
14660TIP3    H165395   3.276   3.007  12.164  0.7966  0.4140  3.0539
14660TIP3    H265396   3.133   2.958  12.178  0.5960 -1.0965 -2.9383
14661TIP3   OH265397   5.985   0.038  14.363 -0.5360 -0.0571 -0.0401
14661TIP3    H165398   5.893   0.059  14.377 -0.6868 -0.2287 -0.7532
14661TIP3    H265399   5.985  -0.019  14.286  0.2135  0.4018 -0.3879
14662TIP3   OH265400   1.554   5.950   2.381 -0.7080  0.6553 -0.7755
14662TIP3    H165401   1.646   5.977   2.394 -0.5387 -1.0434  1.8649
14662TIP3    H265402   1.511   5.974   2.462 -2.4254  0.5521 -1.6404
14663TIP3   OH265403   0.382   2.673   4.281  0.5083  0.1136  0.2078
14663TIP3    H165404   0.347   2.712   4.361 -0.2048 -0.5686  0.2386
14663TIP3    H265405   0.446   2.737   4.249  0.3641  0.6623  0.9970
14664TIP3   OH265406   4.571   4.448  15.458 -0.3187  0.2763 -0.7524
14664TIP3    H165407   4.577   4.459  15.553  0.8377  1.6318 -0.9609
14664TIP3    H265408   4.493   4.498  15.433 -0.1483  0.6162 -0.6110
14665TIP3   OH265409   6.213   2.333   6.572  0.2189 -0.2699  0.0023
14665TIP3    H165410   6.306   2.350   6.560 -0.0178  0.4021 -0.9867
14665TIP3    H265411   6.201   2.243   6.542  0.1447  0.4478 -2.2094
14666TIP3   OH265412   3.924   3.021  15.817  0.3281  0.0367  0.4221
14666TIP3    H165413   3.867   3.064  15.753  0.4567 -0.5621 -0.0916
14666TIP3    H265414   3.863   2.990  15.885  0.1750  0.5152  0.5070
14667TIP3   OH265415   6.658   2.107  13.094  0.4581 -0.1884  0.6341
14667TIP3    H165416   6.699   2.174  13.039  1.4988 -0.3284  1.2324
14667TIP3    H265417   6.626   2.155  13.170  2.7531 -0.5889  1.9088
14668TIP3   OH265418   1.301   6.647   0.015 -0.7990 -0.0624  0.2947
14668TIP3    H165419   1.268   6.642  -0.075  0.2364  1.2319 -0.1727
14668TIP3    H265420   1.226   6.674   0.067 -0.9060  1.1445 -0.4888
14669TIP3   OH265421   2.191   0.963   1.557 -0.3184 -0.5294  0.0512
14669TIP3    H165422   2.269   0.922   1.593  0.3919  1.5174  0.9400
14669TIP3    H265423   2.222   1.013   1.482 -0.9440 -0.5928 -0.2486
14670TIP3   OH265424   3.422   0.818  14.870  0.1585 -0.1498 -0.3380
14670TIP3    H165425   3.475   0.779  14.939 -0.6437 -0.2578  0.2221
14670TIP3    H265426   3.436   0.912  14.880  0.5198 -0.1970 -0.4111
14671TIP3   OH265427   0.671   1.686  16.628 -0.0003 -0.0504  0.1299
14671TIP3    H165428   0.652   1.780  16.624  0.5397  0.0805  0.5453
14671TIP3    H265429   0.604   1.650  16.686 -0.3249  0.0433 -0.1825
14672TIP3   OH265430   6.463   2.547  15.080  0.0823  0.0067 -0.7605
14672TIP3    H165431   6.549   2.547  15.124 -0.0358  1.3139 -0.5136
14672TIP3    H265432   6.400   2.549  15.152 -0.1267  0.8283 -0.9621
14673TIP3   OH265433   0.865   6.209   5.253 -0.2026 -0.4650 -0.8533
14673TIP3    H165434   0.864   6.230   5.160 -0.5304 -1.1402 -1.0077
14673TIP3    H265435   0.773   6.203   5.277 -0.1229  0.5984 -0.2761
14674TIP3   OH265436   1.592   4.531   2.913  0.1705 -0.2909 -0.1236
14674TIP3    H165437   1.551   4.460   2.863  0.8392 -1.1219  0.5031
14674TIP3    H265438   1.678   4.497   2.938  1.1958  1.3681 -1.2557
14675TIP3   OH265439   4.888   6.651  12.125 -0.3222  0.1058 -0.2400
14675TIP3    H165440   4.877   6.675  12.033 -0.7496  0.3067 -0.1366
14675TIP3    H265441   4.889   6.735  12.171 -0.2082 -0.0011 -0.0487
14676TIP3   OH265442   1.888   6.647  16.626  0.3784 -0.3497  0.4663
14676TIP3    H165443   1.834   6.584  16.578  2.5218 -1.4588 -0.6281
14676TIP3    H265444   1.864   6.732  16.591  0.1872 -0.9456 -0.8823
14677TIP3   OH265445   6.157   6.451  11.057 -0.3863  0.9311  0.2553
14677TIP3    H165446   6.147   6.383  11.123  0.9069 -1.5856 -2.0427
14677TIP3    H265447   6.069   6.486  11.044 -0.6308  1.5999  3.3753
14678TIP3   OH265448   1.938   0.154   1.628 -0.5039  0.5704 -0.0807
14678TIP3    H165449   1.936   0.239   1.583  1.5298  0.4550 -0.4492
14678TIP3    H265450   2.030   0.129   1.626 -1.1547 -1.8698 -0.3471
14679TIP3   OH265451   3.294   0.601  15.587  0.1616 -0.7381 -0.1225
14679TIP3    H165452   3.384   0.572  15.601 -0.3136 -1.5576  1.2660
14679TIP3    H265453   3.291   0.624  15.494  1.8280 -0.6107 -0.1570
14680TIP3   OH265454   2.360   6.639  15.748 -0.7321 -0.6170 -0.0767
14680TIP3    H165455   2.271   6.605  15.736  0.0001 -2.6764  0.1191
14680TIP3    H265456   2.393   6.592  15.824  0.6161 -0.0206 -0.2803
14681TIP3   OH265457   0.174   5.091   1.415 -0.0490 -0.0728  0.0613
14681TIP3    H165458   0.196   5.047   1.333  0.2467 -0.5888  0.4113
14681TIP3    H265459   0.138   5.175   1.388  2.2467  0.7653 -0.5522
14682TIP3   OH265460   0.503   5.015   3.146  0.6128  0.7242  0.2644
14682TIP3    H165461   0.426   4.969   3.179  1.1484 -0.3429  0.0450
14682TIP3    H265462   0.507   4.992   3.053  0.7346  1.4425  0.0816
14683TIP3   OH265463   3.373   2.911   2.657  0.6861  0.3673 -0.0902
14683TIP3    H165464   3.309   2.840   2.650 -0.8183  1.1451  3.9451
14683TIP3    H265465   3.452   2.869   2.690  0.3892  0.2647  0.4987
14684TIP3   OH265466   6.636   6.680   6.481 -0.7580 -0.8215  0.9737
14684TIP3    H165467   6.576   6.745   6.517 -1.9138 -1.3105 -0.0528
14684TIP3    H265468   6.580   6.619   6.432  0.6505 -0.7487 -0.7962
14685TIP3   OH265469   6.037   5.565   1.925  0.4895 -0.0691 -0.1756
14685TIP3    H165470   6.075   5.534   2.007 -1.6745  1.8003  1.6233
14685TIP3    H265471   6.076   5.651   1.911 -0.6018  0.4474 -0.0682
14686TIP3   OH265472   6.193   1.362   1.953  0.6875 -0.4905  0.1210
14686TIP3    H165473   6.285   1.350   1.976  1.4127  0.4546 -2.1814
14686TIP3    H265474   6.186   1.329   1.864 -0.6908  1.5440 -0.5553
14687TIP3   OH265475   0.485   6.414   1.835  0.4951  0.7984  0.0546
14687TIP3    H165476   0.572   6.382   1.859 -0.8187 -1.8396  1.4510
14687TIP3    H265477   0.442   6.432   1.919 -0.7773  0.8021 -0.5937
14688TIP3   OH265478   1.393   1.569  16.376 -0.0310  0.2970 -0.0936
14688TIP3    H165479   1.343   1.506  16.324 -0.0665 -0.8738  1.3306
14688TIP3    H265480   1.353   1.565  16.463  1.3042  0.7755  0.5545
14689TIP3   OH265481   6.106   0.458   5.272  0.2818  0.4928  0.3213
14689TIP3    H165482   6.136   0.542   5.238 -1.7583  1.5009  0.9045
14689TIP3    H265483   6.022   0.479   5.315  0.0564 -1.7264  0.9960
14690TIP3   OH265484   4.289   3.597  11.338  0.0915  0.0025 -0.3233
14690TIP3    H165485   4.306   3.684  11.300  0.9323 -0.6258 -1.4293
14690TIP3    H265486   4.208   3.568  11.296 -1.1889  0.9843  1.3866
14691TIP3   OH265487   4.367   0.458  14.912 -0.4561  0.7900 -0.1564
14691TIP3    H165488   4.355   0.515  14.837 -1.9296  0.6836 -0.0197
14691TIP3    H265489   4.358   0.515  14.988 -0.2348  0.6787 -0.0456
14692TIP3   OH265490   1.002   1.995   0.587  0.0930  0.1181 -0.3103
14692TIP3    H165491   0.911   2.003   0.555 -0.4268  1.2803  1.3749
14692TIP3    H265492   1.049   2.064   0.540  0.2067 -0.7573 -1.4994
14693TIP3   OH265493   6.489   0.247  12.216  0.0837 -0.2165 -0.3785
14693TIP3    H165494   6.536   0.228  12.297  1.9053  0.0292 -1.3474
14693TIP3    H265495   6.509   0.338  12.198 -0.8266 -0.0926 -0.7879
14694TIP3   OH265496   3.862   4.129  12.454  0.5790 -0.3938 -0.4916
14694TIP3    H165497   3.811   4.121  12.535 -1.2383 -0.1880 -1.5852
14694TIP3    H265498   3.938   4.073  12.468  0.7964  0.3927  1.7372
14695TIP3   OH265499   0.730   0.347  16.211 -0.1617  0.6122  0.2951
14695TIP3    H165500   0.747   0.419  16.272 -0.0631  0.0027  0.9953
14695TIP3    H265501   0.692   0.389  16.134  2.4937  1.7688 -0.4565
14696TIP3   OH265502   4.274   4.309   2.767 -0.2088 -0.1063 -0.1108
14696TIP3    H165503   4.192   4.294   2.814  1.0536  0.3017  2.2824
14696TIP3    H265504   4.303   4.222   2.740 -0.1547 -0.5206  1.2610
14697TIP3   OH265505   2.156   5.762  10.535  0.1331  0.0756  0.3490
14697TIP3    H165506   2.185   5.852  10.519  1.6914 -0.0549  2.2211
14697TIP3    H265507   2.073   5.772  10.581 -0.2890  0.5353 -0.5069
14698TIP3   OH265508   4.479   5.017  15.254 -0.1562  0.0434 -0.0114
14698TIP3    H165509   4.458   5.025  15.161  0.8115  0.9343 -0.1616
14698TIP3    H265510   4.555   5.074  15.266  0.2921 -0.7897  1.1359
14699TIP3   OH265511   3.507   0.641  14.585  0.7245 -0.8257  0.0680
14699TIP3    H165512   3.512   0.724  14.632  1.0352  0.4329 -2.1669
14699TIP3    H265513   3.447   0.588  14.637 -0.6369  1.2963  0.7006
14700TIP3   OH265514   5.564   3.069  14.754 -0.2740  0.2277 -0.2238
14700TIP3    H165515   5.655   3.054  14.780 -0.1383  1.3545  0.0029
14700TIP3    H265516   5.522   2.984  14.762  1.5558 -1.0937 -3.5541
14701TIP3   OH265517   5.032   0.472  11.208 -0.2299  0.4181 -0.3233
14701TIP3    H165518   5.046   0.380  11.187 -0.8922 -0.3300  2.3345
14701TIP3    H265519   4.939   0.487  11.188 -0.0575  0.6102 -1.0141
14702TIP3   OH265520   6.689   3.825  11.596  0.9933 -0.0215 -0.0185
14702TIP3    H165521   6.732   3.840  11.512  1.3441  0.5537  0.2577
14702TIP3    H265522   6.627   3.755  11.580 -0.1033  1.1802 -1.1616
14703TIP3   OH265523   1.856   1.408  16.990 -0.2974  0.2625 -0.1361
14703TIP3    H165524   1.880   1.389  17.081  1.1054  0.5309 -0.4409
14703TIP3    H265525   1.761   1.423  16.993 -0.3490 -0.2540  1.1898
14704TIP3   OH265526   1.949   5.640   1.322  0.6440  0.1302  0.0374
14704TIP3    H165527   1.883   5.577   1.293  0.6239 -0.7904  1.9936
14704TIP3    H265528   2.032   5.594   1.312  0.6796 -0.0024  0.9134
14705TIP3   OH265529   6.030   2.318   5.440 -0.2120 -0.1417  0.1663
14705TIP3    H165530   6.114   2.362   5.429  0.6415 -1.0232  2.6872
14705TIP3    H265531   6.002   2.296   5.351  1.2867  1.8528 -0.8412
14706TIP3   OH265532   5.957   4.246  11.347 -0.4591 -0.1326 -0.7117
14706TIP3    H165533   5.997   4.325  11.383 -1.3614 -0.2739  0.6590
14706TIP3    H265534   5.863   4.263  11.351 -0.6225 -0.8831 -1.3410
14707TIP3   OH265535   5.204   5.230   4.263 -0.0022 -0.2142 -0.1920
14707TIP3    H165536   5.298   5.246   4.273 -0.0677  1.4995 -2.0004
14707TIP3    H265537   5.198   5.152   4.208  0.4017  1.1378 -2.2081
14708TIP3   OH265538   3.073   4.388   5.810 -0.3939  0.0614  0.4816
14708TIP3    H165539   3.033   4.461   5.762 -1.5847 -0.5449  0.5441
14708TIP3    H265540   3.141   4.355   5.752 -0.3746  0.7243  0.1268
14709TIP3   OH265541   1.046   6.505  10.978 -0.2356 -0.1586  0.2936
14709TIP3    H165542   1.085   6.561  11.045  1.3733 -0.2501 -0.5412
14709TIP3    H265543   1.028   6.565  10.906  1.8657 -0.7344 -0.7605
14710TIP3   OH265544   1.494   5.353  11.247  0.0307  0.0624  0.4702
14710TIP3    H165545   1.589   5.360  11.258 -0.2716  0.4074  3.1818
14710TIP3    H265546   1.466   5.441  11.220  0.3821  0.1520  0.3937
14711TIP3   OH265547   6.722   3.368  14.118  0.5026 -0.1586  0.3846
14711TIP3    H165548   6.676   3.357  14.035  0.2226  0.0569  0.5134
14711TIP3    H265549   6.805   3.410  14.094 -0.9453  2.9572  0.5798
14712TIP3   OH265550   5.718   3.660  16.453  0.7238 -0.5492 -0.1688
14712TIP3    H165551   5.695   3.751  16.473  0.0695 -1.0884  1.6597
14712TIP3    H265552   5.732   3.620  16.539  1.2656 -2.1094 -0.9719
14713TIP3   OH265553   4.478   3.021   1.488  0.2609  0.4049 -0.0729
14713TIP3    H165554   4.523   3.098   1.524  2.9158 -0.4944 -1.3996
14713TIP3    H265555   4.413   2.999   1.555 -0.3448  3.5986  0.4789
14714TIP3   OH265556   0.741   1.185   2.031 -0.5365  0.3285 -0.6956
14714TIP3    H165557   0.815   1.124   2.039 -0.6696  0.4298  1.8547
14714TIP3    H265558   0.696   1.179   2.115 -1.0193  3.3415 -0.6745
14715TIP3   OH265559   5.733   0.147  11.671 -0.2747  0.2955  0.0575
14715TIP3    H165560   5.743   0.120  11.579  1.9390  2.0224 -0.2385
14715TIP3    H265561   5.734   0.066  11.720 -3.2084 -0.8022 -1.5528
14716TIP3   OH265562   6.019   5.887   4.978  0.5285 -1.0540 -0.0010
14716TIP3    H165563   5.941   5.848   4.939 -0.7278 -0.8045  2.1867
14716TIP3    H265564   6.013   5.980   4.955 -0.1306 -0.9293  0.6799
14717TIP3   OH265565   2.077   0.919   4.688 -0.5865  0.0924  0.0714
14717TIP3    H165566   2.043   0.984   4.626 -0.0952 -0.8591 -1.2154
14717TIP3    H265567   2.050   0.835   4.652  0.1668 -0.5066  0.8769
14718TIP3   OH265568   2.654   6.086   2.126  0.2925 -0.6371  0.4149
14718TIP3    H165569   2.729   6.076   2.067 -0.8233 -1.7254 -0.8870
14718TIP3    H265570   2.616   6.171   2.102 -1.3385 -1.9458 -1.9354
14719TIP3   OH265571   1.738   4.040  15.755  0.6727 -0.2064  0.4156
14719TIP3    H165572   1.745   3.988  15.835  2.2528 -0.9016 -0.1572
14719TIP3    H265573   1.667   4.102  15.773 -0.6477 -1.9512  1.4302
14720TIP3   OH265574   4.257   5.441   0.564 -0.4622  0.4289  0.5671
14720TIP3    H165575   4.218   5.482   0.487  0.5900 -0.3095 -0.3919
14720TIP3    H265576   4.231   5.349   0.558  1.1751 -0.0176  0.0450
14721TIP3   OH265577   4.538   5.005  16.906  0.0824  0.3508  0.6277
14721TIP3    H165578   4.607   4.938  16.909 -1.3963 -1.1895  0.8980
14721TIP3    H265579   4.458   4.956  16.888 -0.7146  2.3157 -1.3133
14722TIP3   OH265580   3.872   1.220   4.082 -1.1530  0.1451  0.7402
14722TIP3    H165581   3.842   1.129   4.080  1.2874 -0.7455  1.4692
14722TIP3    H265582   3.942   1.220   4.148 -0.6834  2.4171  0.2976
14723TIP3   OH265583   1.373   0.028  15.554 -0.5769 -0.3959 -0.3900
14723TIP3    H165584   1.335   0.115  15.563 -0.2033 -0.1634 -1.0337
14723TIP3    H265585   1.445   0.027  15.618 -0.5786 -0.2312 -0.3851
14724TIP3   OH265586   0.653   0.126  14.986 -0.1856 -0.5909 -0.6523
14724TIP3    H165587   0.628   0.214  15.015 -0.3331 -0.8790  0.1159
14724TIP3    H265588   0.577   0.094  14.937 -0.4748 -0.6198 -0.1902
14725TIP3   OH265589   2.316   4.621  13.058 -0.4345  0.9336 -0.1676
14725TIP3    H165590   2.316   4.717  13.057 -3.1862  0.9952  1.0709
14725TIP3    H265591   2.321   4.598  13.150 -0.0766 -0.1024 -0.4444
14726TIP3   OH265592   4.143   3.939  12.208  0.4032 -0.2595  0.6905
14726TIP3    H165593   4.211   3.989  12.164 -0.4174  1.2838  1.1098
14726TIP3    H265594   4.154   3.849  12.177  1.1284  0.4140 -1.0477
14727TIP3   OH265595   2.770   3.670  14.930 -0.0948 -0.1693  0.6027
14727TIP3    H165596   2.749   3.752  14.976  1.8092  0.8963 -0.3685
14727TIP3    H265597   2.861   3.652  14.956  0.9855  0.4103 -2.6231
14728TIP3   OH265598   3.569   1.331  14.303 -0.2094  0.4610  0.2409
14728TIP3    H165599   3.564   1.422  14.333  2.2228 -0.1771  2.7167
14728TIP3    H265600   3.606   1.283  14.377  1.2056 -2.0767 -2.0443
14729TIP3   OH265601   1.818   3.926   2.489 -0.4819 -0.6294  0.1684
14729TIP3    H165602   1.912   3.941   2.481 -0.1211 -2.9557 -0.3523
14729TIP3    H265603   1.810   3.835   2.517 -2.5434  0.0610  1.9992
14730TIP3   OH265604   1.517   6.146  11.554 -0.0211 -0.6993  0.5876
14730TIP3    H165605   1.605   6.179  11.535  0.0303 -0.4977  1.1960
14730TIP3    H265606   1.486   6.198  11.628 -0.4771 -1.0725  0.6628
14731TIP3   OH265607   5.490   3.755   5.537  0.3646 -0.4119 -0.8607
14731TIP3    H165608   5.409   3.705   5.527 -0.5770  1.4058 -2.6630
14731TIP3    H265609   5.462   3.840   5.570  1.8551 -0.6409  1.1502
14732TIP3   OH265610   5.880   1.457   3.842 -0.4229  0.3383  0.1247
14732TIP3    H165611   5.941   1.443   3.915 -0.1804 -1.7301 -0.4276
14732TIP3    H265612   5.922   1.524   3.788 -0.6474  1.9525  1.9128
14733TIP3   OH265613   0.442   4.940   3.811 -0.5389 -0.2952  0.2846
14733TIP3    H165614   0.479   4.900   3.890  3.2676  2.1221 -0.1404
14733TIP3    H265615   0.403   5.022   3.842 -0.8973 -0.3453 -0.0381
14734TIP3   OH265616   1.154   4.931   1.265 -0.4545  0.2138 -0.1504
14734TIP3    H165617   1.239   4.927   1.309 -0.1624  0.0822 -0.7170
14734TIP3    H265618   1.166   4.879   1.185 -0.8118  0.9184 -0.6679
14735TIP3   OH265619   1.057   2.219  14.135 -0.0463 -0.2006 -0.2402
14735TIP3    H165620   1.035   2.311  14.120 -0.4752 -0.2838 -0.1187
14735TIP3    H265621   1.083   2.216  14.227  1.3490  0.0652 -0.6055
14736TIP3   OH265622   2.227   3.754   5.138 -0.3536  0.1393 -0.2925
14736TIP3    H165623   2.158   3.820   5.133  0.4158  0.9138 -1.0150
14736TIP3    H265624   2.197   3.682   5.082 -0.2187  0.8194 -1.2503
14737TIP3   OH265625   2.790   6.483   3.302 -0.7091 -0.6624  0.0374
14737TIP3    H165626   2.832   6.542   3.240 -0.6374  1.0612  1.6722
14737TIP3    H265627   2.822   6.396   3.278 -0.3646  0.0137 -2.0468
14738TIP3   OH265628   1.428   2.699  11.772  0.1369  0.2081  0.0828
14738TIP3    H165629   1.445   2.606  11.788  1.1193  0.3892  0.1192
14738TIP3    H265630   1.332   2.706  11.769  0.0529 -0.7381  0.4584
14739TIP3   OH265631   0.874   0.060   0.456  0.2897  0.1570  0.0050
14739TIP3    H165632   0.887   0.095   0.544  1.8918  1.7921 -0.8448
14739TIP3    H265633   0.957   0.019   0.434 -0.2520 -0.6398 -0.5754
14740TIP3   OH265634   1.811   3.982  12.511  0.2616  0.2071 -0.5609
14740TIP3    H165635   1.743   3.918  12.489  3.2904 -2.4240 -2.7930
14740TIP3    H265636   1.838   3.959  12.600 -0.5303  0.1485 -0.3308
14741TIP3   OH265637   1.196   3.325   0.726 -0.4571  0.2333  0.0076
14741TIP3    H165638   1.264   3.387   0.698  0.3441 -0.8831 -0.5694
14741TIP3    H265639   1.204   3.252   0.665 -1.5338 -0.3540  0.5535
14742TIP3   OH265640   1.301   1.653  14.237 -0.5086 -0.1867  0.1743
14742TIP3    H165641   1.215   1.614  14.255 -0.0892 -0.4847  1.5945
14742TIP3    H265642   1.292   1.745  14.264 -0.4712 -0.1465  0.0500
14743TIP3   OH265643   5.691   1.381  11.390  0.4932  0.1190  0.1888
14743TIP3    H165644   5.604   1.418  11.377  0.3807 -0.0160  0.5623
14743TIP3    H265645   5.690   1.299  11.342  0.2689 -0.0970  0.5611
14744TIP3   OH265646   3.649   2.959  11.178  0.3287 -0.3524  0.4233
14744TIP3    H165647   3.570   3.008  11.200 -1.1309 -2.2634 -0.4330
14744TIP3    H265648   3.659   2.969  11.084 -0.0077 -1.7213  0.2331
14745TIP3   OH265649   1.129   0.632   6.256  0.4367  0.0985  0.0945
14745TIP3    H165650   1.169   0.719   6.252  1.2813 -0.2575  0.6503
14745TIP3    H265651   1.180   0.586   6.323  2.0665 -1.8929 -2.4470
14746TIP3   OH265652   1.066   4.094   4.905 -0.2799 -0.1004  0.0658
14746TIP3    H165653   1.121   4.136   4.839  1.3824 -0.8112  0.9600
14746TIP3    H265654   1.126   4.035   4.952 -2.2702 -2.6527 -0.4424
14747TIP3   OH265655   5.245   3.896  15.969 -0.0113  0.3896  0.2539
14747TIP3    H165656   5.155   3.928  15.962 -0.3320 -0.5597 -0.0082
14747TIP3    H265657   5.262   3.892  16.063 -0.2650  0.5254  0.3049
14748TIP3   OH265658   0.391   1.935  11.492 -0.1868 -0.3237 -0.7127
14748TIP3    H165659   0.310   1.926  11.543  0.7393 -0.0127  0.8406
14748TIP3    H265660   0.365   1.914  11.402 -2.0747  0.1592 -0.2981
14749TIP3   OH265661   5.864   1.072  15.137  0.0530  0.5908  0.2265
14749TIP3    H165662   5.927   1.013  15.095  0.5966  0.2262  1.5333
14749TIP3    H265663   5.808   1.101  15.066  0.4361 -0.6760 -0.6128
14750TIP3   OH265664   0.651   5.984  10.966  0.1340 -0.0084 -0.1039
14750TIP3    H165665   0.694   5.971  10.882 -0.0772 -0.4787 -0.1425
14750TIP3    H265666   0.696   6.059  11.006  1.4856 -0.9763  0.1912
14751TIP3   OH265667   0.962   0.940  11.607  0.1991 -0.0345 -0.4655
14751TIP3    H165668   0.922   0.968  11.690  0.1886 -0.2843 -0.3874
14751TIP3    H265669   0.965   1.020  11.554 -1.2448 -0.1880 -0.8166
14752TIP3   OH265670   3.936   6.603   5.412 -0.1347  0.4081  0.0491
14752TIP3    H165671   3.858   6.560   5.447 -1.3645  2.0721 -0.6051
14752TIP3    H265672   3.974   6.539   5.351 -0.3699 -0.8193  1.1714
14753TIP3   OH265673   3.790   5.676  16.804  0.3385 -0.4449 -0.2482
14753TIP3    H165674   3.873   5.688  16.850 -0.2454 -2.0610  1.2764
14753TIP3    H265675   3.810   5.695  16.712  2.7687 -2.3648 -0.1489
14754TIP3   OH265676   5.550   3.030  10.998 -0.4844 -0.8949 -0.0888
14754TIP3    H165677   5.574   3.070  11.081 -0.0436 -2.0874  0.3722
14754TIP3    H265678   5.549   3.102  10.935  2.9225 -0.5704  0.1594
14755TIP3   OH265679   4.884   6.712  13.730 -0.3277 -0.4651 -0.3176
14755TIP3    H165680   4.915   6.694  13.641  0.1536  1.9739 -0.6813
14755TIP3    H265681   4.809   6.770  13.718 -0.8768 -0.9320  0.8329
14756TIP3   OH265682   6.679   5.617  11.979  0.2226  0.3105 -0.5151
14756TIP3    H165683   6.775   5.612  11.986  0.1931  1.1699  0.6034
14756TIP3    H265684   6.649   5.618  12.069 -0.7617  1.5660 -0.8485
14757TIP3   OH265685   5.401   2.870  14.647 -0.6566  0.0087  0.2621
14757TIP3    H165686   5.407   2.782  14.684  0.5426 -0.1403 -0.2793
14757TIP3    H265687   5.446   2.864  14.563 -0.8763  1.0617  0.0609
14758TIP3   OH265688   0.698   1.964  15.577  0.6258  0.1803 -0.0665
14758TIP3    H165689   0.731   1.879  15.606 -0.6941 -0.6120 -0.8089
14758TIP3    H265690   0.613   1.944  15.538  1.7153  1.3782 -3.2030
14759TIP3   OH265691   0.422   5.500   3.443  0.4622  0.2861 -0.5435
14759TIP3    H165692   0.446   5.422   3.393 -1.4334  0.1705 -1.3225
14759TIP3    H265693   0.439   5.476   3.534 -1.7409 -1.7390 -0.5976
14760TIP3   OH265694   4.250   2.841   5.048 -0.1338 -0.4479 -0.1777
14760TIP3    H165695   4.227   2.928   5.081 -2.9674 -0.1294 -2.7423
14760TIP3    H265696   4.332   2.853   5.001 -0.7161  0.9648 -0.8622
14761TIP3   OH265697   4.660   5.887  11.106 -0.2029  0.1906 -0.4414
14761TIP3    H165698   4.657   5.882  11.011 -0.4836 -1.5618 -0.3573
14761TIP3    H265699   4.651   5.980  11.126  2.4502  0.9024 -2.2231
14762TIP3   OH265700   3.178   3.142   4.459  0.6422 -0.2812  0.4363
14762TIP3    H165701   3.230   3.114   4.535  3.2421  1.1490 -0.7453
14762TIP3    H265702   3.238   3.134   4.385  0.0586  3.9216 -0.5996
14763TIP3   OH265703   3.373   3.586   2.406  0.1874 -0.5966 -0.0980
14763TIP3    H165704   3.465   3.561   2.403  0.3076 -0.1321 -0.3589
14763TIP3    H265705   3.346   3.587   2.314  0.5044  1.3980 -0.1961
14764TIP3   OH265706   6.403   4.461   1.022  0.1204  0.0647 -0.4140
14764TIP3    H165707   6.309   4.444   1.033 -0.1571  1.3844 -0.6449
14764TIP3    H265708   6.407   4.528   0.954  1.0186  2.5117  1.9330
14765TIP3   OH265709   4.733   3.364   5.118 -0.2757 -0.3323  0.4845
14765TIP3    H165710   4.736   3.449   5.162 -0.6313 -0.4555  0.7482
14765TIP3    H265711   4.817   3.322   5.141  0.9407  0.8958 -1.5725
14766TIP3   OH265712   4.867   2.455   5.387  0.0894  0.7250 -0.0215
14766TIP3    H165713   4.775   2.479   5.378 -0.8994 -1.6304  2.9300
14766TIP3    H265714   4.914   2.539   5.384 -2.5623  2.4578  2.9180
14767TIP3   OH265715   4.785   5.363  11.524  0.5569 -0.3054  0.4209
14767TIP3    H165716   4.824   5.366  11.436  0.8360 -1.2487  0.5085
14767TIP3    H265717   4.745   5.277  11.530 -0.2257  0.0889  0.9044
14768TIP3   OH265718   3.973   3.324   0.180 -0.7218  0.2515  0.2872
14768TIP3    H165719   3.993   3.246   0.128  1.1737  1.8040 -1.3929
14768TIP3    H265720   3.878   3.335   0.169 -0.7567 -0.8722 -0.8031
14769TIP3   OH265721   3.327   3.658  13.372 -0.3889 -0.1831  0.1590
14769TIP3    H165722   3.242   3.692  13.399  0.0408  1.8071 -0.8917
14769TIP3    H265723   3.389   3.695  13.434  0.1356  1.3344 -1.2348
14770TIP3   OH265724   0.744   3.904  12.697 -0.5941 -0.4298 -0.4866
14770TIP3    H165725   0.811   3.969  12.720 -0.2761 -1.0555  0.3669
14770TIP3    H265726   0.661   3.948  12.716 -0.4215  0.2046 -1.1721
14771TIP3   OH265727   5.101   4.550  12.979 -0.2209  0.2089 -0.0710
14771TIP3    H165728   5.196   4.559  12.979 -0.2507  0.5215 -0.1010
14771TIP3    H265729   5.083   4.489  12.908 -0.1479  1.2989 -1.0435
14772TIP3   OH265730   3.199   5.881  12.737  0.1553  0.2457 -0.1167
14772TIP3    H165731   3.108   5.906  12.750 -0.0199  0.2851 -1.3012
14772TIP3    H265732   3.198   5.786  12.735  0.0316  0.2604 -0.8266
14773TIP3   OH265733   6.441   1.339   1.700  0.4509 -0.5152  0.4386
14773TIP3    H165734   6.353   1.312   1.726 -0.2297  2.1141  1.0208
14773TIP3    H265735   6.426   1.405   1.631  1.9672 -0.2663  0.3378
14774TIP3   OH265736   4.981   5.085   0.430  0.1216  0.0029  0.0772
14774TIP3    H165737   5.008   4.993   0.427 -1.4359 -0.4486 -0.9012
14774TIP3    H265738   4.980   5.113   0.339 -1.4948  0.3312  0.1782
14775TIP3   OH265739   5.887   5.752   5.494  0.2191  0.4187 -0.1092
14775TIP3    H165740   5.949   5.699   5.444  0.7843  0.7614  0.2222
14775TIP3    H265741   5.876   5.832   5.443  0.5265  0.6210  0.1396
14776TIP3   OH265742   4.779   5.613  16.277  0.2359 -0.0842  0.3479
14776TIP3    H165743   4.769   5.635  16.369 -0.0982 -1.7822  0.7391
14776TIP3    H265744   4.832   5.683  16.240 -1.1527  1.5738  1.4268
14777TIP3   OH265745   1.828   2.876  14.993 -0.1569 -0.1418 -0.1342
14777TIP3    H165746   1.787   2.794  15.020 -0.9965 -0.1480 -1.4104
14777TIP3    H265747   1.881   2.902  15.069 -2.2612 -0.2792  1.4360
14778TIP3   OH265748   3.318   3.122   2.444 -0.2175 -0.2884 -0.0548
14778TIP3    H165749   3.398   3.174   2.454  0.1718 -1.0109  0.6855
14778TIP3    H265750   3.258   3.157   2.510 -0.3694 -0.0180 -0.3345
14779TIP3   OH265751   0.185   0.892  11.322  0.3823  0.4185  0.4662
14779TIP3    H165752   0.162   0.929  11.237  3.2737 -1.2841 -1.1426
14779TIP3    H265753   0.101   0.875  11.364 -1.1813 -0.5392 -2.8720
14780TIP3   OH265754   4.980   2.302   2.443 -0.0278 -0.4553  0.2354
14780TIP3    H165755   4.921   2.376   2.428  0.2306 -0.6825 -1.9751
14780TIP3    H265756   4.991   2.300   2.538 -1.6434  1.0937  0.4861
14781TIP3   OH265757   5.781   3.291  11.985  0.2660  0.2869 -0.1880
14781TIP3    H165758   5.782   3.372  12.035 -0.4307  0.6883 -0.8195
14781TIP3    H265759   5.694   3.288  11.945  0.0186 -1.1128  0.3985
14782TIP3   OH265760   3.290   3.966   3.223 -0.6222  0.5018 -0.0661
14782TIP3    H165761   3.351   3.899   3.253  0.0634  1.7730  1.4185
14782TIP3    H265762   3.344   4.027   3.174 -1.1000  0.4442 -0.6713
14783TIP3   OH265763   2.096   3.903   0.043 -0.2679 -0.4689 -0.6567
14783TIP3    H165764   2.047   3.954   0.107 -0.7119 -0.3866 -1.0596
14783TIP3    H265765   2.116   3.821   0.088 -0.0826 -0.1855 -0.2192
14784TIP3   OH265766   3.216   6.768   2.861  0.6771 -0.5332 -0.5621
14784TIP3    H165767   3.259   6.683   2.866 -0.9313 -1.4715 -1.9143
14784TIP3    H265768   3.207   6.784   2.767 -2.5721 -0.7543 -0.3475
14785TIP3   OH265769   0.817   4.050  11.944  0.3823  0.7097 -0.4283
14785TIP3    H165770   0.879   4.120  11.965  0.2547  0.3306  1.3128
14785TIP3    H265771   0.816   3.995  12.022 -1.6189  0.3161 -0.7102
14786TIP3   OH265772   1.589   5.206  13.794  0.2404  0.4073  0.5177
14786TIP3    H165773   1.629   5.283  13.836  0.2770  0.5290  0.2624
14786TIP3    H265774   1.507   5.194  13.842  0.8168 -0.1556  1.3778
14787TIP3   OH265775   6.451   0.815  10.711  0.5973  0.1703  0.0245
14787TIP3    H165776   6.538   0.847  10.734 -0.2897  0.9065  2.4950
14787TIP3    H265777   6.466   0.753  10.639  3.0685  0.8004 -0.0301
14788TIP3   OH265778   1.627   4.514  13.762 -0.0839  0.5508 -0.3794
14788TIP3    H165779   1.590   4.480  13.680  1.6176 -0.4902 -0.7344
14788TIP3    H265780   1.706   4.561  13.735  0.4036  0.3367  0.6522
14789TIP3   OH265781   4.413   5.161   0.665  0.2204 -0.1460 -0.4712
14789TIP3    H165782   4.357   5.129   0.594  0.0072  0.9722 -0.8094
14789TIP3    H265783   4.352   5.183   0.735  0.3585 -0.3215 -0.2933
14790TIP3   OH265784   3.214   4.448   5.430  0.0276 -0.8426  0.5248
14790TIP3    H165785   3.130   4.493   5.424 -0.3073 -1.5342  0.0192
14790TIP3    H265786   3.278   4.518   5.446 -0.2425  0.0306 -2.0476
14791TIP3   OH265787   2.040   0.169   6.404  0.0930  0.1287  0.0838
14791TIP3    H165788   1.963   0.113   6.400  0.3405 -0.1273 -1.0494
14791TIP3    H265789   2.050   0.188   6.497 -1.9521  1.0113  0.1545
14792TIP3   OH265790   2.890   0.661  13.216 -0.3035 -0.4138  0.2806
14792TIP3    H165791   2.845   0.732  13.169 -1.2473 -0.2725  1.3696
14792TIP3    H265792   2.962   0.704  13.261 -0.8869 -0.1247  0.9563
14793TIP3   OH265793   5.826   6.055  14.790 -0.0595  0.3729  0.2537
14793TIP3    H165794   5.745   6.024  14.829 -0.8922  0.0024 -1.7028
14793TIP3    H265795   5.833   6.146  14.818 -0.1026 -0.1711  2.0619
14794TIP3   OH265796   2.158   5.463   1.229  0.0128 -0.0904 -0.8085
14794TIP3    H165797   2.209   5.523   1.283 -0.4722  1.7213 -2.3256
14794TIP3    H265798   2.214   5.386   1.219  1.3529  0.8123 -0.2767
14795TIP3   OH265799   1.323   3.286  15.779  0.3324  0.2482  0.6402
14795TIP3    H165800   1.300   3.292  15.687  0.7447  0.0714  0.5243
14795TIP3    H265801   1.274   3.357  15.821  0.3738  0.5130  0.2426
14796TIP3   OH265802   5.547   1.575   2.887  0.0196  0.4459  0.5081
14796TIP3    H165803   5.516   1.493   2.926  1.5795 -0.1675  0.4793
14796TIP3    H265804   5.601   1.615   2.955 -0.7154  1.4535  0.5124
14797TIP3   OH265805   0.187   2.727   1.426  0.0640  0.0165 -0.1129
14797TIP3    H165806   0.269   2.754   1.467 -0.6350  0.6636  0.8933
14797TIP3    H265807   0.143   2.675   1.494 -0.2302 -0.5502 -0.7409
14798TIP3   OH265808   5.513   4.748   0.557 -0.3863  0.3918  0.4968
14798TIP3    H165809   5.447   4.732   0.625 -1.3304  0.3240 -0.4287
14798TIP3    H265810   5.467   4.801   0.491  0.0736 -0.8454 -0.8284
14799TIP3   OH265811   2.329   4.232  12.435 -0.0376 -0.8006  0.2680
14799TIP3    H165812   2.236   4.254  12.440  0.0799  0.9856 -3.2960
14799TIP3    H265813   2.370   4.285  12.503 -1.2006  1.5188 -0.7766
14800TIP3   OH265814   4.511   0.022  11.474 -0.3341 -0.0794 -0.1064
14800TIP3    H165815   4.559  -0.021  11.403 -1.6127 -0.9672 -0.4544
14800TIP3    H265816   4.456   0.088  11.431  1.7046  2.0267  0.4371
14801TIP3   OH265817   2.591   3.241  12.726 -0.0399  0.2556  0.2969
14801TIP3    H165818   2.604   3.329  12.691 -1.4088 -0.1346 -1.2111
14801TIP3    H265819   2.653   3.186  12.678 -0.5993  0.0498 -0.1957
14802TIP3   OH265820   2.529   0.822  16.461  0.0550 -0.5792 -0.0456
14802TIP3    H165821   2.580   0.790  16.535  0.4780  0.7932  0.2665
14802TIP3    H265822   2.508   0.743  16.411 -1.5627 -1.7205  2.3255
14803TIP3   OH265823   5.323   2.486   4.944 -0.1684  0.1187  0.1124
14803TIP3    H165824   5.369   2.568   4.923  0.6642 -0.3061  0.2732
14803TIP3    H265825   5.329   2.434   4.863  0.2185 -0.2115  0.3563
14804TIP3   OH265826   5.528   1.166   5.638  0.6938 -0.2279 -0.0237
14804TIP3    H165827   5.520   1.141   5.730  2.1574 -1.4595 -0.2061
14804TIP3    H265828   5.622   1.165   5.621  0.4996  0.9168 -1.2982
14805TIP3   OH265829   5.751   3.299  14.907 -0.6450  0.2990  0.3393
14805TIP3    H165830   5.755   3.245  14.986 -0.8421 -0.8491 -0.4360
14805TIP3    H265831   5.769   3.388  14.939  0.7278 -0.3524  1.4533
14806TIP3   OH265832   5.322   6.522  17.239 -0.2679 -0.5013 -0.4868
14806TIP3    H165833   5.237   6.485  17.264 -1.0204  0.7868 -1.0937
14806TIP3    H265834   5.304   6.570  17.158  0.3008  2.5806  1.1375
14807TIP3   OH265835   5.834   4.963   4.328  0.1956  0.6312 -0.1369
14807TIP3    H165836   5.915   5.011   4.343 -0.3647  1.5331  0.0509
14807TIP3    H265837   5.778   5.024   4.279 -0.4159  0.0738 -0.1476
14808TIP3   OH265838   5.296   3.533  13.486 -0.1407 -0.2715  0.9415
14808TIP3    H165839   5.335   3.484  13.559  0.2447 -1.3656  0.0168
14808TIP3    H265840   5.221   3.578  13.525 -1.4646 -2.8549  1.5210
14809TIP3   OH265841   6.617   3.998   1.857  0.1608 -0.1021  0.1926
14809TIP3    H165842   6.634   3.996   1.951 -1.8664  0.4110  0.6003
14809TIP3    H265843   6.628   4.090   1.833  2.3679 -0.5192 -0.4143
14810TIP3   OH265844   5.211   1.047   1.807  0.3278  0.2257  0.0790
14810TIP3    H165845   5.276   0.992   1.851  0.3355  1.0058  1.0573
14810TIP3    H265846   5.222   1.028   1.714  1.5600 -0.0823  0.2844
14811TIP3   OH265847   6.694   0.815  11.406  0.1078  0.1946  0.1510
14811TIP3    H165848   6.621   0.861  11.365  0.9057 -0.6511 -2.3536
14811TIP3    H265849   6.665   0.724  11.413  2.0827 -0.9024 -4.1251
14812TIP3   OH265850   4.325   2.418   1.154 -0.1643  0.2989  0.7905
14812TIP3    H165851   4.379   2.493   1.128 -0.4500 -0.0311 -0.8066
14812TIP3    H265852   4.375   2.375   1.224  0.4392  1.4327  1.0654
14813TIP3   OH265853   1.244   2.655   0.782 -0.2031  0.2277  0.2131
14813TIP3    H165854   1.191   2.609   0.717  0.6606  2.8718 -2.4407
14813TIP3    H265855   1.181   2.711   0.828 -0.4523  0.0001  0.1555
14814TIP3   OH265856   1.174   0.228   6.501 -0.2036  0.3584  0.4419
14814TIP3    H165857   1.107   0.160   6.488 -0.6712  0.9219 -0.1248
14814TIP3    H265858   1.215   0.206   6.584 -0.4280 -0.5608  0.3124
14815TIP3   OH265859   0.215   3.951   5.847  0.7462 -0.5602 -0.0038
14815TIP3    H165860   0.189   3.960   5.755  0.8019 -0.2090  0.0125
14815TIP3    H265861   0.200   3.859   5.868 -1.4956 -0.1297  0.3278
14816TIP3   OH265862   1.407   3.035  15.172  0.0888 -0.0491 -0.1724
14816TIP3    H165863   1.474   3.070  15.113  0.4789  0.4527  0.5558
14816TIP3    H265864   1.454   2.969  15.224 -0.2238 -0.4027 -0.3347
14817TIP3   OH265865   3.106   6.767  13.983 -0.4870  0.0697  0.2469
14817TIP3    H165866   3.087   6.686  14.031 -2.2568 -0.5618 -1.4101
14817TIP3    H265867   3.054   6.834  14.028 -0.5867 -0.1216  0.4173
14818TIP3   OH265868   3.446   4.137  11.346  0.3346 -0.3867 -0.1194
14818TIP3    H165869   3.485   4.109  11.429 -0.0990  1.4744  0.7355
14818TIP3    H265870   3.354   4.111  11.352  0.0007  0.9155  0.5494
14819TIP3   OH265871   2.721   3.197  13.780  0.1563 -0.0516  0.3012
14819TIP3    H165872   2.685   3.124  13.832 -1.9622  0.9562  0.2967
14819TIP3    H265873   2.699   3.275  13.831  2.4933  0.6316  0.3520
14820TIP3   OH265874   1.547   5.941   3.612  0.0684 -0.6749 -0.2015
14820TIP3    H165875   1.589   5.869   3.660 -0.3801 -0.9994 -0.2906
14820TIP3    H265876   1.548   5.912   3.521  0.6141 -0.2085 -0.3435
14821TIP3   OH265877   2.562   5.762  11.320  0.1930 -0.1322 -0.0122
14821TIP3    H165878   2.549   5.674  11.287  1.7115 -1.1087  1.9144
14821TIP3    H265879   2.566   5.753  11.415 -2.4274  2.3889  0.4214
14822TIP3   OH265880   0.608   2.935   1.696  0.0345 -0.5321 -0.0341
14822TIP3    H165881   0.609   3.026   1.725 -2.3240 -0.6888  0.6124
14822TIP3    H265882   0.676   2.893   1.749  0.2595  0.5814  0.5824
14823TIP3   OH265883   4.401   5.504  12.150 -0.0911  0.3807 -0.4481
14823TIP3    H165884   4.490   5.479  12.123  0.4802  0.6835  1.1096
14823TIP3    H265885   4.386   5.588  12.107  0.7521  0.7972  0.0534
14824TIP3   OH265886   5.014   0.423   0.158 -0.0917  0.2869  0.4530
14824TIP3    H165887   5.103   0.420   0.122 -0.4512  0.0117 -0.4363
14824TIP3    H265888   4.987   0.332   0.163 -0.7651  0.4311 -0.4245
14825TIP3   OH265889   2.459   2.540  16.840  0.4142 -0.2833  0.0088
14825TIP3    H165890   2.407   2.618  16.860 -1.3726 -0.6939 -2.6835
14825TIP3    H265891   2.395   2.469  16.842  2.2832 -1.9967  3.8797
14826TIP3   OH265892   0.468   1.767   5.944  0.3501  0.0306 -0.2424
14826TIP3    H165893   0.550   1.812   5.964 -0.5196  1.7004 -0.4337
14826TIP3    H265894   0.399   1.827   5.972 -0.8426 -0.1255 -2.6781
14827TIP3   OH265895   6.579   1.576  10.830  0.3145  0.2697 -0.3892
14827TIP3    H165896   6.630   1.613  10.757  0.2953  0.6989 -0.1836
14827TIP3    H265897   6.586   1.641  10.900  0.5701 -0.2761  0.0932
14828TIP3   OH265898   6.257   3.508   5.319 -0.2900  0.0268 -0.4388
14828TIP3    H165899   6.259   3.593   5.275 -0.5509  0.4735  0.3996
14828TIP3    H265900   6.348   3.492   5.344 -0.3007  0.2425 -0.2585
14829TIP3   OH265901   5.977   0.772   1.069 -0.1856  0.4483 -0.0199
14829TIP3    H165902   5.943   0.805   0.986 -0.9806  0.9345  0.4905
14829TIP3    H265903   6.066   0.743   1.049 -1.0022 -1.1049 -1.4248
14830TIP3   OH265904   3.689   2.796  13.373 -0.8310 -0.0137  0.4539
14830TIP3    H165905   3.605   2.796  13.328 -0.6573 -0.6657  0.1385
14830TIP3    H265906   3.711   2.889  13.380 -0.9187  0.1021 -0.6844
14831TIP3   OH265907   2.560   0.212  16.070 -0.1099  0.5364  0.3036
14831TIP3    H165908   2.548   0.171  15.984  1.9492  0.0804  0.2065
14831TIP3    H265909   2.491   0.279  16.074  0.0160  0.8580 -1.8958
14832TIP3   OH265910   4.542   4.146  16.036  0.2184 -0.1824 -0.6600
14832TIP3    H165911   4.602   4.201  15.986  0.8883 -1.1173 -0.8743
14832TIP3    H265912   4.597   4.080  16.077 -0.5329 -0.4292 -0.0272
14833TIP3   OH265913   2.676   0.302  12.552 -0.2906  0.1136 -0.5938
14833TIP3    H165914   2.618   0.377  12.544  0.5217  0.8096 -0.0855
14833TIP3    H265915   2.764   0.340  12.556 -0.0728 -0.5711  3.6470
14834TIP3   OH265916   4.542   1.229  15.930  0.3712 -0.3079 -0.4223
14834TIP3    H165917   4.552   1.220  15.836  0.8858 -1.7322 -0.2415
14834TIP3    H265918   4.487   1.307  15.941  0.0062 -0.3486 -1.8910
14835TIP3   OH265919   6.297   4.384  17.063  0.1183  0.2247  0.2768
14835TIP3    H165920   6.221   4.361  17.117 -0.0145  1.7429  0.7401
14835TIP3    H265921   6.325   4.469  17.095  0.3976  0.8882 -1.6460
14836TIP3   OH265922   6.587   0.865   0.020  0.5793  0.6067 -0.0791
14836TIP3    H165923   6.651   0.902  -0.041  1.0434 -0.6301 -0.3711
14836TIP3    H265924   6.519   0.931   0.027  0.9259  1.1134 -1.3011
14837TIP3   OH265925   2.927   6.009  15.715 -0.7525  0.0199 -0.0346
14837TIP3    H165926   2.848   6.042  15.672 -0.8197 -1.6016 -1.1999
14837TIP3    H265927   2.943   5.924  15.673  2.0813  0.6861 -0.4054
14838TIP3   OH265928   3.878   5.287   3.491  0.4401  0.6684 -0.7344
14838TIP3    H165929   3.843   5.203   3.519 -3.1786  2.4587  0.4975
14838TIP3    H265930   3.870   5.286   3.396 -2.7455  0.8374 -0.5170
14839TIP3   OH265931   2.582   0.917   3.641  0.0310 -0.2658 -0.1726
14839TIP3    H165932   2.617   0.832   3.615 -1.1605 -0.9575  0.4418
14839TIP3    H265933   2.540   0.901   3.725  0.5276  1.1230  0.3568
14840TIP3   OH265934   2.515   2.311  11.512 -0.8767  0.1275 -0.5400
14840TIP3    H165935   2.485   2.296  11.422  1.1473 -0.7429 -1.1121
14840TIP3    H265936   2.554   2.398  11.510 -2.5747  0.9199  0.0005
14841TIP3   OH265937   2.953   2.767   5.583 -0.3398 -0.4634  0.0596
14841TIP3    H165938   2.899   2.739   5.656 -0.9170 -0.2850 -0.2968
14841TIP3    H265939   3.040   2.732   5.603 -0.9840 -2.3094 -0.2525
14842TIP3   OH265940   3.361   4.557   4.064  0.4961 -0.1484 -0.0944
14842TIP3    H165941   3.361   4.479   4.119 -0.9453 -0.1382 -0.0435
14842TIP3    H265942   3.354   4.523   3.975  0.9029 -0.1140 -0.1370
14843TIP3   OH265943   6.061   2.668   3.823  0.5334 -0.0130 -0.0537
14843TIP3    H165944   6.109   2.649   3.903  0.0202  0.9309  0.4760
14843TIP3    H265945   6.001   2.594   3.813  1.1902 -0.5609 -0.0423
14844TIP3   OH265946   3.750   0.489  14.493 -0.5178  0.3801  0.0340
14844TIP3    H165947   3.791   0.413  14.533  2.0180  1.9018  0.4422
14844TIP3    H265948   3.703   0.532  14.565  1.2271  1.2691  0.6604
14845TIP3   OH265949   4.487   0.808  15.049  0.0619  0.3536  0.1550
14845TIP3    H165950   4.458   0.837  14.963  0.5506  1.5451  0.3843
14845TIP3    H265951   4.421   0.841  15.109 -0.2317 -0.3994  0.2577
14846TIP3   OH265952   3.217   2.226   1.219 -0.0510  0.1513  0.0653
14846TIP3    H165953   3.263   2.207   1.137 -0.5469  2.9635 -0.9001
14846TIP3    H265954   3.270   2.293   1.261 -2.6735  2.7189 -0.5963
14847TIP3   OH265955   5.506   1.171   1.311  0.1318 -0.4930  0.3647
14847TIP3    H165956   5.539   1.184   1.400 -1.5224  0.0771  0.9149
14847TIP3    H265957   5.411   1.165   1.321 -0.1570  0.5219 -1.4583
14848TIP3   OH265958   4.764   2.189  11.599 -0.2260 -0.8109  0.4647
14848TIP3    H165959   4.829   2.168  11.666 -0.5504  0.5010  1.1968
14848TIP3    H265960   4.768   2.284  11.589 -2.4769 -0.6266  0.9794
14849TIP3   OH265961   6.778   4.883   3.388  0.1067  0.1520  0.2128
14849TIP3    H165962   6.714   4.952   3.400 -0.7811 -0.7087  0.4601
14849TIP3    H265963   6.753   4.841   3.305  0.7110  0.1979  0.0001
14850TIP3   OH265964   2.281   1.649   2.791  0.5142  0.2026  0.0037
14850TIP3    H165965   2.352   1.656   2.727 -0.8660  0.2937 -1.5789
14850TIP3    H265966   2.201   1.651   2.737 -0.6774  0.1651  1.7394
14851TIP3   OH265967   0.141   0.997  11.064 -0.1530 -0.0014  0.0442
14851TIP3    H165968   0.056   1.040  11.051 -0.2714  0.2132  1.4474
14851TIP3    H265969   0.185   1.006  10.980 -0.8733  1.3296 -0.2158
14852TIP3   OH265970   4.104   1.769  16.989  0.2693 -0.2409 -0.1960
14852TIP3    H165971   4.033   1.752  17.051  0.8238 -3.5771 -0.3642
14852TIP3    H265972   4.060   1.780  16.905 -0.2113 -0.0912  0.0733
14853TIP3   OH265973   1.814   2.481   5.935  0.0774 -0.3404 -0.2498
14853TIP3    H165974   1.848   2.568   5.916 -0.2065 -0.1804 -0.0338
14853TIP3    H265975   1.796   2.483   6.029  1.1868 -1.0195 -0.0093
14854TIP3   OH265976   1.267   2.308  13.506  0.0070 -0.0603 -0.1641
14854TIP3    H165977   1.356   2.276  13.491  0.3432 -0.3289  2.2322
14854TIP3    H265978   1.216   2.228  13.521 -0.1376  0.2357  0.9361
14855TIP3   OH265979   1.530   2.785   1.684 -0.6592 -0.1485 -0.2304
14855TIP3    H165980   1.534   2.702   1.637 -0.5325 -1.6197  2.2989
14855TIP3    H265981   1.454   2.830   1.646 -1.4569 -1.9492 -0.8220
14856TIP3   OH265982   4.324   3.991  15.941 -0.6358 -0.4607 -0.4811
14856TIP3    H165983   4.278   4.067  15.907 -0.8325  0.0240  0.8604
14856TIP3    H265984   4.401   4.027  15.986 -1.5426 -0.9286  1.4834
14857TIP3   OH265985   5.300   4.633  12.058 -0.1992 -0.4003 -0.0512
14857TIP3    H165986   5.229   4.682  12.099  1.3324  0.2150  1.9589
14857TIP3    H265987   5.297   4.547  12.100  1.4972  0.2944  1.5502
14858TIP3   OH265988   0.299   6.474  11.442  0.3709  0.0442 -0.0553
14858TIP3    H165989   0.387   6.445  11.466 -0.3806 -1.1621  1.3498
14858TIP3    H265990   0.266   6.405  11.385 -0.6803 -0.9453  1.6858
14859TIP3   OH265991   3.182   2.957  10.626 -0.0269 -0.2648  0.4521
14859TIP3    H165992   3.152   2.882  10.678  0.1609  0.1397  1.1461
14859TIP3    H265993   3.142   3.033  10.669 -1.1126 -0.0616 -0.8990
14860TIP3   OH265994   5.780   2.446   4.142 -0.0422  0.4596 -0.2230
14860TIP3    H165995   5.687   2.436   4.122 -0.2777  1.0261  0.6017
14860TIP3    H265996   5.789   2.420   4.233  0.3457  1.8762  0.1576
14861TIP3   OH265997   2.662   4.670  15.030 -0.0157  0.0880  0.2028
14861TIP3    H165998   2.614   4.712  14.959 -0.9304  0.4670  1.0343
14861TIP3    H265999   2.598   4.660  15.100  1.3961  1.6060  1.7571
14862TIP3   OH266000   3.600   2.609   0.796 -0.2205  0.7044  0.1727
14862TIP3    H166001   3.650   2.679   0.753 -2.3093  1.9411 -0.3231
14862TIP3    H266002   3.602   2.536   0.735 -0.4750  1.3499 -0.6147
14863TIP3   OH266003   4.961   4.836  11.808  0.5148 -0.4527 -0.0647
14863TIP3    H166004   5.048   4.874  11.804 -0.1632  0.9791 -1.9146
14863TIP3    H266005   4.950   4.792  11.724 -0.6922 -0.2831 -0.0087
14864TIP3   OH266006   5.890   6.151  15.243  0.0346 -0.2057  0.3177
14864TIP3    H166007   5.953   6.140  15.172 -0.4835  0.0951 -0.2033
14864TIP3    H266008   5.870   6.062  15.272 -1.2036 -0.4554 -1.2329
14865TIP3   OH266009   0.854   5.249   3.696 -0.0143 -0.5049  0.2794
14865TIP3    H166010   0.785   5.195   3.658  0.4688 -0.0363 -1.2971
14865TIP3    H266011   0.934   5.197   3.685  0.2313 -0.0768  0.0497
14866TIP3   OH266012   2.025   0.224  13.598 -0.4013 -0.0048 -0.2230
14866TIP3    H166013   1.973   0.303  13.579 -0.4899 -0.0609 -0.2129
14866TIP3    H266014   2.076   0.210  13.518 -0.6415 -0.1363 -0.3542
14867TIP3   OH266015   5.297   5.889   5.869 -0.0638 -0.2346  0.0943
14867TIP3    H166016   5.253   5.866   5.951  1.3326  0.8691  1.1912
14867TIP3    H266017   5.391   5.881   5.889  0.3043  0.6534 -1.2086
14868TIP3   OH266018   2.862   2.333  14.233 -0.2048  0.1572 -0.4076
14868TIP3    H166019   2.941   2.365  14.276  0.2133 -0.2966 -0.8323
14868TIP3    H266020   2.840   2.402  14.169 -2.0653  1.8649  1.9853
14869TIP3   OH266021   0.969   4.367   2.962  0.3970  0.1987 -0.2282
14869TIP3    H166022   0.986   4.346   3.054 -3.9351 -0.6351  0.4487
14869TIP3    H266023   0.934   4.456   2.963  0.1549  0.1213 -1.0680
14870TIP3   OH266024   3.606   4.006   1.063  0.0258  0.2420  0.3049
14870TIP3    H166025   3.574   3.994   0.973 -0.0293  1.7967  0.1002
14870TIP3    H266026   3.556   3.943   1.114 -3.2287  2.3932 -0.0618
14871TIP3   OH266027   2.938   0.803  14.951  0.5674  0.4529 -0.0078
14871TIP3    H166028   2.878   0.755  15.008 -0.3746 -0.4716 -1.7213
14871TIP3    H266029   2.905   0.893  14.951  0.2308  0.3304  0.4229
14872TIP3   OH266030   2.774   1.707  14.708 -0.3272 -0.5300 -0.1853
14872TIP3    H166031   2.705   1.773  14.710  1.1328  1.0342 -0.8517
14872TIP3    H266032   2.796   1.692  14.800 -0.4392  0.1424 -0.0472
14873TIP3   OH266033   2.041   5.924   3.777  0.4097 -0.2175  0.7546
14873TIP3    H166034   1.954   5.915   3.738  0.3973  0.3374  0.6585
14873TIP3    H266035   2.099   5.941   3.703  0.2521  1.7564  1.0694
14874TIP3   OH266036   3.816   1.737  15.285  0.6129  0.0500 -0.4226
14874TIP3    H166037   3.853   1.649  15.288  0.6750  0.0569 -0.9615
14874TIP3    H266038   3.741   1.734  15.345  2.0295  0.2947  1.4059
14875TIP3   OH266039   2.408   1.627  13.599  0.1227  0.3961  0.0556
14875TIP3    H166040   2.347   1.555  13.613 -0.3072  0.3012 -2.0732
14875TIP3    H266041   2.495   1.587  13.601  0.0068  0.1793  0.9523
14876TIP3   OH266042   3.025   6.156   5.409 -0.2593  0.4622  0.1418
14876TIP3    H166043   3.062   6.240   5.382 -1.8889  0.8994 -0.7880
14876TIP3    H266044   3.030   6.101   5.331 -0.0277 -0.0144  0.4897
14877TIP3   OH266045   5.120   4.261   1.656  0.7891  0.4129  0.5756
14877TIP3    H166046   5.149   4.178   1.618  0.3610  0.5682 -0.0895
14877TIP3    H266047   5.189   4.283   1.719  1.8764  0.4990 -0.6077
14878TIP3   OH266048   1.972   3.998  12.769 -0.1337  0.3156 -0.1820
14878TIP3    H166049   2.037   3.996  12.699 -0.1076 -0.0708 -0.1448
14878TIP3    H266050   2.001   4.070  12.825  1.8669 -1.5800  1.3370
14879TIP3   OH266051   6.208   3.051   1.211 -0.7836 -0.3886  0.7936
14879TIP3    H166052   6.297   3.019   1.196 -0.7617  0.0076  0.0241
14879TIP3    H266053   6.209   3.082   1.301  0.0443  0.1746  0.6017
14880TIP3   OH266054   5.953   2.291   4.948 -0.7849  0.0370  0.2504
14880TIP3    H166055   5.885   2.307   5.014 -1.1877  0.5215 -0.2878
14880TIP3    H266056   5.995   2.210   4.978 -0.7184  0.4561  1.3112
14881TIP3   OH266057   2.082   2.912  11.893 -0.0345  0.1183  0.4837
14881TIP3    H166058   2.132   2.889  11.814 -0.2147 -0.6848  0.5986
14881TIP3    H266059   2.141   2.891  11.965 -0.2735 -0.1646  0.5973
14882TIP3   OH266060   6.049   4.014   2.869 -0.1919  0.0617 -0.4736
14882TIP3    H166061   6.005   3.951   2.812 -1.0310 -0.0268  0.2763
14882TIP3    H266062   6.051   3.971   2.955 -1.1898  1.2429  0.1485
14883TIP3   OH266063   0.051   5.596   1.189 -0.7610  0.3905 -0.4178
14883TIP3    H166064  -0.010   5.610   1.262 -0.5891 -0.5153 -0.0991
14883TIP3    H266065   0.048   5.678   1.140 -0.2967  1.3222  1.0527
14884TIP3   OH266066   3.291   3.361  12.210 -0.2131 -0.5257 -0.2794
14884TIP3    H166067   3.363   3.297  12.212  0.9286  0.7412  0.0413
14884TIP3    H266068   3.255   3.359  12.299  0.0721 -0.4526 -0.1597
14885TIP3   OH266069   0.185   3.544   3.039  0.0488 -0.7185 -0.4988
14885TIP3    H166070   0.262   3.509   2.994 -1.2057  0.9177 -4.0821
14885TIP3    H266071   0.205   3.637   3.053 -0.7637 -0.5768 -0.2526
14886TIP3   OH266072   4.383   4.004   4.189 -0.5650 -0.4050 -0.3207
14886TIP3    H166073   4.433   4.039   4.115  1.5980 -0.1304  1.2106
14886TIP3    H266074   4.362   3.914   4.165  1.3592 -0.7675 -0.6768
14887TIP3   OH266075   0.213   0.846   4.522  0.7939 -0.1337  0.3495
14887TIP3    H166076   0.141   0.845   4.459  1.1845  0.1450 -0.1008
14887TIP3    H266077   0.227   0.754   4.545  0.3452 -0.1935  0.3835
14888TIP3   OH266078   5.126   0.894  11.053  0.2083 -0.1458 -0.7730
14888TIP3    H166079   5.146   0.848  10.971 -0.8081  0.6519 -1.4796
14888TIP3    H266080   5.060   0.958  11.029 -0.9033 -0.6230  0.9009
14889TIP3   OH266081   0.582   4.958  14.206 -0.6043 -0.0981  0.0354
14889TIP3    H166082   0.578   5.054  14.203  0.4427 -0.0155  0.9251
14889TIP3    H266083   0.528   4.934  14.281  0.6590 -0.0783  0.9681
14890TIP3   OH266084   0.988   0.345  11.126  0.5361 -0.4627 -0.7889
14890TIP3    H166085   1.026   0.375  11.044  0.5556  0.8352 -0.3236
14890TIP3    H266086   0.998   0.420  11.186  2.3023 -2.0671  0.9697
14891TIP3   OH266087   1.783   6.403  16.531  0.0247  0.5448  0.3880
14891TIP3    H166088   1.802   6.386  16.624 -0.0394 -0.8927  0.1460
14891TIP3    H266089   1.689   6.419  16.529 -0.9901 -4.6599 -0.1048
14892TIP3   OH266090   5.536   3.260  11.201  0.4400  0.2790  0.1641
14892TIP3    H166091   5.463   3.322  11.191  0.5652  0.3214 -0.5023
14892TIP3    H266092   5.612   3.315  11.216  0.2786  0.2214  1.1860
14893TIP3   OH266093   0.049   5.757   1.586  0.1795 -0.3608 -0.7062
14893TIP3    H166094   0.043   5.664   1.606 -0.7700 -0.0792  0.3839
14893TIP3    H266095  -0.016   5.798   1.643  1.1287  1.0554 -0.6079
14894TIP3   OH266096   3.516   5.721  11.558  0.0667  0.5615 -0.6392
14894TIP3    H166097   3.562   5.692  11.479  0.3705 -1.6767  0.3056
14894TIP3    H266098   3.584   5.765  11.610  0.6476 -0.7731 -0.2390
14895TIP3   OH266099   2.598   2.027  10.755 -0.8881 -0.3572 -0.4794
14895TIP3    H166100   2.513   1.982  10.754 -1.0549 -0.1904  2.3535
14895TIP3    H266101   2.662   1.956  10.752 -1.1528 -0.7109  1.6290
14896TIP3   OH266102   5.143   5.544   4.083  0.5138  0.0415 -0.0493
14896TIP3    H166103   5.204   5.481   4.044  0.8638 -0.2506  0.9416
14896TIP3    H266104   5.169   5.548   4.175 -1.3363 -0.5168  0.5175
14897TIP3   OH266105   4.011   1.662   6.209  0.1365  0.6905  0.1513
14897TIP3    H166106   4.068   1.590   6.181 -0.3923 -0.2037  1.3167
14897TIP3    H266107   4.015   1.725   6.138  1.2305 -0.1468 -0.5431
14898TIP3   OH266108   0.903   4.674  15.714 -0.0699  0.1227 -0.2114
14898TIP3    H166109   0.903   4.687  15.809  0.5124  1.2345 -0.3604
14898TIP3    H266110   0.854   4.592  15.702  0.2808 -0.3039  1.0788
14899TIP3   OH266111   5.416   2.901   0.117 -0.2878 -0.4344  0.5596
14899TIP3    H166112   5.360   2.947   0.180  1.4203 -0.4478  2.1278
14899TIP3    H266113   5.486   2.864   0.170  0.5970 -1.3760 -1.2332
14900TIP3   OH266114   6.636   0.512  11.669  0.6007  0.1253  0.2843
14900TIP3    H166115   6.706   0.481  11.611 -0.4863 -2.2544  0.1825
14900TIP3    H266116   6.573   0.554  11.611  1.0499  0.6319  0.1561
14901TIP3   OH266117   1.953   3.898   4.441  0.6455 -0.5231  0.3721
14901TIP3    H166118   2.037   3.878   4.399  0.6796  0.1839  0.0966
14901TIP3    H266119   1.973   3.970   4.501 -0.2751  1.4129 -1.5839
14902TIP3   OH266120   5.772   2.111  14.998 -0.3189  0.0284  0.3242
14902TIP3    H166121   5.867   2.116  15.013 -0.1285 -0.0040 -0.7859
14902TIP3    H266122   5.762   2.037  14.937 -0.9950  0.3901 -0.0022
14903TIP3   OH266123   0.510   6.301   1.028  0.0083  0.2383  0.1431
14903TIP3    H166124   0.576   6.365   1.000 -1.2139  1.1397 -0.7320
14903TIP3    H266125   0.450   6.351   1.083 -0.6928 -0.2613 -0.1649
14904TIP3   OH266126   4.219   2.368   2.444  0.4603  0.0996 -0.2274
14904TIP3    H166127   4.284   2.438   2.449  0.7810 -0.1946 -0.3140
14904TIP3    H266128   4.161   2.384   2.518 -0.4379  1.4300 -1.1872
14905TIP3   OH266129   0.226   6.043  12.198 -0.2549 -0.5373 -0.2048
14905TIP3    H166130   0.244   6.008  12.111 -0.1907  0.7714 -0.7258
14905TIP3    H266131   0.236   6.137  12.189 -0.6922 -0.3473  1.1203
14906TIP3   OH266132   0.520   0.178  13.605  0.2111 -0.0648  0.6197
14906TIP3    H166133   0.536   0.192  13.698  0.1330 -0.1939  0.6538
14906TIP3    H266134   0.565   0.096  13.585  2.6575  1.3909 -0.1080
14907TIP3   OH266135   0.038   3.936  16.509 -0.3169  0.2501  0.0502
14907TIP3    H166136  -0.023   3.877  16.464 -0.6297  0.6364 -0.0402
14907TIP3    H266137   0.117   3.885  16.522 -0.2984  0.0728 -0.7641
14908TIP3   OH266138   1.455   6.762   6.179  0.1078  0.0621  0.3149
14908TIP3    H166139   1.532   6.775   6.123 -0.6646 -0.7379 -0.9604
14908TIP3    H266140   1.484   6.699   6.244  0.5250 -0.2907 -0.2018
14909TIP3   OH266141   0.046   5.932   2.853  0.9471  0.3103  0.3351
14909TIP3    H166142  -0.027   5.871   2.849  0.0363  1.4742 -1.4543
14909TIP3    H266143   0.086   5.917   2.939 -1.5005 -0.2052  1.4073
14910TIP3   OH266144   3.098   5.571  10.523 -0.7157  0.0207  0.1268
14910TIP3    H166145   3.005   5.591  10.536 -0.1700  2.4752  0.4397
14910TIP3    H266146   3.117   5.505  10.590 -2.3342 -0.8662 -0.2505
14911TIP3   OH266147   4.019   6.024  13.094  0.7720 -0.0528 -0.9079
14911TIP3    H166148   4.003   5.968  13.170 -1.8025  2.5988  0.5844
14911TIP3    H266149   4.058   5.965  13.029  2.4775 -2.5130  2.1946
14912TIP3   OH266150   0.412   5.145  13.964  0.7656 -0.0986  0.0475
14912TIP3    H166151   0.348   5.211  13.939  2.0473  2.0585  2.2579
14912TIP3    H266152   0.361   5.065  13.979 -1.2632  1.3315  0.8209
14913TIP3   OH266153   3.437   1.292   0.015 -0.2918 -0.5660 -0.0266
14913TIP3    H166154   3.395   1.361  -0.037 -2.9551 -1.6807  0.6035
14913TIP3    H266155   3.490   1.243  -0.049  0.2169  0.9539 -0.7951
14914TIP3   OH266156   3.787   6.478   4.730  0.0836 -0.1920 -0.0702
14914TIP3    H166157   3.759   6.407   4.672 -2.9560 -0.2299  1.3558
14914TIP3    H266158   3.781   6.441   4.818  0.2036  1.2614  0.5630
14915TIP3   OH266159   2.528   1.029  12.032 -0.0523 -0.2896 -0.2317
14915TIP3    H166160   2.599   1.007  11.972 -1.0592  0.7290 -1.8478
14915TIP3    H266161   2.457   0.968  12.009  0.6542 -2.0514  2.1224
14916TIP3   OH266162   4.135   5.826  11.271 -0.2001 -0.6441  0.2070
14916TIP3    H166163   4.227   5.852  11.262  0.0981 -1.6259  0.4088
14916TIP3    H266164   4.117   5.776  11.192 -0.8080  0.2452 -0.2291
14917TIP3   OH266165   1.742   3.458  14.168  0.2266  0.0472  0.4566
14917TIP3    H166166   1.659   3.502  14.156  0.3227 -0.0077 -0.4837
14917TIP3    H266167   1.805   3.528  14.186  0.1329  0.1714  0.2999
14918TIP3   OH266168   5.550   4.343   5.334  0.0567 -0.5148 -0.2692
14918TIP3    H166169   5.595   4.341   5.249  1.5526  0.3924  0.4848
14918TIP3    H266170   5.546   4.436   5.356 -0.7313 -0.7192  0.4422
14919TIP3   OH266171   3.899   3.027  16.165  0.0072 -0.0957 -0.2302
14919TIP3    H166172   3.855   3.104  16.128 -0.1241 -0.0429  0.0334
14919TIP3    H266173   3.916   3.051  16.256 -1.1752 -0.8727  0.1928
14920TIP3   OH266174   5.580   5.396  16.092  0.6971  0.1908  0.0076
14920TIP3    H166175   5.572   5.487  16.065  1.9757 -0.1031 -1.4506
14920TIP3    H266176   5.674   5.383  16.109  0.3691 -0.5324  1.4115
14921TIP3   OH266177   6.729   1.111   2.342  0.2861 -0.2368  0.0076
14921TIP3    H166178   6.699   1.152   2.424 -1.7143 -0.4056 -0.6049
14921TIP3    H266179   6.811   1.067   2.366 -0.9197 -1.3615  2.2400
14922TIP3   OH266180   2.924   1.572  14.520  0.1243 -0.1079  0.1433
14922TIP3    H166181   2.864   1.611  14.583 -0.6322 -1.6202  0.3946
14922TIP3    H266182   2.930   1.636  14.449 -2.4419 -0.2850 -0.2731
14923TIP3   OH266183   2.341   5.065  12.931 -0.4111  0.2969 -0.3339
14923TIP3    H166184   2.400   5.021  12.870 -0.1716  2.5953 -1.8297
14923TIP3    H266185   2.261   5.082  12.881 -0.6326  1.2413  0.3059
14924TIP3   OH266186   1.957   2.864   3.347  0.1587  0.6160 -0.2277
14924TIP3    H166187   1.982   2.929   3.413  2.4794  0.5648 -1.0138
14924TIP3    H266188   2.010   2.787   3.369 -1.4775 -0.5137 -0.1906
14925TIP3   OH266189   0.514   0.945   5.899 -0.1055  0.5566  0.1570
14925TIP3    H166190   0.541   0.982   5.982  0.5817  0.5519 -0.0638
14925TIP3    H266191   0.425   0.977   5.886 -0.5643 -0.1959  1.3351
14926TIP3   OH266192   1.568   2.278  13.512 -0.1138 -0.5004  0.0492
14926TIP3    H166193   1.592   2.367  13.486  0.0360 -0.5140  0.1365
14926TIP3    H266194   1.596   2.223  13.439 -2.0525 -0.2575 -0.8920
14927TIP3   OH266195   6.749   1.934   6.301  0.0075 -0.4474  0.3164
14927TIP3    H166196   6.695   1.856   6.314 -0.7901 -0.1794 -1.2666
14927TIP3    H266197   6.810   1.933   6.375 -2.8673 -0.1419  2.7942
14928TIP3   OH266198   0.508   4.734   1.256 -0.1006  0.3950 -0.3166
14928TIP3    H166199   0.599   4.727   1.226  0.4886  0.3527  1.4147
14928TIP3    H266200   0.456   4.734   1.176  1.2185 -2.5927 -1.2587
14929TIP3   OH266201   4.004   5.696  13.331 -0.1202 -0.7828  0.0276
14929TIP3    H166202   4.073   5.633  13.310  0.2519 -0.1925 -0.5511
14929TIP3    H266203   4.051   5.779  13.344 -0.4364 -0.9093  2.1993
14930TIP3   OH266204   6.160   3.998   1.681  0.4700 -0.3345 -0.0624
14930TIP3    H166205   6.254   3.988   1.692  0.8786  1.5765 -1.5727
14930TIP3    H266206   6.139   4.080   1.727 -0.3684 -0.5359 -0.0772
14931TIP3   OH266207   3.510   2.114   0.286 -0.1027 -0.4573 -0.5491
14931TIP3    H166208   3.441   2.157   0.338  0.4641 -1.0167  0.6795
14931TIP3    H266209   3.576   2.182   0.273 -0.2299 -0.3268 -0.5146
14932TIP3   OH266210   1.704   4.417  16.686 -0.0857  0.3872 -0.0618
14932TIP3    H166211   1.727   4.503  16.723 -3.5219  1.1317  0.5583
14932TIP3    H266212   1.682   4.435  16.595  1.9094 -0.3593 -0.7303
14933TIP3   OH266213   4.062   4.922   0.754  0.2149  0.4429  0.0746
14933TIP3    H166214   4.062   5.003   0.805  1.4183  0.7883 -0.4621
14933TIP3    H266215   4.124   4.865   0.800  0.2863  0.2705 -0.2354
14934TIP3   OH266216   2.732   0.780   4.253 -0.5817  0.0646  0.1687
14934TIP3    H166217   2.675   0.857   4.256  0.7171  1.0991 -0.9715
14934TIP3    H266218   2.686   0.714   4.306 -1.5040  1.7412  1.5077
14935TIP3   OH266219   0.628   0.963   6.131  0.1872 -0.1401 -0.3916
14935TIP3    H166220   0.694   0.898   6.107 -0.3108 -0.7282 -0.1828
14935TIP3    H266221   0.576   0.921   6.200  0.8816  1.0946  0.9101
14936TIP3   OH266222   3.774   5.688   5.296 -0.4213 -0.4463 -0.0084
14936TIP3    H166223   3.685   5.656   5.281 -0.3882  0.1879 -1.6479
14936TIP3    H266224   3.779   5.700   5.390 -2.6747  1.2011 -0.0507
14937TIP3   OH266225   5.494   4.296   4.453  0.3394  0.5097 -0.1663
14937TIP3    H166226   5.420   4.342   4.413  0.4335 -0.6848 -1.7537
14937TIP3    H266227   5.523   4.234   4.386  0.1464 -1.9635  1.9511
14938TIP3   OH266228   1.728   0.940  16.067 -0.1927 -0.4844 -0.7235
14938TIP3    H166229   1.755   1.030  16.084  2.6221 -1.1655 -1.4351
14938TIP3    H266230   1.727   0.933  15.972  0.6867 -1.5162 -0.6608
14939TIP3   OH266231   3.617   3.606   3.626 -0.3411 -0.3939 -0.0852
14939TIP3    H166232   3.702   3.581   3.590 -0.8006 -0.5288 -1.0976
14939TIP3    H266233   3.599   3.692   3.589 -1.1349 -0.8312 -0.7210
14940TIP3   OH266234   5.980   1.670  13.500 -0.2996 -0.4675 -1.3742
14940TIP3    H166235   6.012   1.678  13.410 -0.1903  0.3651 -1.2720
14940TIP3    H266236   6.048   1.712  13.553 -0.9933  0.2635 -1.0474
14941TIP3   OH266237   1.928   2.954   0.035  0.6764 -0.5059  0.1949
14941TIP3    H166238   1.845   2.909   0.046  0.4184  0.1344  0.8479
14941TIP3    H266239   1.983   2.922   0.106  0.3547  0.5202  0.9143
14942TIP3   OH266240   4.196   1.002   1.761  0.0996 -0.0528  0.0665
14942TIP3    H166241   4.220   0.923   1.810 -0.6947  0.4703  1.3116
14942TIP3    H266242   4.177   0.970   1.673  0.6843 -1.1272  0.3139
14943TIP3   OH266243   4.847   6.692  17.020  0.0963  0.4532  0.5658
14943TIP3    H166244   4.895   6.719  16.942 -2.8671  0.9233 -1.1786
14943TIP3    H266245   4.895   6.730  17.093  0.9970  2.9109 -1.2611
14944TIP3   OH266246   3.929   1.849  15.876  0.3988  0.4044 -0.3308
14944TIP3    H166247   3.844   1.827  15.915 -0.2823 -0.8096 -2.3821
14944TIP3    H266248   3.918   1.936  15.839  0.1656  0.4118 -0.2404
14945TIP3   OH266249   6.655   2.090   5.174 -0.3796 -0.9822  0.1818
14945TIP3    H166250   6.687   2.046   5.095  1.2557 -1.4544  1.0897
14945TIP3    H266251   6.732   2.131   5.211 -1.4078  0.4484  0.7922
14946TIP3   OH266252   1.127   1.022  13.399  0.0757 -0.0988 -0.3417
14946TIP3    H166253   1.115   1.016  13.304  2.8150 -1.9309 -0.6213
14946TIP3    H266254   1.218   0.997  13.414 -0.1574  0.6328  2.7575
14947TIP3   OH266255   5.395   0.389   5.181  0.3201 -0.1390  0.1272
14947TIP3    H166256   5.320   0.368   5.126  0.4141 -2.1980  0.7390
14947TIP3    H266257   5.456   0.316   5.168  1.0734  0.1943  1.6156
14948TIP3   OH266258   1.644   4.109  11.641 -0.1456  0.0599  0.2291
14948TIP3    H166259   1.666   4.075  11.554 -1.6217 -0.8011  0.1842
14948TIP3    H266260   1.706   4.065  11.700  0.0428 -0.2904 -0.2277
14949TIP3   OH266261   0.201   6.524  11.890 -0.5665  0.3687 -0.1568
14949TIP3    H166262   0.293   6.547  11.905  0.0392 -1.7201 -0.4553
14949TIP3    H266263   0.171   6.490  11.975 -0.7753  0.1285 -0.3277
14950TIP3   OH266264   4.195   5.327  12.781 -0.1513  0.0720  0.1503
14950TIP3    H166265   4.279   5.372  12.778  0.0240 -0.2913 -0.4703
14950TIP3    H266266   4.132   5.395  12.805  0.1121  0.6375 -0.7412
14951TIP3   OH266267   6.187   4.705   6.423  0.0130 -0.0435 -0.4811
14951TIP3    H166268   6.226   4.646   6.358 -0.9130 -0.2315 -0.8832
14951TIP3    H266269   6.240   4.693   6.501 -0.3239 -1.6251 -0.4721
14952TIP3   OH266270   2.767   1.263  15.626  0.3101  0.4221  0.3488
14952TIP3    H166271   2.758   1.172  15.654  0.1065  0.0589 -0.8648
14952TIP3    H266272   2.780   1.312  15.707 -0.6123 -0.5573  1.1008
14953TIP3   OH266273   1.653   2.988   2.399  0.2110 -0.1161  0.0678
14953TIP3    H166274   1.695   3.070   2.375 -0.4229 -0.0669 -0.9049
14953TIP3    H266275   1.725   2.925   2.407  0.6279  0.3666  0.1396
14954TIP3   OH266276   4.175   5.908   5.789 -0.1797  0.3815 -0.2919
14954TIP3    H166277   4.173   5.964   5.866 -0.0135 -0.8317  0.6029
14954TIP3    H266278   4.088   5.868   5.786 -0.1836  0.4204 -0.7187
14955TIP3   OH266279   0.642   3.764   3.105 -0.0626 -0.4860 -0.3244
14955TIP3    H166280   0.722   3.810   3.077 -0.7791  0.5821 -0.6417
14955TIP3    H266281   0.618   3.806   3.187 -1.0237  0.0692 -0.8872
14956TIP3   OH266282   6.704   0.604  13.487 -0.4211 -0.0695  0.0277
14956TIP3    H166283   6.785   0.655  13.488 -0.1029 -0.5461 -0.9261
14956TIP3    H266284   6.644   0.653  13.543  1.7386 -1.7015  4.0236
14957TIP3   OH266285   4.339   4.792   5.057 -0.3116 -0.4858  0.3546
14957TIP3    H166286   4.301   4.874   5.028 -0.2573 -0.5839  0.0029
14957TIP3    H266287   4.362   4.807   5.148  0.3167  0.1080  0.1023
14958TIP3   OH266288   0.019   5.513   0.172 -0.1450 -0.2032 -0.2162
14958TIP3    H166289   0.026   5.490   0.265 -0.4245 -0.2477 -0.2085
14958TIP3    H266290   0.099   5.477   0.133 -0.2513 -0.5877 -0.0820
14959TIP3   OH266291   0.125   0.055   6.033 -0.5052  0.1024  0.2042
14959TIP3    H166292   0.070   0.085   5.960 -0.9238 -1.4859 -0.1592
14959TIP3    H266293   0.064   0.014   6.094  0.3911 -2.9658 -0.8682
14960TIP3   OH266294   4.996   5.240   5.014  0.2005 -0.1544 -0.6262
14960TIP3    H166295   5.083   5.242   4.975  1.5128  1.3175  2.2332
14960TIP3    H266296   4.955   5.322   4.987  0.9385  0.6576  0.7052
14961TIP3   OH266297   6.621   6.555   3.089 -0.2997 -0.1597  0.3821
14961TIP3    H166298   6.691   6.533   3.028 -0.2015  0.1646  0.3737
14961TIP3    H266299   6.622   6.484   3.153 -0.6761 -0.7170 -0.2239
14962TIP3   OH266300   3.450   1.926   1.628  0.0532 -0.1200  0.2918
14962TIP3    H166301   3.480   1.971   1.707 -0.3333  2.2651 -0.8723
14962TIP3    H266302   3.359   1.954   1.617 -0.2614 -1.3556 -0.3679
14963TIP3   OH266303   0.320   1.474  13.031  0.3568  0.2694 -0.4203
14963TIP3    H166304   0.269   1.523  12.966 -0.6674  0.2743  0.3836
14963TIP3    H266305   0.261   1.404  13.060  0.9641  0.0192  0.2030
14964TIP3   OH266306   0.136   5.811   0.996 -0.3213 -0.1120 -0.2724
14964TIP3    H166307   0.184   5.887   0.963  0.4156 -0.1069  0.7720
14964TIP3    H266308   0.063   5.849   1.046 -0.1240 -0.0965  0.0031
14965TIP3   OH266309   1.369   3.281   5.404  0.1610 -0.4371  0.4666
14965TIP3    H166310   1.459   3.288   5.371  0.5251 -2.3529  0.9650
14965TIP3    H266311   1.352   3.364   5.448  1.6275  0.0130  0.1959
14966TIP3   OH266312   1.322   3.225   1.530  0.0627  0.4329 -0.3290
14966TIP3    H166313   1.335   3.166   1.603  0.2118 -0.7263 -1.2806
14966TIP3    H266314   1.403   3.221   1.480  0.4448  2.1813  0.1095
14967TIP3   OH266315   4.071   5.048   2.402 -0.3659 -0.3973  0.1599
14967TIP3    H166316   4.116   5.130   2.421  0.4206 -0.9813  0.8460
14967TIP3    H266317   4.053   5.052   2.308 -0.3305  0.5540  0.1892
14968TIP3   OH266318   0.374   0.048  16.604  0.6687 -0.2633  0.0112
14968TIP3    H166319   0.447   0.078  16.659 -0.3759  3.1888 -0.3532
14968TIP3    H266320   0.416   0.013  16.526  2.0762 -2.7464  1.8117
14969TIP3   OH266321   4.972   2.905  13.436 -0.1657 -0.7680  0.2992
14969TIP3    H166322   5.011   2.960  13.369  0.1275  1.0596  1.9128
14969TIP3    H266323   5.018   2.929  13.517 -3.7846  0.6931  2.0683
14970TIP3   OH266324   5.115   4.121  16.120  0.3511 -0.4857  0.7179
14970TIP3    H166325   5.160   4.065  16.184  3.0143  0.8422  0.1186
14970TIP3    H266326   5.065   4.182  16.173 -0.7434 -1.9823  1.4263
14971TIP3   OH266327   4.693   0.323   5.493 -0.1684  0.0048 -0.1923
14971TIP3    H166328   4.661   0.401   5.448  1.4616  0.2772 -0.9169
14971TIP3    H266329   4.684   0.343   5.586 -0.9173  0.5703 -0.3865
14972TIP3   OH266330   2.016   3.909   6.095 -0.2678 -0.0223  0.2905
14972TIP3    H166331   1.932   3.945   6.065 -0.4222 -0.8822 -0.3350
14972TIP3    H266332   2.037   3.959   6.173  0.4479  2.7455 -1.5878
14973TIP3   OH266333   4.280   5.766  11.956 -0.5179 -0.4899 -0.4560
14973TIP3    H166334   4.200   5.814  11.976  0.1751  0.1815  0.7197
14973TIP3    H266335   4.254   5.704  11.887 -2.0362 -0.2773 -0.0894
14974TIP3   OH266336   3.820   1.128  14.191 -0.2075 -0.8225 -0.1557
14974TIP3    H166337   3.773   1.081  14.260  2.2375 -0.6881  1.6646
14974TIP3    H266338   3.878   1.062  14.152  1.4432  0.0373  0.7617
14975TIP3   OH266339   3.115   6.093  12.567  0.2661  0.7614 -0.1804
14975TIP3    H166340   3.057   6.091  12.644 -0.1160 -0.6159 -0.4863
14975TIP3    H266341   3.178   6.023  12.583  0.6563  0.9772 -0.7641
14976TIP3   OH266342   2.551   2.118   2.089 -0.1642 -0.0859  0.1211
14976TIP3    H166343   2.492   2.120   2.164  0.3780  1.1684  0.5176
14976TIP3    H266344   2.534   2.033   2.047 -1.8609  0.0414  0.5381
14977TIP3   OH266345   1.589   3.611   4.976  0.1421  0.4624 -0.5626
14977TIP3    H166346   1.600   3.631   5.068 -0.6258  0.0686 -0.3771
14977TIP3    H266347   1.587   3.696   4.932 -0.1692  0.6765 -0.1315
14978TIP3   OH266348   2.257   3.491  12.824 -0.3190  0.0725  0.3023
14978TIP3    H166349   2.217   3.567  12.866  1.6754  1.0706  0.4653
14978TIP3    H266350   2.343   3.483  12.866 -0.8591 -2.8809  0.9923
14979TIP3   OH266351   4.624   4.154  13.720  0.3012 -1.0316  0.1852
14979TIP3    H166352   4.603   4.189  13.807 -1.7208 -0.7843 -0.3714
14979TIP3    H266353   4.702   4.203  13.692 -0.5187  0.6743  0.8177
14980TIP3   OH266354   1.294   1.840   4.273  0.0664  0.2039  0.2096
14980TIP3    H166355   1.228   1.869   4.336  0.9197  1.9774  0.3309
14980TIP3    H266356   1.265   1.875   4.189 -0.2898 -0.8836 -0.1190
14981TIP3   OH266357   2.361   5.009   2.323 -0.0334  0.0499 -0.1966
14981TIP3    H166358   2.414   5.088   2.336 -0.8858  0.5401  0.3805
14981TIP3    H266359   2.277   5.030   2.365  0.2645 -1.7324  1.3394
14982TIP3   OH266360   2.228   0.610  14.733 -0.5792  0.0310  0.2740
14982TIP3    H166361   2.283   0.535  14.710 -2.4113 -0.9591 -1.0116
14982TIP3    H266362   2.231   0.666  14.655 -0.2512  0.6672  0.7442
14983TIP3   OH266363   0.013   2.548  14.285  0.0306  0.2842  0.4486
14983TIP3    H166364   0.064   2.629  14.283  0.0814  0.2480  0.2849
14983TIP3    H266365   0.069   2.486  14.331  0.9155 -0.2883 -1.3978
14984TIP3   OH266366   4.498   1.659  14.274  0.5265  0.0029  0.1395
14984TIP3    H166367   4.411   1.626  14.296  0.9897 -0.7623  0.8265
14984TIP3    H266368   4.487   1.754  14.269 -0.4055 -0.1102 -0.0344
14985TIP3   OH266369   1.648   3.383  15.700  0.2173  0.6935 -0.4502
14985TIP3    H166370   1.652   3.316  15.631 -1.1686  1.0671 -0.9068
14985TIP3    H266371   1.611   3.337  15.775  0.8483  0.5230 -0.2430
14986TIP3   OH266372   1.291   5.525  11.578  0.1659  0.4171  0.3269
14986TIP3    H166373   1.278   5.609  11.536  0.7228  0.4493  0.2141
14986TIP3    H266374   1.204   5.498  11.606 -0.0507  0.8984  0.1152
14987TIP3   OH266375   0.728   0.063   5.619  0.2000 -0.4116  0.1210
14987TIP3    H166376   0.719   0.153   5.651 -1.9230  0.4325 -2.6478
14987TIP3    H266377   0.685   0.010   5.686  0.9261  0.6689  1.4828
14988TIP3   OH266378   6.637   4.338   2.560  0.7528  0.9711 -0.7040
14988TIP3    H166379   6.558   4.349   2.613  1.0922 -1.5183  0.3540
14988TIP3    H266380   6.706   4.380   2.611  0.5650  1.0214 -0.4891
14989TIP3   OH266381   6.401   4.557   3.018 -0.3660 -0.2834 -0.5252
14989TIP3    H166382   6.487   4.579   2.983 -1.2356  2.7301 -0.8880
14989TIP3    H266383   6.419   4.509   3.098  1.6494  0.6041 -0.4157
14990TIP3   OH266384   5.230   6.664   0.696  0.0997  0.1734 -0.0912
14990TIP3    H166385   5.221   6.575   0.730  0.8914  0.1232 -0.0209
14990TIP3    H266386   5.321   6.670   0.666  0.3866  1.3457  0.9891
14991TIP3   OH266387   1.573   2.411   4.870 -0.2802  0.0506  0.0391
14991TIP3    H166388   1.504   2.461   4.914 -1.1883 -0.2624 -1.0185
14991TIP3    H266389   1.640   2.400   4.937 -0.5777  1.6809  0.6334
14992TIP3   OH266390   0.491   2.959   2.766 -0.0662  0.0491 -0.5401
14992TIP3    H166391   0.586   2.960   2.752  0.3842  2.1402  2.1794
14992TIP3    H266392   0.481   2.944   2.860 -2.4531  0.0601 -0.7673
14993TIP3   OH266393   5.485   1.238  12.489  0.1067  0.2686 -0.0190
14993TIP3    H166394   5.457   1.256  12.399 -1.8434  0.3868  0.5766
14993TIP3    H266395   5.417   1.279  12.543  0.1724 -1.5430  1.4794
14994TIP3   OH266396   1.688   6.450   4.959 -0.1934 -0.1589  0.0815
14994TIP3    H166397   1.597   6.438   4.987 -0.7530  3.2889 -0.0401
14994TIP3    H266398   1.737   6.460   5.041 -0.4351  1.1825  0.0630
14995TIP3   OH266399   4.103   1.950  11.342 -0.5944  0.1275  0.3951
14995TIP3    H166400   4.051   1.964  11.263  3.2419  0.3727 -2.1900
14995TIP3    H266401   4.126   2.038  11.372 -0.6850 -0.0119  0.8873
14996TIP3   OH266402   4.426   3.068  12.408 -0.4019 -0.3234 -0.1480
14996TIP3    H166403   4.445   3.097  12.318  0.3539 -0.0218  0.1053
14996TIP3    H266404   4.370   3.137  12.443 -0.6546 -0.4138 -0.3643
14997TIP3   OH266405   0.100   2.741  17.211  0.1081 -0.0372  0.4442
14997TIP3    H166406   0.060   2.822  17.179 -1.7934 -1.9496 -2.2192
14997TIP3    H266407   0.046   2.716  17.286 -0.6701  0.0119 -0.0972
14998TIP3   OH266408   2.658   4.490   2.847 -0.3333  0.3291  0.1833
14998TIP3    H166409   2.664   4.579   2.810  0.2378  1.0603  1.9713
14998TIP3    H266410   2.696   4.498   2.934 -2.7958 -1.0703  1.4473
14999TIP3   OH266411   4.779   5.772   1.454 -0.1018  0.5460  0.3668
14999TIP3    H166412   4.744   5.688   1.427  0.9541 -0.2830  1.5547
14999TIP3    H266413   4.868   5.753   1.483  0.2319  2.1102  0.4234
15000TIP3   OH266414   1.772   3.409  12.772  0.2051 -0.6095 -0.4982
15000TIP3    H166415   1.766   3.314  12.779  2.1066 -0.7613 -0.8716
15000TIP3    H266416   1.785   3.425  12.679 -0.7497  0.0649 -0.5216
15001TIP3   OH266417   4.033   2.948  14.464  0.1643 -0.0739  0.0245
15001TIP3    H166418   3.957   2.988  14.422 -0.2672  0.6317  1.4587
15001TIP3    H266419   4.106   3.007  14.444  0.2734 -0.5339 -0.9950
15002TIP3   OH266420   4.174   3.659  12.098 -0.5240 -0.0360 -0.0674
15002TIP3    H166421   4.224   3.662  12.017 -1.2413 -0.7015 -0.5318
15002TIP3    H266422   4.198   3.576  12.138  0.5380  0.6950  0.8698
15003TIP3   OH266423   0.024   2.034   4.324 -0.2495 -0.6773 -0.4746
15003TIP3    H166424  -0.018   2.086   4.393  0.8083  0.1955 -0.4871
15003TIP3    H266425   0.071   1.966   4.371  0.8320  0.1789 -0.2971
15004TIP3   OH266426   4.670   1.689  16.015  1.1127  0.0835 -0.2213
15004TIP3    H166427   4.674   1.601  15.977  1.5673 -0.2701  0.6347
15004TIP3    H266428   4.747   1.694  16.072  0.5828  0.7108  0.4446
15005TIP3   OH266429   6.044   3.453  11.125 -0.3879  0.1641  0.5850
15005TIP3    H166430   6.003   3.508  11.059 -2.4694 -4.3875 -2.1557
15005TIP3    H266431   6.129   3.431  11.088 -1.0459 -1.3750 -0.0361
15006TIP3   OH266432   4.821   6.777  12.629 -0.5614  0.2673 -0.4880
15006TIP3    H166433   4.893   6.714  12.634 -0.0576  0.7909 -1.1014
15006TIP3    H266434   4.767   6.758  12.706  1.1914  1.0769  0.9526
15007TIP3   OH266435   3.038   3.629   1.636 -0.0428 -0.0269  0.7252
15007TIP3    H166436   3.001   3.703   1.589 -0.7731  1.2173  3.1533
15007TIP3    H266437   2.961   3.580   1.667  0.4214 -1.0071  0.3234
15008TIP3   OH266438   3.877   3.511  11.408  0.3061 -0.4016  0.0835
15008TIP3    H166439   3.810   3.479  11.347  0.0264  0.9848 -0.3500
15008TIP3    H266440   3.943   3.552  11.352  0.3726  0.2899  0.6659
15009TIP3   OH266441   4.982   3.595  15.507  0.1156 -0.1795  0.9016
15009TIP3    H166442   5.018   3.512  15.475  0.1395 -0.4196  1.5457
15009TIP3    H266443   4.910   3.569  15.564  0.2321  0.2366  1.2385
15010TIP3   OH266444   1.966   0.162  12.022 -0.5605  0.8267  0.1132
15010TIP3    H166445   1.959   0.177  11.928  0.1848  2.2838  0.2795
15010TIP3    H266446   1.924   0.077  12.036 -2.0000  1.2731 -1.3289
15011TIP3   OH266447   4.393   2.131  15.401 -0.0439 -0.4370  0.1606
15011TIP3    H166448   4.414   2.089  15.318  2.7526 -0.1815  0.6938
15011TIP3    H266449   4.402   2.225  15.384 -1.8098 -0.2382  0.1703
15012TIP3   OH266450   3.781   5.231  13.213 -0.0919  0.0240  0.3912
15012TIP3    H166451   3.819   5.281  13.285  0.2917  0.9192 -0.4137
15012TIP3    H266452   3.856   5.206  13.159 -0.3984 -0.3991  0.1557
15013TIP3   OH266453   1.750   6.694  16.338  0.0491  0.0323 -0.0849
15013TIP3    H166454   1.683   6.714  16.403  0.2439  0.1511  0.0824
15013TIP3    H266455   1.701   6.678  16.257 -0.1023  1.6974 -0.3574
15014TIP3   OH266456   5.177   5.333  11.921 -0.0687 -0.1540  0.5285
15014TIP3    H166457   5.211   5.270  11.857 -1.0224  1.9655 -2.1850
15014TIP3    H266458   5.255   5.372  11.960  0.5894  0.3354 -1.2244
15015TIP3   OH266459   5.029   4.127  14.242 -0.3905 -0.5579  0.2139
15015TIP3    H166460   5.044   4.214  14.207 -0.2957 -0.4194  0.5912
15015TIP3    H266461   5.114   4.083  14.238 -0.5063 -0.7369 -0.2573
15016TIP3   OH266462   0.815   1.401  11.384  0.5694  0.1954  0.3146
15016TIP3    H166463   0.908   1.423  11.391  0.8624 -0.3404 -1.7482
15016TIP3    H266464   0.812   1.307  11.404  0.6662 -0.0998 -1.0381
15017TIP3   OH266465   0.760   5.129  16.346 -0.1607  0.0164 -0.0408
15017TIP3    H166466   0.691   5.086  16.296 -0.2120 -0.4384  0.4156
15017TIP3    H266467   0.792   5.062  16.406  1.2782 -0.0276 -0.8464
15018TIP3   OH266468   5.795   3.854  17.234 -0.2295 -0.3831  0.4160
15018TIP3    H166469   5.796   3.895  17.147 -1.3467 -0.2314  0.4765
15018TIP3    H266470   5.837   3.919  17.291 -1.8383  0.6211  0.4792
15019TIP3   OH266471   5.798   3.003   1.768 -0.0187  0.4169 -0.0713
15019TIP3    H166472   5.752   2.924   1.740 -0.3764  0.4107  0.5261
15019TIP3    H266473   5.832   3.041   1.687 -1.4500  0.6568 -0.5763
15020TIP3   OH266474   6.769   6.568  13.389  0.0112 -0.5013 -0.0667
15020TIP3    H166475   6.792   6.475  13.381 -0.5206 -0.7377  1.0908
15020TIP3    H266476   6.762   6.583  13.483 -1.8991  0.2099 -0.2941
15021TIP3   OH266477   1.422   2.331  16.729 -0.8936  0.0001  1.2466
15021TIP3    H166478   1.470   2.411  16.707 -2.7675  1.0174  0.6799
15021TIP3    H266479   1.392   2.346  16.819  0.6761 -1.0725  1.9726
15022TIP3   OH266480   1.874   6.630   6.736 -0.5493 -0.4587  0.2000
15022TIP3    H166481   1.779   6.616   6.740 -0.6641  0.6402  2.2065
15022TIP3    H266482   1.886   6.697   6.668 -1.1128 -1.3725 -0.8000
15023TIP3   OH266483   0.904   4.746  15.321  0.2417 -0.0975 -0.2652
15023TIP3    H166484   0.880   4.697  15.243  0.3076 -1.2008  0.3879
15023TIP3    H266485   0.834   4.726  15.384  1.6245 -1.4533  0.8690
15024TIP3   OH266486   3.552   0.831  15.130 -0.1440 -0.1668  0.8913
15024TIP3    H166487   3.609   0.905  15.151 -0.0659 -0.0078  0.1499
15024TIP3    H266488   3.611   0.764  15.096 -0.2587 -0.4320  1.2178
15025TIP3   OH266489   3.385   6.411  13.600 -0.3815 -0.5018 -0.0880
15025TIP3    H166490   3.312   6.350  13.613  0.1903 -1.2042 -0.1263
15025TIP3    H266491   3.396   6.454  13.685 -2.3286  1.2909 -0.7035
15026TIP3   OH266492   2.049   5.538   0.699 -0.4783  0.0743 -0.1708
15026TIP3    H166493   2.134   5.502   0.676  0.6723  1.7655  1.2641
15026TIP3    H266494   2.047   5.534   0.795 -0.9989  2.2452 -0.0721
15027TIP3   OH266495   1.278   4.527  13.275  0.2422 -0.2283  0.0279
15027TIP3    H166496   1.348   4.559  13.217 -0.7305  1.0249 -0.4509
15027TIP3    H266497   1.279   4.432  13.261  0.8893 -0.0754 -1.0611
15028TIP3   OH266498   6.461   2.292  11.370 -0.0915 -0.3313 -0.1659
15028TIP3    H166499   6.542   2.242  11.365 -0.1182 -0.4310  0.3476
15028TIP3    H266500   6.395   2.228  11.397 -0.1222 -0.0239  0.5092
15029TIP3   OH266501   6.727   2.183  11.717 -0.0055 -0.0822 -0.4010
15029TIP3    H166502   6.809   2.154  11.676  0.1675 -0.6107  0.3160
15029TIP3    H266503   6.688   2.241  11.652  0.5411 -0.4708 -1.0935
15030TIP3   OH266504   4.494   2.329   6.082  1.1185 -0.0053  0.9449
15030TIP3    H166505   4.435   2.253   6.077  0.1867  0.7916 -0.5348
15030TIP3    H266506   4.556   2.316   6.010  1.8127 -0.0532  1.5451
15031TIP3   OH266507   6.310   2.545  16.039 -0.1478 -0.3744  0.6955
15031TIP3    H166508   6.341   2.547  15.948 -0.1409 -0.5357  0.6933
15031TIP3    H266509   6.267   2.630  16.052  0.2567 -0.1641  0.6836
15032TIP3   OH266510   1.307   0.050   2.077 -0.2450 -0.3055  0.1498
15032TIP3    H166511   1.349  -0.004   2.011  0.4419  0.9370 -0.4605
15032TIP3    H266512   1.372   0.118   2.096  0.3880 -1.7515  3.5389
15033TIP3   OH266513   0.123   6.594  12.533  0.0594 -0.2229  0.2515
15033TIP3    H166514   0.173   6.582  12.453  0.7291 -0.3918  0.6944
15033TIP3    H266515   0.178   6.649  12.588 -0.4938  0.0780  0.5155
15034TIP3   OH266516   2.320   2.461   4.953 -0.0381  0.7991  0.3824
15034TIP3    H166517   2.343   2.497   4.867  1.6274  1.0261  0.9083
15034TIP3    H266518   2.227   2.482   4.964  0.1256  2.1236 -0.6973
15035TIP3   OH266519   0.842   1.533  11.980  0.2263 -0.7109 -0.1713
15035TIP3    H166520   0.761   1.483  11.988  0.5543 -1.3438 -0.8032
15035TIP3    H266521   0.845   1.561  11.889  0.9353 -1.0712 -0.2663
15036TIP3   OH266522   3.711   1.189   4.996 -0.4380  0.4281 -0.0968
15036TIP3    H166523   3.717   1.233   4.911  0.7643  1.2098  0.3900
15036TIP3    H266524   3.798   1.150   5.009 -1.1314 -1.1402 -0.0016
15037TIP3   OH266525   0.615   5.873   5.097  0.4918  0.1157  0.6486
15037TIP3    H166526   0.621   5.795   5.042 -0.7424  2.3893 -2.8818
15037TIP3    H266527   0.564   5.845   5.173 -3.1938 -1.6600 -2.3175
15038TIP3   OH266528   2.150   5.405   0.345 -0.3265 -0.8866 -0.0512
15038TIP3    H166529   2.125   5.348   0.273 -1.6871  1.0238 -1.1552
15038TIP3    H266530   2.068   5.449   0.370  0.8551  1.3799 -0.0104
15039TIP3   OH266531   2.855   3.291  11.867  0.4429 -0.5227  0.2539
15039TIP3    H166532   2.797   3.331  11.932 -0.5065 -3.3231  1.1949
15039TIP3    H266533   2.833   3.335  11.784 -1.3125  0.1329  1.0544
15040TIP3   OH266534   2.381   4.702  16.104  0.5570 -0.2300 -0.3874
15040TIP3    H166535   2.464   4.654  16.094  0.9856  0.5377 -0.5856
15040TIP3    H266536   2.382   4.733  16.195  1.2271  1.1147 -0.8409
15041TIP3   OH266537   0.181   3.524   6.073 -0.1904 -0.3468 -1.1868
15041TIP3    H166538   0.089   3.504   6.052 -0.1311 -1.5186 -0.3742
15041TIP3    H266539   0.222   3.438   6.082  0.8783  0.1805 -1.0490
15042TIP3   OH266540   3.105   5.409   1.224 -0.2951  0.1208  0.0083
15042TIP3    H166541   3.152   5.338   1.268 -1.0363  0.2236  0.9671
15042TIP3    H266542   3.119   5.485   1.280 -0.3924  0.4875 -0.4644
15043TIP3   OH266543   6.449   1.696  14.053  0.0953  0.1814 -0.3648
15043TIP3    H166544   6.512   1.768  14.040  0.6231  0.1243  1.7462
15043TIP3    H266545   6.503   1.618  14.061 -0.2548  0.1002  1.2406
15044TIP3   OH266546   6.435   4.694  12.218 -0.3652 -0.3606 -0.2200
15044TIP3    H166547   6.475   4.632  12.280  0.0502 -0.4518 -0.5728
15044TIP3    H266548   6.341   4.690  12.237 -0.1819  0.0613  0.8108
15045TIP3   OH266549   0.950   3.971  13.358 -0.1709 -0.0270 -0.9441
15045TIP3    H166550   1.030   4.007  13.320  0.6700 -0.8987 -0.0051
15045TIP3    H266551   0.890   4.046  13.361 -0.4882 -0.0590 -4.5218
15046TIP3   OH266552   3.144   3.319  13.176 -0.0992  0.6600  0.2507
15046TIP3    H166553   3.094   3.250  13.133  0.5887 -0.3851  1.0881
15046TIP3    H266554   3.132   3.304  13.269  1.5609  0.5257  0.4659
15047TIP3   OH266555   4.769   5.009   2.571 -0.2518 -0.7787  0.1148
15047TIP3    H166556   4.692   4.954   2.585 -0.2751 -0.7962 -0.0702
15047TIP3    H266557   4.841   4.961   2.611 -0.4222 -0.5278  0.7240
15048TIP3   OH266558   4.654   0.807  15.605  0.2139 -0.5435 -0.4326
15048TIP3    H166559   4.739   0.817  15.562 -0.0891  0.4004 -0.8461
15048TIP3    H266560   4.616   0.728  15.566 -0.2863  0.5859 -2.3452
15049TIP3   OH266561   3.376   2.406  15.732  0.0042 -0.3986  0.3235
15049TIP3    H166562   3.392   2.500  15.726  2.0408 -0.7671 -0.7095
15049TIP3    H266563   3.281   2.398  15.742  0.1728  1.9164  4.7596
15050TIP3   OH266564   5.753   1.124  13.413  0.0914 -0.5601  0.4095
15050TIP3    H166565   5.826   1.174  13.450  0.5127 -0.2980 -0.7587
15050TIP3    H266566   5.682   1.134  13.477  0.8195 -0.1337  1.1546
15051TIP3   OH266567   6.283   5.273   0.427 -0.1984 -0.3278  0.0681
15051TIP3    H166568   6.372   5.246   0.402  0.5049  3.1323 -1.4601
15051TIP3    H266569   6.231   5.264   0.348 -0.1843  1.6583 -0.1952
15052TIP3   OH266570   5.736   0.992   5.032 -0.1233 -0.6136 -0.1800
15052TIP3    H166571   5.640   0.988   5.031 -0.0823 -1.5642 -1.6952
15052TIP3    H266572   5.759   1.026   4.946  0.9145 -0.3697  0.1865
15053TIP3   OH266573   3.258   1.662  10.604  0.1393  0.0154 -0.4202
15053TIP3    H166574   3.312   1.599  10.557  0.7980 -1.5519  2.3335
15053TIP3    H266575   3.168   1.637  10.582  0.4124 -1.3536 -0.0550
15054TIP3   OH266576   4.728   2.600   2.072  0.4767 -0.3679 -0.1760
15054TIP3    H166577   4.724   2.533   2.004 -0.5203 -0.6021  0.1051
15054TIP3    H266578   4.689   2.559   2.149  1.8452 -0.1995  0.6340
15055TIP3   OH266579   1.987   4.170  13.095 -0.2765  0.1330 -0.2220
15055TIP3    H166580   2.074   4.180  13.135 -0.1006 -1.5390 -0.1537
15055TIP3    H266581   1.992   4.221  13.015  0.1151  1.6839  0.7659
15056TIP3   OH266582   0.566   3.495  16.094  0.3361  0.0862 -0.6314
15056TIP3    H166583   0.514   3.458  16.023  0.0638  0.8245 -0.8187
15056TIP3    H266584   0.592   3.420  16.146 -2.6315 -0.0902  0.6452
15057TIP3   OH266585   0.919   1.097  12.594 -0.0028  1.0089  0.1634
15057TIP3    H166586   0.966   1.129  12.517  0.0136 -1.1611 -0.7558
15057TIP3    H266587   0.830   1.082  12.564  0.1677 -0.4803  0.3872
15058TIP3   OH266588   4.017   4.065  13.318 -0.1973 -0.6645  0.5779
15058TIP3    H166589   4.047   4.132  13.258 -0.1144 -2.3690 -1.3116
15058TIP3    H266590   3.939   4.103  13.359  0.7597  1.1892  0.7396
15059TIP3   OH266591   6.099   3.313   2.947  0.2804  0.1026 -0.1201
15059TIP3    H166592   6.070   3.221   2.956 -0.1431  0.1461 -1.0008
15059TIP3    H266593   6.188   3.307   2.915  0.1728  0.0009 -0.4009
15060TIP3   OH266594   6.508   2.652  11.623  0.1928 -0.2672  0.6828
15060TIP3    H166595   6.478   2.619  11.538 -1.3711 -0.0652  1.1432
15060TIP3    H266596   6.509   2.747  11.612 -0.2353 -0.2292  0.9553
15061TIP3   OH266597   4.814   3.784   2.475  0.1125  0.4211  0.7390
15061TIP3    H166598   4.878   3.851   2.499  1.1398 -0.5088  0.6369
15061TIP3    H266599   4.775   3.815   2.394  1.0027  0.6166  0.3835
15062TIP3   OH266600   2.557   3.697   5.193 -0.4274 -0.4956 -0.4429
15062TIP3    H166601   2.548   3.643   5.114  0.0647 -1.4254  0.1261
15062TIP3    H266602   2.535   3.637   5.265 -0.1072  0.1355  0.1829
15063TIP3   OH266603   3.569   4.580   1.976  0.1581  0.1934 -0.1281
15063TIP3    H166604   3.638   4.532   1.931 -0.4495 -1.5858  0.8037
15063TIP3    H266605   3.604   4.599   2.063 -0.5136 -0.6955  0.3413
15064TIP3   OH266606   2.196   3.560   4.202  0.0501 -0.0043 -0.5168
15064TIP3    H166607   2.131   3.505   4.245  0.8418 -0.0757  0.6058
15064TIP3    H266608   2.274   3.505   4.196  0.6048  0.7268 -0.0948
15065TIP3   OH266609   0.967   4.157  13.055 -0.5964 -0.3428  0.3127
15065TIP3    H166610   1.006   4.244  13.050 -1.0423 -0.0800  1.2707
15065TIP3    H266611   1.032   4.104  13.101 -0.7726 -0.2462  0.6773
15066TIP3   OH266612   1.082   6.131   0.306  0.1646  0.5171 -0.7056
15066TIP3    H166613   1.025   6.155   0.233 -1.0485  2.6862  0.8953
15066TIP3    H266614   1.134   6.209   0.323  1.1507 -0.3004  0.1081
15067TIP3   OH266615   0.794   0.486  11.446 -0.3294 -0.4079  0.7103
15067TIP3    H166616   0.709   0.442  11.451 -0.5961 -0.1098 -1.1171
15067TIP3    H266617   0.779   0.571  11.489 -1.8955  1.0357 -2.4801
15068TIP3   OH266618   3.258   0.280  11.939  0.3908  0.4363  0.1936
15068TIP3    H166619   3.295   0.192  11.949  1.0896  0.2741 -3.2399
15068TIP3    H266620   3.332   0.336  11.917 -0.5510  1.2265 -1.0166
15069TIP3   OH266621   6.210   0.941  13.187  0.1477  0.0472  0.5066
15069TIP3    H166622   6.239   0.939  13.278 -0.2867 -0.7133  0.6351
15069TIP3    H266623   6.264   0.875  13.144 -0.0394  0.0064  0.3345
15070TIP3   OH266624   2.529   1.444   4.746  0.1516  0.4540  0.0343
15070TIP3    H166625   2.612   1.427   4.790  0.5749 -2.5555 -1.8206
15070TIP3    H266626   2.465   1.450   4.818  1.4693 -0.3810  1.3004
15071TIP3   OH266627   1.046   3.856   3.302  0.3933 -0.1636  0.4451
15071TIP3    H166628   0.965   3.906   3.316  0.0636 -0.6116  0.1379
15071TIP3    H266629   1.114   3.923   3.291 -0.1642  0.2289 -0.6427
15072TIP3   OH266630   6.555   5.003   2.382 -0.1489 -0.0801  0.2355
15072TIP3    H166631   6.563   4.991   2.288  0.9266  2.1629  0.0319
15072TIP3    H266632   6.564   4.914   2.418  2.8664 -0.5398 -1.5259
15073TIP3   OH266633   0.297   0.302   0.174 -0.2469  0.2000  0.1001
15073TIP3    H166634   0.294   0.383   0.224  0.8695 -0.3691  1.1142
15073TIP3    H266635   0.390   0.276   0.176 -0.3969 -0.4893 -1.1940
15074TIP3   OH266636   5.724   1.064  15.798  0.2420 -0.5494 -0.3803
15074TIP3    H166637   5.721   1.105  15.711  0.2833 -0.6004 -0.4061
15074TIP3    H266638   5.783   0.990  15.787 -1.2154 -1.6644 -0.7779
15075TIP3   OH266639   2.172   6.652  11.996  0.5763 -0.6033  0.3318
15075TIP3    H166640   2.207   6.708  11.927 -2.8560 -0.2723 -1.2422
15075TIP3    H266641   2.157   6.568  11.953 -0.0709 -0.8705  1.0749
15076TIP3   OH266642   2.451   1.263  14.295 -0.0238 -0.1395  0.6402
15076TIP3    H166643   2.462   1.205  14.220  0.7915 -2.0892  2.2266
15076TIP3    H266644   2.394   1.333  14.263  1.8848  0.1528 -2.3733
15077TIP3   OH266645   6.782   0.800  14.755 -0.5480 -0.5310  0.4835
15077TIP3    H166646   6.788   0.715  14.798  0.4392  0.0910  1.6190
15077TIP3    H266647   6.794   0.782  14.662 -1.2072 -1.7186  0.6219
15078TIP3   OH266648   1.701   1.732  13.527 -0.1458  0.4675 -0.3424
15078TIP3    H166649   1.682   1.645  13.564 -1.3714  0.8354 -0.0811
15078TIP3    H266650   1.753   1.776  13.594  2.0948 -0.7262 -1.2583
15079TIP3   OH266651   0.698   4.046  16.042 -0.2830  0.2396 -0.6956
15079TIP3    H166652   0.699   3.976  15.977  2.0311 -1.7506  1.3849
15079TIP3    H266653   0.744   4.119  16.000  0.0229 -0.5505 -1.7404
15080TIP3   OH266654   3.392   1.396  16.797  0.1625  0.0161 -0.4290
15080TIP3    H166655   3.479   1.409  16.758  0.7199 -3.3583 -0.4438
15080TIP3    H266656   3.334   1.383  16.722  0.6852 -3.3334 -0.3240
15081TIP3   OH266657   0.257   2.310  16.812  0.3334 -0.6528  0.3771
15081TIP3    H166658   0.341   2.345  16.781 -0.1940 -0.6580 -1.1054
15081TIP3    H266659   0.193   2.379  16.790 -0.0557 -0.6766  1.4301
15082TIP3   OH266660   1.377   5.504  14.093  0.2569 -0.4821  0.1226
15082TIP3    H166661   1.351   5.590  14.126  1.2611  0.6176 -1.8579
15082TIP3    H266662   1.296   5.464  14.063  0.1850  1.0428 -1.7755
15083TIP3   OH266663   0.106   2.846   5.388  0.1923  0.2218  0.2238
15083TIP3    H166664   0.175   2.877   5.447 -0.5046  0.3870  0.9611
15083TIP3    H266665   0.121   2.752   5.379  1.4333  0.5061 -0.8484
15084TIP3   OH266666   0.938   4.490   4.383  0.0550  0.3433  0.5427
15084TIP3    H166667   0.926   4.398   4.362  0.0039  0.4187  0.2281
15084TIP3    H266668   0.886   4.504   4.462  1.8226 -0.3916  1.8603
15085TIP3   OH266669   5.925   2.176  10.867  0.0836 -0.0550 -0.3395
15085TIP3    H166670   5.832   2.158  10.873  0.6387 -3.4195 -1.0267
15085TIP3    H266671   5.968   2.100  10.907  2.5424  0.6802 -1.4441
15086TIP3   OH266672   2.330   4.573  13.358 -0.8426 -0.2607 -0.0946
15086TIP3    H166673   2.287   4.657  13.371 -0.2284  0.1355 -0.6003
15086TIP3    H266674   2.387   4.562  13.434 -1.0240 -0.2831  0.0374
15087TIP3   OH266675   3.313   0.339   1.565 -0.2149  0.5097  0.2667
15087TIP3    H166676   3.312   0.425   1.524  0.6036  1.0356  1.3457
15087TIP3    H266677   3.405   0.311   1.557 -0.2510  0.2140  0.9116
15088TIP3   OH266678   6.636   5.340   1.362  0.1113 -0.3159  0.9161
15088TIP3    H166679   6.613   5.433   1.357  0.0143 -0.2119  3.0967
15088TIP3    H266680   6.588   5.300   1.289 -1.0499  1.0814  0.8900
15089TIP3   OH266681   4.352   1.594   3.687  0.0201 -0.3166 -0.2626
15089TIP3    H166682   4.311   1.513   3.656  0.0966 -0.2765 -0.4684
15089TIP3    H266683   4.444   1.584   3.665  0.2400 -0.6998  0.8099
15090TIP3   OH266684   2.824   1.164   5.503 -0.4738  0.5431  0.2099
15090TIP3    H166685   2.865   1.249   5.520 -1.0046  0.8248  0.0928
15090TIP3    H266686   2.799   1.132   5.590 -0.9343  0.8418  0.1875
15091TIP3   OH266687   6.660   1.158  13.935 -0.1977  0.3224 -0.0781
15091TIP3    H166688   6.715   1.087  13.902 -0.9477 -0.5124  0.4295
15091TIP3    H266689   6.580   1.114  13.965 -0.7768  1.4158 -0.0016
15092TIP3   OH266690   4.792   1.998   2.568 -0.6052 -0.2090 -0.2217
15092TIP3    H166691   4.731   2.039   2.629 -1.5453 -0.3989 -1.0295
15092TIP3    H266692   4.800   2.061   2.496  1.8330  0.7955  0.8741
15093TIP3   OH266693   2.243   5.184   3.054 -0.3028 -0.2198 -0.0521
15093TIP3    H166694   2.159   5.193   3.098 -0.3138  0.3506 -0.1886
15093TIP3    H266695   2.222   5.179   2.961 -0.1848 -0.0180 -0.0909
15094TIP3   OH266696   3.813   6.095   1.233  0.1327  0.0390  0.1235
15094TIP3    H166697   3.871   6.144   1.174 -0.3670  0.2913 -0.1624
15094TIP3    H266698   3.813   6.006   1.197  0.3227  0.0422  0.1129
15095TIP3   OH266699   2.273   5.296  14.656 -0.3152 -0.3485 -0.0032
15095TIP3    H166700   2.344   5.326  14.599 -1.3364  0.6456 -0.7778
15095TIP3    H266701   2.194   5.305  14.603 -1.0506 -1.2627  0.9124
15096TIP3   OH266702   5.419   1.641  16.116  0.4242 -0.1076  0.3037
15096TIP3    H166703   5.447   1.660  16.206  1.2629 -1.4532  0.3292
15096TIP3    H266704   5.426   1.725  16.071 -0.1141  0.6057  1.5187
15097TIP3   OH266705   6.405   2.203  14.538 -0.0602 -0.0501 -0.1165
15097TIP3    H166706   6.457   2.283  14.532 -0.8671  0.4248 -0.7694
15097TIP3    H266707   6.333   2.216  14.476 -1.1784 -0.5401  1.0608
15098TIP3   OH266708   3.414   2.745  14.187 -0.3035 -0.3847 -0.4292
15098TIP3    H166709   3.479   2.697  14.135  1.6812  0.8169  0.8987
15098TIP3    H266710   3.339   2.753  14.129  0.1484 -3.1162 -1.4847
15099TIP3   OH266711   6.199   1.821   1.955 -0.3783  0.2505  0.5364
15099TIP3    H166712   6.287   1.801   1.923 -0.6856 -0.7536  0.2825
15099TIP3    H266713   6.168   1.891   1.898 -0.3545 -0.5003 -0.4141
15100TIP3   OH266714   5.717   5.776  14.159 -0.3788 -0.1221  0.1448
15100TIP3    H166715   5.653   5.735  14.218 -0.0125  0.1777  0.7546
15100TIP3    H266716   5.667   5.799  14.081 -1.0279  0.1346  0.6317
15101TIP3   OH266717   1.901   0.448  13.525 -0.4198  0.2690  0.5870
15101TIP3    H166718   1.827   0.490  13.569 -0.6663 -0.0141  0.4481
15101TIP3    H266719   1.891   0.472  13.433 -0.1221  0.5423  0.6229
15102TIP3   OH266720   1.940   1.426   1.845 -0.0866  0.8760 -0.2614
15102TIP3    H166721   1.946   1.332   1.826  0.4523  0.8917 -0.1839
15102TIP3    H266722   1.850   1.439   1.875 -0.0768  0.3310  0.0142
15103TIP3   OH266723   6.041   0.396   6.069  0.2320 -0.4389 -0.4785
15103TIP3    H166724   6.021   0.454   5.995  1.6593 -0.0608 -0.5827
15103TIP3    H266725   6.128   0.363   6.051  1.8439  1.9405  2.4253
15104TIP3   OH266726   4.458   0.229  14.149  0.0105 -0.7677  0.0642
15104TIP3    H166727   4.502   0.215  14.065  1.1746  1.3612  0.3004
15104TIP3    H266728   4.441   0.140  14.181  1.7692 -1.6226 -1.2617
15105TIP3   OH266729   6.297   4.990  13.317  0.1078  0.4129 -0.1642
15105TIP3    H166730   6.268   5.078  13.293 -2.5811 -0.4417 -0.1752
15105TIP3    H266731   6.312   4.995  13.412 -5.1862 -0.3688  0.8974
15106TIP3   OH266732   3.569   5.622  13.980  0.5786  0.1843 -0.2143
15106TIP3    H166733   3.565   5.712  14.013 -0.2228  0.6237 -1.4714
15106TIP3    H266734   3.574   5.632  13.885 -0.9876 -1.1103 -0.4560
15107TIP3   OH266735   6.682   2.443   5.366  0.4827  0.1516  0.1951
15107TIP3    H166736   6.762   2.390   5.364 -0.3152 -1.1567  1.9036
15107TIP3    H266737   6.698   2.507   5.435  0.1910  0.0990  0.3125
15108TIP3   OH266738   1.956   0.912  11.540  0.8650  0.4827  0.3450
15108TIP3    H166739   1.952   0.918  11.636  1.9290  2.7650  0.2872
15108TIP3    H266740   2.049   0.926  11.520  0.7521 -0.6211 -0.9925
15109TIP3   OH266741   3.643   4.899   0.746  0.4197 -0.2503 -0.3713
15109TIP3    H166742   3.641   4.858   0.660  0.9220 -0.3491 -0.3388
15109TIP3    H266743   3.711   4.851   0.794 -0.1885 -0.5019  0.2345
15110TIP3   OH266744   2.948   1.790  14.321  0.0922 -0.7207 -0.1947
15110TIP3    H166745   2.982   1.872  14.285 -0.2972  0.3324  1.7618
15110TIP3    H266746   2.861   1.813  14.353 -0.5962 -2.2637 -0.9345
15111TIP3   OH266747   0.687   4.339   1.550 -0.1367 -0.2413  0.2445
15111TIP3    H166748   0.616   4.337   1.485 -2.1588 -2.6999  2.4318
15111TIP3    H266749   0.756   4.285   1.511 -0.2527  0.4803 -0.9960
15112TIP3   OH266750   0.954   5.572   3.274 -0.0155  0.3574  0.0805
15112TIP3    H166751   0.979   5.555   3.365 -0.1533 -1.7259 -0.2266
15112TIP3    H266752   0.881   5.511   3.258 -0.2952  1.0249 -1.2914
15113TIP3   OH266753   6.323   5.954   5.487  0.1217  0.0946  0.4659
15113TIP3    H166754   6.242   5.985   5.447  0.5727 -1.2528 -1.5784
15113TIP3    H266755   6.389   6.017   5.460 -0.0224  0.5540  1.1710
15114TIP3   OH266756   6.200   0.138   0.603 -0.2429 -0.3877 -0.1217
15114TIP3    H166757   6.235   0.204   0.664  1.2712  0.1604 -1.5575
15114TIP3    H266758   6.105   0.142   0.616 -0.0271  0.5708  1.3378
15115TIP3   OH266759   4.282   1.063  17.213  0.0633  0.4548 -0.2573
15115TIP3    H166760   4.254   0.974  17.193  0.0148  0.6844 -1.2321
15115TIP3    H266761   4.377   1.057  17.222 -0.1053 -0.0207  1.4633
15116TIP3   OH266762   3.843   2.504  15.285  0.4382  0.4061 -0.2946
15116TIP3    H166763   3.832   2.595  15.258  3.4602 -0.2017 -4.0429
15116TIP3    H266764   3.759   2.462  15.262 -1.1247  2.2462  1.8476
15117TIP3   OH266765   1.856   6.646   3.531 -0.1873 -0.0948 -0.4197
15117TIP3    H166766   1.830   6.659   3.440  0.8733 -2.3697 -1.0908
15117TIP3    H266767   1.830   6.556   3.551 -0.2375  0.3083  1.4680
15118TIP3   OH266768   4.334   1.142   0.654  0.5326 -0.1059  0.4098
15118TIP3    H166769   4.285   1.059   0.654  0.8357 -0.2960 -0.4309
15118TIP3    H266770   4.368   1.148   0.565 -1.6469  2.1806 -0.3385
15119TIP3   OH266771   0.555   0.886   0.356  0.0802 -0.1104  0.1191
15119TIP3    H166772   0.566   0.797   0.322 -0.0773  0.2507 -0.8842
15119TIP3    H266773   0.625   0.937   0.315  0.1834  0.2379  0.7059
15120TIP3   OH266774   5.666   2.563   4.930  0.2147 -0.1474  0.2438
15120TIP3    H166775   5.573   2.582   4.920  0.1468  0.2776  1.4999
15120TIP3    H266776   5.670   2.468   4.940  0.3261 -0.6260 -3.7802
15121TIP3   OH266777   6.517   6.135  14.207 -0.4331 -0.3397  0.0711
15121TIP3    H166778   6.436   6.162  14.250 -1.1986 -0.6122 -1.1768
15121TIP3    H266779   6.573   6.212  14.212 -0.1144 -0.7033  2.4754
15122TIP3   OH266780   4.172   0.398   4.611 -0.1815  0.0698 -0.3219
15122TIP3    H166781   4.245   0.431   4.558  0.1973 -0.0106  0.1392
15122TIP3    H266782   4.207   0.395   4.700 -0.7682  0.0722 -0.0909
15123TIP3   OH266783   1.672   3.767  10.509 -0.0885 -0.1437 -0.0673
15123TIP3    H166784   1.590   3.763  10.559 -0.4521 -0.4241 -0.6880
15123TIP3    H266785   1.737   3.730  10.569 -0.5261 -0.4805  0.2098
15124TIP3   OH266786   5.809   4.902   5.688  0.1552 -0.2684  0.1138
15124TIP3    H166787   5.891   4.862   5.718 -0.1093  0.0221  1.2280
15124TIP3    H266788   5.835   4.953   5.611  1.5047  1.8893  1.9311
15125TIP3   OH266789   4.122   0.549  13.298  0.0112 -0.0954 -0.9260
15125TIP3    H166790   4.028   0.530  13.302 -0.2746  1.4827  0.6553
15125TIP3    H266791   4.163   0.476  13.344 -0.6333  0.2391  0.2202
15126TIP3   OH266792   2.468   1.689   2.592 -0.0060 -0.4132  0.2575
15126TIP3    H166793   2.531   1.625   2.560  0.7541  0.6903 -0.5071
15126TIP3    H266794   2.392   1.679   2.534  1.4100  1.6575 -2.0877
15127TIP3   OH266795   6.612   2.971  14.487  0.2809  0.2228  0.8722
15127TIP3    H166796   6.635   3.063  14.499  0.0309  0.3048  0.7355
15127TIP3    H266797   6.597   2.938  14.575  3.1423 -0.4187  1.1491
15128TIP3   OH266798   4.157   5.624  16.256  0.1287 -0.1340  0.2346
15128TIP3    H166799   4.142   5.559  16.325  0.3364  0.1735  0.5686
15128TIP3    H266800   4.123   5.582  16.177  0.3505 -0.6938  0.4301
15129TIP3   OH266801   2.883   2.707  16.337 -0.4663 -0.6204  0.0913
15129TIP3    H166802   2.820   2.671  16.399 -0.2595 -1.4202 -0.1609
15129TIP3    H266803   2.878   2.649  16.261 -0.2374 -0.0338 -0.3733
15130TIP3   OH266804   4.144   5.239  13.376 -0.0686  0.3478  0.3563
15130TIP3    H166805   4.078   5.195  13.322 -0.6479  1.1131  0.4321
15130TIP3    H266806   4.160   5.178  13.448 -0.9461  0.3049  0.5236
15131TIP3   OH266807   2.358   2.225  16.375 -0.3361  0.5731  0.6076
15131TIP3    H166808   2.397   2.283  16.440  0.0496  0.8961  0.0879
15131TIP3    H266809   2.285   2.183  16.422 -1.9223  3.0074  0.3862
15132TIP3   OH266810   4.904   2.576   5.802 -0.1374 -0.2840  0.2901
15132TIP3    H166811   4.894   2.569   5.897 -2.3102  1.8850  0.2841
15132TIP3    H266812   4.862   2.498   5.767  0.7405 -1.1332  1.0932
15133TIP3   OH266813   6.535   1.882  11.305  0.1761 -0.3644  0.0747
15133TIP3    H166814   6.591   1.865  11.380 -0.9908  1.4311  1.3840
15133TIP3    H266815   6.473   1.809  11.305 -0.9685  0.5722  1.9865
15134TIP3   OH266816   5.390   5.776   3.387 -0.5206 -0.0249  0.1981
15134TIP3    H166817   5.484   5.794   3.396 -1.0759  2.4125  1.5012
15134TIP3    H266818   5.371   5.715   3.458  0.1751 -1.0452 -0.4658
15135TIP3   OH266819   0.106   3.075  14.368  0.1938 -0.2477 -0.6555
15135TIP3    H166820   0.109   3.089  14.273 -2.6457  1.6159 -0.5429
15135TIP3    H266821   0.108   3.163  14.405 -3.4008 -0.6867  0.7756
15136TIP3   OH266822   3.032   1.746   2.054  0.0841 -0.1440  0.3515
15136TIP3    H166823   3.093   1.700   2.111  1.4764  3.2464  1.7515
15136TIP3    H266824   3.088   1.801   1.998 -1.5681  1.8400  0.5760
15137TIP3   OH266825   2.377   6.543  11.632 -0.2850 -0.2050 -0.0029
15137TIP3    H166826   2.298   6.594  11.649 -0.1364  0.6985 -1.8501
15137TIP3    H266827   2.415   6.583  11.554  1.7804 -0.8949  0.6201
15138TIP3   OH266828   6.766   5.836  14.640  0.0088 -0.3045  0.2006
15138TIP3    H166829   6.699   5.904  14.631 -1.0613 -1.6734 -3.4373
15138TIP3    H266830   6.829   5.856  14.571  0.2665 -2.3305 -0.1820
15139TIP3   OH266831   0.160   4.006  12.922 -1.0276 -0.0408 -0.2971
15139TIP3    H166832   0.179   3.979  13.012  0.4698  0.9650 -0.2779
15139TIP3    H266833   0.245   4.002  12.878 -1.7035 -0.2790 -1.6083
15140TIP3   OH266834   5.553   4.897   5.626 -0.2353  0.0642 -0.0919
15140TIP3    H166835   5.641   4.928   5.645  0.2812 -0.4385 -1.6015
15140TIP3    H266836   5.557   4.802   5.637 -0.5879  0.0378 -0.1670
15141TIP3   OH266837   4.440   4.750   5.762  0.0585  0.1517  0.1155
15141TIP3    H166838   4.397   4.786   5.840  1.6141 -0.9669  1.5078
15141TIP3    H266839   4.453   4.826   5.705 -3.8164  0.5408 -0.4146
15142TIP3   OH266840   4.661   2.033  12.639  0.5301  0.1474  0.4712
15142TIP3    H166841   4.687   2.091  12.567  1.6473 -1.7474 -0.6878
15142TIP3    H266842   4.742   2.020  12.689  0.1557 -0.0033  1.0416
15143TIP3   OH266843   6.127   4.976   1.330  0.3809  0.0759  0.2416
15143TIP3    H166844   6.046   4.950   1.374 -0.6136  0.5071 -1.2996
15143TIP3    H266845   6.154   4.899   1.279 -0.0392  0.5192 -0.6575
15144TIP3   OH266846   6.462   1.116  11.720 -0.3154  0.2453  0.1622
15144TIP3    H166847   6.524   1.115  11.793 -0.8795  2.4729  0.7111
15144TIP3    H266848   6.416   1.032  11.726  0.9082 -0.3596  1.2652
15145TIP3   OH266849   2.137   0.452  16.355  0.5390 -0.5937 -0.2041
15145TIP3    H166850   2.058   0.409  16.388  0.1606  0.2388 -0.0381
15145TIP3    H266851   2.137   0.431  16.261  1.0077 -1.9838  0.0976
15146TIP3   OH266852   4.859   3.516  11.772 -0.0299 -0.6342 -0.3856
15146TIP3    H166853   4.882   3.425  11.753  0.9138 -0.4254 -0.2487
15146TIP3    H266854   4.845   3.557  11.687 -0.5729 -0.9337 -0.4440
15147TIP3   OH266855   5.844   4.177  14.748 -0.3939  0.5090  0.3645
15147TIP3    H166856   5.889   4.247  14.701  1.4599 -0.7228  0.2666
15147TIP3    H266857   5.772   4.221  14.793  0.1837  2.3249 -0.4424
15148TIP3   OH266858   4.340   4.923   5.963 -1.1448  0.1967 -0.2065
15148TIP3    H166859   4.403   4.954   6.028 -1.5559  1.8610 -0.5687
15148TIP3    H266860   4.263   4.898   6.013 -0.5525 -0.9261  0.1534
15149TIP3   OH266861   0.215   6.055  14.659  0.1029  0.5280 -0.0645
15149TIP3    H166862   0.171   6.100  14.587  0.8172  2.0199  0.4311
15149TIP3    H266863   0.155   6.063  14.733  0.3496  0.8713  0.0953
15150TIP3   OH266864   5.246   1.445   5.069  0.7578  0.4198  0.8323
15150TIP3    H166865   5.155   1.471   5.055  0.6731 -0.4246 -0.2060
15150TIP3    H266866   5.293   1.528   5.083  0.2580  1.0540 -1.1532
15151TIP3   OH266867   6.086   1.271  15.069 -0.2532  0.5337 -0.8711
15151TIP3    H166868   6.025   1.271  15.142 -2.2625 -0.0209 -2.5079
15151TIP3    H266869   6.121   1.182  15.067 -0.9519  0.2654 -1.1985
15152TIP3   OH266870   3.125   4.550   1.643 -0.0850  0.1459  0.0517
15152TIP3    H166871   3.218   4.550   1.665 -0.4611 -0.5913  1.7445
15152TIP3    H266872   3.100   4.643   1.643  0.9116  0.4298 -1.6623
15153TIP3   OH266873   3.376   1.470   0.472 -0.0332  0.0053  0.3542
15153TIP3    H166874   3.414   1.434   0.552  1.9114 -0.3878 -0.6950
15153TIP3    H266875   3.433   1.544   0.451  0.2658 -0.6948 -1.3684
15154TIP3   OH266876   6.178   2.932  12.784  0.0518 -0.1387  0.6093
15154TIP3    H166877   6.218   3.011  12.746  1.1020  0.5209  3.0103
15154TIP3    H266878   6.116   2.903  12.717  2.6813  0.2830 -2.1464
15155TIP3   OH266879   3.857   0.216  13.826  0.4220 -0.0691 -0.1391
15155TIP3    H166880   3.819   0.156  13.890  0.5080 -0.0561 -0.0778
15155TIP3    H266881   3.937   0.173  13.796  0.3943 -0.0645 -0.2207
15156TIP3   OH266882   1.174   5.307   4.300  0.1951  0.4474  0.4399
15156TIP3    H166883   1.197   5.356   4.221 -2.7419 -1.9395 -2.0175
15156TIP3    H266884   1.092   5.348   4.330 -1.3974 -1.7909 -0.6986
15157TIP3   OH266885   4.579   5.017   3.813  0.1375 -0.5319  0.0905
15157TIP3    H166886   4.484   5.030   3.824  0.1143 -0.5385 -0.0916
15157TIP3    H266887   4.615   5.106   3.810 -0.0723 -0.4806 -1.5989
15158TIP3   OH266888   4.581   4.196   4.510 -0.8363  0.5123 -0.4851
15158TIP3    H166889   4.548   4.216   4.598 -2.0839  0.2924 -0.8886
15158TIP3    H266890   4.577   4.101   4.503 -0.7817  0.5306 -0.7891
15159TIP3   OH266891   4.285   0.534   0.974  0.3201 -0.0859  0.3949
15159TIP3    H166892   4.276   0.628   0.960 -1.4851 -0.1163  1.2295
15159TIP3    H266893   4.277   0.495   0.887  3.5392  0.6598 -0.2996
15160TIP3   OH266894   1.442   3.815   4.185  0.1437  0.4815  0.1231
15160TIP3    H166895   1.360   3.822   4.233 -1.6400 -1.5396 -2.4408
15160TIP3    H266896   1.462   3.905   4.159 -1.5270  0.9581  0.3979
15161TIP3   OH266897   6.524   4.609  16.699  0.0647  0.2591 -0.6195
15161TIP3    H166898   6.443   4.587  16.653 -0.5624  0.5108  0.3548
15161TIP3    H266899   6.542   4.534  16.755  1.0055 -0.1860 -1.5045
15162TIP3   OH266900   1.425   5.916   5.113 -0.3388 -0.3703  0.1745
15162TIP3    H166901   1.335   5.935   5.088 -0.7547 -1.7647  0.5885
15162TIP3    H266902   1.424   5.824   5.138  1.4461 -0.7098 -0.9418
15163TIP3   OH266903   3.074   3.739   0.095 -0.6649 -0.3739 -0.3610
15163TIP3    H166904   3.110   3.703   0.176  2.1798 -0.5380 -1.6300
15163TIP3    H266905   3.032   3.665   0.052 -0.3640 -0.7556  0.0029
15164TIP3   OH266906   0.226   0.843  13.137  0.1862 -0.1887 -0.4916
15164TIP3    H166907   0.264   0.864  13.222  2.7710 -1.5835 -1.2618
15164TIP3    H266908   0.203   0.928  13.100  1.1493  0.5868  0.6341
15165TIP3   OH266909   0.332   1.319   4.003  0.3689 -0.0480 -0.2020
15165TIP3    H166910   0.286   1.394   3.966 -1.1415  0.1445  1.9817
15165TIP3    H266911   0.272   1.245   3.990 -1.0656  0.3466  3.3530
15166TIP3   OH266912   2.201   1.043   3.272  0.1709 -0.6671 -0.1698
15166TIP3    H166913   2.188   1.099   3.195  0.8504 -1.1768 -0.6574
15166TIP3    H266914   2.183   1.100   3.347 -2.4942 -0.6617 -0.7327
15167TIP3   OH266915   3.724   3.685  13.987  0.2440 -0.3146  0.7716
15167TIP3    H166916   3.734   3.637  13.905 -0.5103 -2.0836  1.6922
15167TIP3    H266917   3.653   3.640  14.032 -0.8060  1.9842  1.4595
15168TIP3   OH266918   5.417   5.750   4.199  0.3747 -0.3678 -0.1058
15168TIP3    H166919   5.508   5.776   4.212  0.1818  0.7122 -0.9041
15168TIP3    H266920   5.400   5.766   4.106 -1.0572  0.7887  0.3417
15169TIP3   OH266921   3.411   2.672  12.912 -0.1953 -0.1823 -0.0153
15169TIP3    H166922   3.432   2.602  12.851 -0.3855 -0.7958  0.6254
15169TIP3    H266923   3.327   2.648  12.950 -1.5458  1.6859 -1.7092
15170TIP3   OH266924   0.990   3.889   1.682  0.7727 -0.0492  0.7190
15170TIP3    H166925   1.077   3.925   1.702  1.0047 -0.3889  0.3362
15170TIP3    H266926   1.008   3.811   1.629  0.2015  0.6520 -0.5494
15171TIP3   OH266927   0.917   4.478  13.766  0.1500  0.2871  0.3993
15171TIP3    H166928   1.011   4.474  13.750  0.4500  0.3528  2.0668
15171TIP3    H266929   0.877   4.451  13.684  1.6400 -0.7688  0.0158
15172TIP3   OH266930   4.353   2.478  13.502  0.2168  0.3341  0.3357
15172TIP3    H166931   4.377   2.557  13.550  0.5158 -0.7719  2.0807
15172TIP3    H266932   4.297   2.508  13.431  1.2802  2.2294  0.2681
15173TIP3   OH266933   1.610   6.436  11.012  0.6580 -0.0739  0.5409
15173TIP3    H166934   1.695   6.473  10.990 -0.1785  1.3958 -0.2803
15173TIP3    H266935   1.582   6.392  10.931  0.0431  0.5970  0.3870
15174TIP3   OH266936   4.436   3.976  13.390 -0.3907  0.2799  0.0593
15174TIP3    H166937   4.445   4.051  13.331  0.0521 -0.9285 -1.4473
15174TIP3    H266938   4.494   3.996  13.463 -0.1444  1.3289 -0.4144
15175TIP3   OH266939   3.614   4.981   3.023 -0.2849 -0.0904  0.5552
15175TIP3    H166940   3.647   5.029   2.947  0.7086  0.3832  1.2906
15175TIP3    H266941   3.658   4.896   3.018 -0.5059 -0.1955  0.3915
15176TIP3   OH266942   6.648   0.710   4.505 -0.1847 -0.1350  0.0943
15176TIP3    H166943   6.649   0.661   4.587  1.3486 -1.1387 -0.4783
15176TIP3    H266944   6.606   0.793   4.526  0.5728 -0.2126  1.9926
15177TIP3   OH266945   5.846   3.375  17.188 -0.3048 -0.3162  0.0191
15177TIP3    H166946   5.881   3.457  17.224 -2.0122  0.2600  0.4162
15177TIP3    H266947   5.773   3.402  17.132 -1.0618 -1.5881  0.3714
15178TIP3   OH266948   3.274   1.468   3.425 -0.2722 -0.5332  0.2078
15178TIP3    H166949   3.227   1.403   3.372 -1.3775  0.9694 -0.7123
15178TIP3    H266950   3.281   1.427   3.511  0.0445 -2.3286 -0.6359
15179TIP3   OH266951   3.742   0.934   5.556 -0.2346 -0.8772  0.1888
15179TIP3    H166952   3.822   0.984   5.567 -1.9452  2.4164 -1.4696
15179TIP3    H266953   3.716   0.908   5.645  1.6940 -0.4740  0.8764
15180TIP3   OH266954   5.475   1.003   3.322 -0.1395  0.0272 -0.4139
15180TIP3    H166955   5.416   1.049   3.262 -0.4325  1.9467  1.2707
15180TIP3    H266956   5.562   1.038   3.301  0.2135 -1.6169 -1.8053
15181TIP3   OH266957   3.482   5.762   5.041 -0.3248  0.2049 -0.6945
15181TIP3    H166958   3.456   5.852   5.062 -1.2018  0.3781 -2.4046
15181TIP3    H266959   3.566   5.771   4.997  0.1884  0.0783  0.2560
15182TIP3   OH266960   3.471   6.787  13.972 -0.1980 -0.1511  0.4953
15182TIP3    H166961   3.446   6.716  13.913  0.1606  0.1647 -0.0398
15182TIP3    H266962   3.441   6.758  14.058 -2.5478  0.3024 -0.1434
15183TIP3   OH266963   2.324   2.622  11.059 -0.0449 -0.1402 -0.3535
15183TIP3    H166964   2.376   2.555  11.014 -0.4358 -1.0577  0.5356
15183TIP3    H266965   2.243   2.628  11.007  0.3074  0.2020 -0.8709
15184TIP3   OH266966   6.492   5.504  14.340 -0.2081  0.0877  0.4994
15184TIP3    H166967   6.404   5.520  14.375 -0.2328 -0.8581  0.8927
15184TIP3    H266968   6.551   5.528  14.412 -0.0877  1.8210 -0.1619
15185TIP3   OH266969   1.315   2.611   3.368 -0.3647  0.2925 -0.3011
15185TIP3    H166970   1.261   2.592   3.292 -0.4309 -1.5343  0.1748
15185TIP3    H266971   1.253   2.641   3.435 -0.4333  0.8459 -0.6042
15186TIP3   OH266972   1.280   2.097  12.551  0.6674  0.7006 -0.1135
15186TIP3    H166973   1.249   2.060  12.634  2.1527  0.2453  0.2532
15186TIP3    H266974   1.253   2.189  12.554  0.5503  0.6421  0.7958
15187TIP3   OH266975   4.632   5.424  15.497 -0.2887 -0.2745  0.2907
15187TIP3    H166976   4.697   5.367  15.456 -0.1092 -0.0018  0.1949
15187TIP3    H266977   4.553   5.413  15.443  0.2937  0.9957 -0.8683
15188TIP3   OH266978   2.249   4.398   5.163  0.3500 -0.0640  0.4067
15188TIP3    H166979   2.197   4.391   5.243 -1.1692 -1.9400 -0.7040
15188TIP3    H266980   2.329   4.442   5.191 -1.6102  2.5265  2.2477
15189TIP3   OH266981   4.752   6.160   5.748  0.2099 -0.3041 -0.1237
15189TIP3    H166982   4.765   6.065   5.757  1.8020 -0.3743 -2.7138
15189TIP3    H266983   4.799   6.197   5.822  2.7193 -1.4053 -1.0783
15190TIP3   OH266984   1.904   2.351  13.437  0.7728  0.3649 -0.4276
15190TIP3    H166985   1.833   2.393  13.390  1.3637  0.5332 -1.1765
15190TIP3    H266986   1.917   2.266  13.393  0.9504  0.2839 -0.2241
15191TIP3   OH266987   0.992   5.958   4.567 -0.6552 -0.8856  0.2746
15191TIP3    H166988   1.040   6.018   4.511  0.9655 -2.1081  0.3100
15191TIP3    H266989   0.965   6.011   4.643  2.5084 -0.6586  1.2885
15192TIP3   OH266990   2.245   1.702   2.437  0.0534  0.0949 -0.0906
15192TIP3    H166991   2.251   1.665   2.349 -1.4456  0.0485 -0.1858
15192TIP3    H266992   2.154   1.689   2.463  0.7406 -0.9268  1.9367
15193TIP3   OH266993   4.051   0.111   2.606 -0.3857 -0.3154 -0.1899
15193TIP3    H166994   4.012   0.181   2.552 -0.7372 -0.8018 -0.5695
15193TIP3    H266995   3.977   0.077   2.657 -0.1822 -0.3005  0.1097
15194TIP3   OH266996   0.191   1.820   4.929  0.5383  0.2451 -0.9322
15194TIP3    H166997   0.114   1.816   4.873 -1.3235 -2.0826  1.6262
15194TIP3    H266998   0.230   1.733   4.923  1.5318  0.6355 -0.2659
15195TIP3   OH266999   5.135   6.638  13.607 -0.2762 -0.0260  0.1344
15195TIP3    H167000   5.113   6.586  13.685 -1.3864 -0.8543 -0.7107
15195TIP3    H267001   5.155   6.725  13.642 -0.7763 -0.3783  1.3564
15196TIP3   OH267002   4.259   0.894   2.645  0.3463 -0.4206  0.1640
15196TIP3    H167003   4.207   0.869   2.721  0.4032 -0.2096  0.2738
15196TIP3    H267004   4.318   0.962   2.678  0.0104  0.0482 -0.1819
15197TIP3   OH267005   4.544   2.394   4.405  0.1701  0.0099  0.3909
15197TIP3    H167006   4.522   2.473   4.355  0.5933 -1.2399 -1.8332
15197TIP3    H267007   4.498   2.324   4.359  2.0107 -1.4222  0.6929
15198TIP3   OH267008   3.476   6.698   3.135 -0.0713  0.4317 -0.3538
15198TIP3    H167009   3.555   6.671   3.181 -0.1459 -0.0392 -0.4985
15198TIP3    H267010   3.437   6.765   3.191  0.7796  1.1496 -0.6023
15199TIP3   OH267011   6.123   4.800  14.250  0.1362  0.1463 -0.2330
15199TIP3    H167012   6.200   4.749  14.224  0.3618  0.4215 -0.0972
15199TIP3    H267013   6.145   4.890  14.226 -0.6296  0.0547 -1.3303
15200TIP3   OH267014   5.508   1.502   4.773 -0.1197  0.1762 -0.2139
15200TIP3    H167015   5.457   1.582   4.763 -0.4090 -0.0922 -0.9262
15200TIP3    H267016   5.540   1.504   4.864  0.2335  1.3048 -0.3606
15201TIP3   OH267017   3.056   2.592   5.898 -0.2541  0.2394  0.7924
15201TIP3    H167018   3.077   2.508   5.856 -1.5182 -0.2538  1.1207
15201TIP3    H267019   3.061   2.572   5.992 -1.3149  0.3308  0.8713
15202TIP3   OH267020   6.272   1.455  11.517 -0.8393 -0.6420 -0.4769
15202TIP3    H167021   6.353   1.406  11.533  0.2057  0.9502 -0.7849
15202TIP3    H267022   6.247   1.489  11.603 -2.6108 -3.2514  0.0818
15203TIP3   OH267023   0.401   6.585   5.391  0.1388  0.3970 -0.2742
15203TIP3    H167024   0.366   6.601   5.303 -1.9697 -0.4145  0.3677
15203TIP3    H267025   0.400   6.670   5.434 -1.6457  0.2987 -0.0895
15204TIP3   OH267026   4.528   5.746   4.118 -0.0198  0.3234  0.2267
15204TIP3    H167027   4.482   5.678   4.069 -1.8021  1.6139  0.0444
15204TIP3    H267028   4.527   5.823   4.061 -0.9609  1.4619  1.7025
15205TIP3   OH267029   5.895   5.730  11.584 -0.3122 -0.2215  0.7667
15205TIP3    H167030   5.856   5.661  11.637 -3.4458 -0.2782 -1.4962
15205TIP3    H267031   5.831   5.801  11.585  0.3003  0.4147 -1.5866
15206TIP3   OH267032   2.111   1.735  15.356 -0.2748  0.2518  0.4896
15206TIP3    H167033   2.131   1.657  15.408 -0.1224 -0.6061 -0.8252
15206TIP3    H267034   2.122   1.808  15.416  0.3608 -0.6945  1.5286
15207TIP3   OH267035   1.779   5.423   4.997  0.8894 -0.3889 -0.0402
15207TIP3    H167036   1.685   5.418   5.012  0.5810  1.6572 -1.1345
15207TIP3    H267037   1.791   5.392   4.907  1.1982 -0.2431 -0.0508
15208TIP3   OH267038   4.208   3.206  14.366 -0.0364 -0.3140  0.4169
15208TIP3    H167039   4.190   3.287  14.413 -0.1758 -0.8038  1.2151
15208TIP3    H267040   4.216   3.232  14.274 -1.4145  0.4098  0.4953
15209TIP3   OH267041   4.214   4.427  11.494  0.1584 -0.4604 -0.1725
15209TIP3    H167042   4.226   4.370  11.569 -1.0941  2.4762  2.3552
15209TIP3    H267043   4.142   4.388  11.445  0.4109 -1.9282  0.6164
15210TIP3   OH267044   4.074   5.439   3.268  0.5500 -0.3407 -0.7391
15210TIP3    H167045   4.115   5.497   3.205  1.7782  0.1350  0.4723
15210TIP3    H267046   4.028   5.374   3.214  1.1913  0.3142 -2.1026
15211TIP3   OH267047   6.261   2.732   0.859 -0.6722 -0.1530 -0.0654
15211TIP3    H167048   6.173   2.723   0.894 -0.7501 -0.9388 -0.4352
15211TIP3    H267049   6.250   2.776   0.775 -0.6355  0.4053  0.2204
15212TIP3   OH267050   5.448   0.791  13.097  0.5827 -0.1939 -0.8725
15212TIP3    H167051   5.496   0.855  13.150 -0.2816  0.2291 -0.5887
15212TIP3    H267052   5.508   0.717  13.089  0.2285 -0.8142  1.8532
15213TIP3   OH267053   5.400   4.613  16.363  0.3780  0.1216  0.0223
15213TIP3    H167054   5.368   4.702  16.352 -0.1740  0.1421  1.6433
15213TIP3    H267055   5.327   4.566  16.403  0.4709 -1.1981 -1.3189
15214TIP3   OH267056   5.830   3.778  16.081  0.6354 -0.0851  0.1301
15214TIP3    H167057   5.873   3.770  16.167  0.9147 -0.0339 -0.0005
15214TIP3    H267058   5.824   3.873  16.067 -1.1280 -0.0597  0.9397
15215TIP3   OH267059   2.699   3.296   3.227  0.0135 -0.4568 -0.4742
15215TIP3    H167060   2.696   3.201   3.215  0.8219 -0.4009 -1.1888
15215TIP3    H267061   2.612   3.319   3.257 -0.9523 -1.1210 -2.6349
15216TIP3   OH267062   1.209   6.731  11.442 -0.4069 -0.2441  0.2865
15216TIP3    H167063   1.271   6.770  11.503  0.5647  0.7377 -1.3092
15216TIP3    H267064   1.236   6.639  11.437  0.5809  0.0556  0.0136
15217TIP3   OH267065   5.570   2.675  15.043  0.5713 -0.1691 -0.3592
15217TIP3    H167066   5.591   2.627  14.963  1.1010 -0.8960  0.2033
15217TIP3    H267067   5.546   2.607  15.106 -0.3169  0.4298 -0.0375
15218TIP3   OH267068   5.464   0.963  12.411  0.7449 -0.2569 -0.4552
15218TIP3    H167069   5.542   0.950  12.358 -0.2822 -0.1844 -1.9981
15218TIP3    H267070   5.476   1.049  12.452  1.0343  0.1654 -1.4390
15219TIP3   OH267071   6.744   4.619  15.840  0.1032  0.4714  0.2354
15219TIP3    H167072   6.732   4.578  15.754  0.1962 -0.7167  0.7729
15219TIP3    H267073   6.834   4.651  15.839  0.0998  0.4669 -0.1125
15220TIP3   OH267074   6.026   4.746  11.482 -0.9968  0.1383 -0.8878
15220TIP3    H167075   6.047   4.803  11.556  0.4969  0.2824 -1.3990
15220TIP3    H267076   5.971   4.800  11.425 -1.1947  0.4152 -0.4351
15221TIP3   OH267077   6.305   1.795  14.298 -0.4029 -0.3785 -0.3960
15221TIP3    H167078   6.214   1.805  14.273 -0.3849 -1.4534 -0.9462
15221TIP3    H267079   6.345   1.746  14.226  0.8099  0.8151 -0.5681
15222TIP3   OH267080   2.356   1.409   0.192  0.2018  0.2885 -0.3399
15222TIP3    H167081   2.305   1.372   0.265 -0.2920 -0.3009 -0.9718
15222TIP3    H267082   2.353   1.503   0.206 -0.8818  0.2462 -0.2334
15223TIP3   OH267083   2.522   6.615   3.327 -0.4385 -0.2524 -0.6229
15223TIP3    H167084   2.605   6.567   3.319 -0.4743 -0.3116 -0.6373
15223TIP3    H267085   2.543   6.689   3.384  0.1291  0.8735 -2.2389
15224TIP3   OH267086   6.707   0.026   4.135 -0.2010  0.2081  1.0844
15224TIP3    H167087   6.616   0.011   4.158 -0.4516 -0.1070 -0.0502
15224TIP3    H267088   6.705   0.044   4.041  0.6172  2.8287  1.5277
15225TIP3   OH267089   2.486   2.793   3.077 -0.4561 -0.1521 -0.3384
15225TIP3    H167090   2.452   2.850   3.007  3.0200  0.7170 -1.3844
15225TIP3    H267091   2.562   2.750   3.039  2.5073  1.5284  3.4026
15226TIP3   OH267092   0.633   0.123   0.459 -0.0941 -0.0574 -0.0443
15226TIP3    H167093   0.720   0.085   0.445 -0.2795 -0.3658 -0.3634
15226TIP3    H267094   0.572   0.055   0.432 -0.4502 -0.1182  0.9097
15227TIP3   OH267095   3.604   0.008  14.687 -0.1675  0.0214 -0.3457
15227TIP3    H167096   3.554   0.077  14.643 -0.2973 -0.5108 -1.0513
15227TIP3    H267097   3.553  -0.014  14.765 -0.4503  0.2740 -0.4611
15228TIP3   OH267098   6.273   0.737  15.951 -0.2668 -0.1935  0.1005
15228TIP3    H167099   6.256   0.782  16.034 -0.4567 -0.5750  0.2721
15228TIP3    H267100   6.234   0.651  15.963  1.3881 -0.9271  0.3240
15229TIP3   OH267101   0.876   3.584  16.941 -0.3029  0.1687  0.2163
15229TIP3    H167102   0.890   3.605  17.034 -1.9908  1.5858  0.1776
15229TIP3    H267103   0.849   3.492  16.942  1.2825 -0.3183  0.9537
15230TIP3   OH267104   1.109   2.902   2.348  0.2110 -0.0245 -0.1465
15230TIP3    H167105   1.049   2.921   2.276 -1.1703  1.7859  1.4408
15230TIP3    H267106   1.167   2.977   2.351  0.5550 -0.3113  0.3412
15231TIP3   OH267107   6.133   0.269  16.038 -0.1815  0.0382  0.4370
15231TIP3    H167108   6.219   0.228  16.034 -0.6769 -1.0170  0.3592
15231TIP3    H267109   6.121   0.292  16.130 -0.4872 -1.2875  0.7341
15232TIP3   OH267110   4.163   0.851  11.292  0.4034 -0.6289  0.3224
15232TIP3    H167111   4.175   0.779  11.353  0.9393  0.4287  1.5036
15232TIP3    H267112   4.240   0.907  11.306  1.3350 -1.1584 -2.4483
15233TIP3   OH267113   0.147   3.625  15.293 -0.0062 -0.1646 -0.2347
15233TIP3    H167114   0.214   3.692  15.282  0.0431 -0.3132 -0.8701
15233TIP3    H267115   0.172   3.556  15.232 -0.3010 -0.5685  0.0948
15234TIP3   OH267116   0.270   3.176  14.713  0.3344 -0.3126 -0.7249
15234TIP3    H167117   0.221   3.106  14.669 -2.7710  2.4879 -1.9842
15234TIP3    H267118   0.326   3.212  14.645 -0.8394  0.8157 -1.1159
15235TIP3   OH267119   5.427   2.384  17.194  0.4676 -0.4884  0.1446
15235TIP3    H167120   5.410   2.391  17.100  2.2289 -0.8291 -0.2114
15235TIP3    H267121   5.343   2.405  17.235 -1.2299 -3.5362 -1.5796
15236TIP3   OH267122   3.241   2.641   1.164  0.1187  0.6008  0.0305
15236TIP3    H167123   3.161   2.675   1.124  0.8915 -0.6442 -2.7393
15236TIP3    H267124   3.306   2.644   1.093  0.8314 -4.2836  0.3122
15237TIP3   OH267125   3.283   6.618  16.980 -0.2007  0.3671  0.4272
15237TIP3    H167126   3.263   6.531  16.945  1.5033 -0.2018  0.8374
15237TIP3    H267127   3.239   6.678  16.920  1.0245 -0.6628 -1.5665
15238TIP3   OH267128   3.429   3.149   3.147  0.0197 -0.1501 -0.0194
15238TIP3    H167129   3.361   3.202   3.107  0.5048  0.5305  0.0523
15238TIP3    H267130   3.386   3.067   3.169 -1.2709  0.9839  1.8008
15239TIP3   OH267131   5.723   5.332  13.716 -0.0116  0.6268  0.1742
15239TIP3    H167132   5.682   5.246  13.709  0.9904  0.1842 -0.4173
15239TIP3    H267133   5.705   5.361  13.806  0.1184 -0.4444  0.5500
15240TIP3   OH267134   5.402   2.245   3.144 -0.4332  0.1585 -0.0751
15240TIP3    H167135   5.426   2.325   3.191  0.8930 -0.7437  0.7836
15240TIP3    H267136   5.306   2.245   3.146 -0.4238  1.0784  1.0362
15241TIP3   OH267137   2.661   0.465   1.151 -0.3202  0.1685 -0.1966
15241TIP3    H167138   2.745   0.422   1.167 -0.1230  0.4331 -0.5298
15241TIP3    H267139   2.596   0.399   1.175 -0.0137 -0.5080 -1.2304
15242TIP3   OH267140   3.119   5.109  12.226  0.1504  0.2294 -0.9918
15242TIP3    H167141   3.214   5.101  12.217  0.3887  1.1569  0.7072
15242TIP3    H267142   3.105   5.139  12.315 -1.6723  1.4843 -1.6672
15243TIP3   OH267143   5.592   4.603   5.414  0.3773 -0.4233 -0.3052
15243TIP3    H167144   5.649   4.678   5.400  0.1920 -0.1079  0.6267
15243TIP3    H267145   5.606   4.578   5.505 -2.5444  0.9902  0.6171
15244TIP3   OH267146   4.057   1.873  16.712  0.5583  0.4925 -0.1275
15244TIP3    H167147   4.021   1.861  16.625 -1.0176  0.1827  0.5607
15244TIP3    H267148   3.981   1.873  16.770  1.6497 -0.1474  1.3292
15245TIP3   OH267149   1.599   6.301   5.647  0.4541 -0.5810  0.1220
15245TIP3    H167150   1.572   6.377   5.699  2.7695  0.0233  0.4909
15245TIP3    H267151   1.554   6.312   5.563  0.1166  0.7644  0.4755
15246TIP3   OH267152   0.143   4.057  16.090 -0.5913  0.0969 -0.1214
15246TIP3    H167153   0.077   4.118  16.056 -0.5260  0.0102 -0.3994
15246TIP3    H267154   0.158   4.087  16.180  1.9156  2.5942 -1.2825
15247TIP3   OH267155   4.396   3.720  14.193  1.1039  0.4235  0.3342
15247TIP3    H167156   4.443   3.803  14.188  0.4582  0.7391 -0.5574
15247TIP3    H267157   4.355   3.710  14.107  0.3411 -0.3157  0.7731
15248TIP3   OH267158   2.544   3.380  13.941 -0.3309  0.1062  0.4998
15248TIP3    H167159   2.540   3.474  13.928  0.4429  0.1994  0.8962
15248TIP3    H267160   2.580   3.370  14.029  0.1451 -0.5692  0.2288
15249TIP3   OH267161   1.932   2.221  15.274  0.2829 -0.1317  0.2844
15249TIP3    H167162   1.988   2.191  15.345  0.3964  0.5612  0.4917
15249TIP3    H267163   1.895   2.303  15.306 -1.0970 -0.7354  0.2823
15250TIP3   OH267164   6.147   6.340   2.009  0.0694  0.1385 -0.3634
15250TIP3    H167165   6.075   6.300   2.058 -0.0106  0.9504  0.2026
15250TIP3    H267166   6.161   6.282   1.935 -1.0706 -0.1183 -0.3959
15251TIP3   OH267167   0.058   0.376   0.644  0.5395 -0.2174 -0.2805
15251TIP3    H167168   0.063   0.435   0.719 -1.4301 -1.2140  0.6712
15251TIP3    H267169   0.136   0.321   0.652  1.5812  1.2201 -0.3123
15252TIP3   OH267170   4.005   0.058   5.260 -0.3385 -0.2902 -0.1931
15252TIP3    H167171   4.100   0.048   5.260 -0.4677 -1.9345 -2.2643
15252TIP3    H267172   3.974  -0.011   5.319 -0.3062 -0.7756 -0.7334
15253TIP3   OH267173   5.441   0.199  15.771  0.7160 -0.2462  0.8069
15253TIP3    H167174   5.348   0.193  15.793 -0.0137 -0.1332 -2.1068
15253TIP3    H267175   5.471   0.277  15.818 -0.8214  0.1081  1.2457
15254TIP3   OH267176   5.591   6.423   4.165  0.2347 -0.6782 -0.4283
15254TIP3    H167177   5.587   6.397   4.257  0.4944  0.6593 -0.0278
15254TIP3    H267178   5.509   6.391   4.127 -1.8010  2.3565  1.2289
15255TIP3   OH267179   4.027   5.685  16.969  0.4545  0.1264  0.1272
15255TIP3    H167180   4.107   5.675  17.020  0.1808  1.8798  0.9430
15255TIP3    H267181   3.958   5.654  17.027  0.1640  1.9512  0.8059
15256TIP3   OH267182   0.908   4.877  12.279  0.1416  0.8083 -0.0993
15256TIP3    H167183   0.904   4.943  12.348 -0.4829 -2.0132  2.6537
15256TIP3    H267184   0.820   4.839  12.277  0.3757  0.2983 -1.9251
15257TIP3   OH267185   5.488   1.886  15.099 -0.1016  0.2535 -0.3886
15257TIP3    H167186   5.416   1.833  15.066  0.1952 -0.0037 -0.6303
15257TIP3    H267187   5.558   1.823  15.116  0.3040  0.5916 -0.8201
15258TIP3   OH267188   3.285   1.295  12.750 -0.0734 -0.0799 -0.1828
15258TIP3    H167189   3.361   1.324  12.800 -0.5167  3.4782 -1.4408
15258TIP3    H267190   3.212   1.304  12.811  0.2226 -1.7894  0.4570
15259TIP3   OH267191   3.140   2.190  13.755  0.0631  0.1009 -0.1726
15259TIP3    H167192   3.165   2.098  13.746  1.2682  0.4573 -0.5543
15259TIP3    H267193   3.079   2.205  13.683 -0.5659 -0.5314  0.2171
15260TIP3   OH267194   1.122   4.968   0.664 -0.7780  0.7307  0.0796
15260TIP3    H167195   1.068   4.945   0.740 -0.6585 -0.9707 -0.3365
15260TIP3    H267196   1.204   4.999   0.701  0.9210 -4.1261  0.6631
15261TIP3   OH267197   5.196   3.721   1.809 -0.4562  0.0760  0.4416
15261TIP3    H167198   5.177   3.788   1.874 -0.4769 -0.7824  1.3401
15261TIP3    H267199   5.133   3.651   1.827 -0.6112 -0.0753 -0.6494
15262TIP3   OH267200   5.072   3.170   6.172  0.0940 -0.2388 -1.0837
15262TIP3    H167201   4.979   3.186   6.189  0.1368 -1.2646  0.1693
15262TIP3    H267202   5.073   3.091   6.117  0.2081 -0.0170 -1.4007
15263TIP3   OH267203   4.992   2.121   3.502 -0.4443  0.1488  0.0180
15263TIP3    H167204   5.081   2.091   3.522 -0.1918  0.3972 -0.7325
15263TIP3    H267205   4.996   2.216   3.511 -1.0024  0.0601  1.4224
15264TIP3   OH267206   6.602   4.999   1.788  0.3186 -0.1789  0.5195
15264TIP3    H167207   6.677   5.034   1.740  0.7160 -1.7723 -0.0751
15264TIP3    H267208   6.530   5.000   1.725  0.3474 -0.4807  0.4814
15265TIP3   OH267209   1.463   5.076  15.072  0.1598 -0.7359 -0.1892
15265TIP3    H167210   1.441   5.106  14.983  3.4038  0.1875 -0.7443
15265TIP3    H267211   1.448   5.153  15.127 -0.9292 -1.0293 -0.0591
15266TIP3   OH267212   3.506   2.474  16.795 -0.3164  1.1511 -0.2614
15266TIP3    H167213   3.551   2.552  16.766 -1.2267  1.4530 -0.8960
15266TIP3    H267214   3.573   2.405  16.795  0.5215  1.9588  0.4605
15267TIP3   OH267215   1.783   3.762  16.185  0.2878 -0.3682  0.1892
15267TIP3    H167216   1.756   3.806  16.266 -0.6479  0.1974 -0.4153
15267TIP3    H267217   1.877   3.778  16.179  0.7132 -1.9312  2.0727
15268TIP3   OH267218   6.483   0.963  12.600 -0.4683  0.0524  0.0665
15268TIP3    H167219   6.420   1.031  12.574  1.2959  1.0853 -1.6186
15268TIP3    H267220   6.500   0.980  12.693  0.0867  2.0447 -0.3749
15269TIP3   OH267221   0.707   4.229   2.668  0.1043 -0.3966 -0.5337
15269TIP3    H167222   0.723   4.172   2.593  2.1455 -0.3408 -0.1473
15269TIP3    H267223   0.640   4.183   2.719 -0.3810 -1.0345 -1.7126
15270TIP3   OH267224   1.238   4.091   0.824 -0.0429  0.0775 -0.1708
15270TIP3    H167225   1.287   4.157   0.774 -0.8913  0.4710 -0.4958
15270TIP3    H267226   1.236   4.014   0.767  3.3446 -1.2030  1.3382
15271TIP3   OH267227   2.040   2.788  14.844  0.7294  0.0924  0.0485
15271TIP3    H167228   1.964   2.821  14.893  0.7765 -0.2174  0.3349
15271TIP3    H267229   2.005   2.763  14.759  0.2145 -1.4263  0.6727
15272TIP3   OH267230   3.742   6.334  14.238  0.0755 -0.1465  0.1018
15272TIP3    H167231   3.713   6.424  14.224  0.5362 -0.1864 -1.1900
15272TIP3    H267232   3.662   6.281  14.227  0.4014 -0.1705 -2.4877
15273TIP3   OH267233   5.703   5.820   5.846  0.5945  0.2986  0.0757
15273TIP3    H167234   5.652   5.882   5.900 -1.4252 -0.5536 -0.7891
15273TIP3    H267235   5.726   5.749   5.906  0.1772  0.3711  0.3229
15274TIP3   OH267236   4.170   2.720  16.231  0.3031 -0.7780  0.8472
15274TIP3    H167237   4.141   2.786  16.167  0.5457 -0.7557  0.7579
15274TIP3    H267238   4.231   2.665  16.181  1.9506  0.3720  1.5418
15275TIP3   OH267239   1.917   0.594  16.042 -0.3449  0.0570  0.6381
15275TIP3    H167240   2.008   0.621  16.055 -0.5122  1.1972 -0.4773
15275TIP3    H267241   1.909   0.579  15.948 -1.5455  0.8822  0.5949
15276TIP3   OH267242   5.711   5.928  16.025  0.7340  0.3476 -0.3216
15276TIP3    H167243   5.711   5.833  16.021 -0.5498  0.3080  0.4008
15276TIP3    H267244   5.627   5.954  15.986  0.0804  1.0787  1.5084
15277TIP3   OH267245   6.509   2.229   5.401 -0.2745 -0.2183 -0.5385
15277TIP3    H167246   6.526   2.163   5.334  0.4890 -1.8162  1.1876
15277TIP3    H267247   6.575   2.296   5.386 -0.8419  0.0055 -2.0951
15278TIP3   OH267248   0.941   1.689  14.918 -0.7395  0.0533  0.5677
15278TIP3    H167249   0.939   1.781  14.891  0.1699 -0.0376  0.1765
15278TIP3    H267250   0.918   1.691  15.012  0.1265  0.7588  0.7677
15279TIP3   OH267251   0.555   0.750  16.198 -0.0969  0.3173  0.3338
15279TIP3    H167252   0.618   0.698  16.248 -1.2111 -0.2322  1.2102
15279TIP3    H267253   0.479   0.693  16.189  0.5905 -0.1135 -3.2516
15280TIP3   OH267254   0.941   4.225   4.122  0.4723 -0.0102  0.2628
15280TIP3    H167255   0.963   4.151   4.178  0.2906  1.4297  2.3360
15280TIP3    H267256   0.845   4.226   4.120  0.4780 -0.0825 -0.1266
15281TIP3   OH267257   4.957   6.020   5.364 -0.2293  0.6529 -0.1413
15281TIP3    H167258   4.895   5.947   5.361  1.1303 -0.5254 -0.1138
15281TIP3    H267259   5.038   5.981   5.395  0.8127  1.9755 -1.1582
15282TIP3   OH267260   0.204   4.584   2.543 -0.0112 -0.4941  0.1648
15282TIP3    H167261   0.177   4.515   2.603 -2.1940 -0.1055 -0.3279
15282TIP3    H267262   0.147   4.658   2.564  0.8279  0.4410 -0.7701
15283TIP3   OH267263   2.989   2.255  11.424  0.2279  0.6226  0.1369
15283TIP3    H167264   2.958   2.344  11.438 -1.8827 -0.1884  0.7591
15283TIP3    H267265   2.934   2.220  11.354 -0.3874 -0.8722  1.3261
15284TIP3   OH267266   3.455   1.481  13.225  0.0553 -0.4772 -0.5148
15284TIP3    H167267   3.518   1.432  13.172  0.9664 -0.1184  0.2227
15284TIP3    H267268   3.508   1.544  13.273 -0.8951 -0.0526 -0.0121
15285TIP3   OH267269   0.504   0.494   2.716 -0.5005  0.6498 -0.1236
15285TIP3    H167270   0.544   0.542   2.644  0.8774  1.0796  0.9066
15285TIP3    H267271   0.437   0.552   2.750 -0.3393  0.9351 -0.2954
15286TIP3   OH267272   3.967   3.794   2.896  0.1490 -0.3782  0.2072
15286TIP3    H167273   4.010   3.723   2.943  1.3151 -1.2499 -2.0915
15286TIP3    H267274   4.006   3.792   2.809 -0.6400  2.3530 -0.2522
15287TIP3   OH267275   2.496   1.346  13.565  0.1922  0.1563  0.4643
15287TIP3    H167276   2.447   1.370  13.486 -0.7265 -1.3455  0.5606
15287TIP3    H267277   2.550   1.271  13.537  0.3236  0.0146  1.1033
15288TIP3   OH267278   1.784   5.054   3.510 -0.3811 -0.4400 -0.0508
15288TIP3    H167279   1.877   5.049   3.532 -0.9017 -1.0252  2.1931
15288TIP3    H267280   1.771   4.983   3.447  0.8394  0.1711 -1.0119
15289TIP3   OH267281   5.708   6.120   3.325  0.0286  0.1077  0.2205
15289TIP3    H167282   5.675   6.051   3.268  0.4367 -1.1346  1.4587
15289TIP3    H267283   5.650   6.119   3.401  0.2359  0.9171  0.4031
15290TIP3   OH267284   1.909   0.050  15.711 -0.2815  0.2533  0.2048
15290TIP3    H167285   1.954  -0.012  15.770  0.4810 -0.2177 -0.8602
15290TIP3    H267286   1.953   0.039  15.627 -0.9338  1.4064 -0.2930
15291TIP3   OH267287   0.308   2.924  13.978 -0.4983  0.2157  0.1309
15291TIP3    H167288   0.331   3.016  13.993  0.4320 -0.2560  1.7827
15291TIP3    H267289   0.374   2.875  14.028 -1.1741 -1.3400 -0.4819
15292TIP3   OH267290   5.111   6.235   0.405 -0.1069  0.0061  0.7780
15292TIP3    H167291   5.046   6.301   0.381 -0.8674 -0.5381  1.2973
15292TIP3    H267292   5.065   6.178   0.467  0.0966 -1.7517 -0.6089
15293TIP3   OH267293   5.997   2.251  13.234 -0.3197 -0.4212  0.3311
15293TIP3    H167294   5.924   2.297  13.276 -1.1797  0.1368 -1.7298
15293TIP3    H267295   6.062   2.319  13.218 -0.4412 -0.4223 -0.1906
15294TIP3   OH267296   1.902   1.621   3.385  0.2209  0.7495 -0.4506
15294TIP3    H167297   1.863   1.592   3.303 -1.6706  2.0970 -0.0453
15294TIP3    H267298   1.862   1.706   3.403 -0.1172  0.0590  2.3322
15295TIP3   OH267299   3.366   6.680  14.202 -0.1150 -0.3684 -0.1614
15295TIP3    H167300   3.326   6.695  14.287  0.7647 -0.8946  0.3590
15295TIP3    H267301   3.299   6.634  14.151 -1.5475  2.1100 -0.6057
15296TIP3   OH267302   4.549   4.295   6.941 -0.0192  0.1171 -0.1400
15296TIP3    H167303   4.511   4.226   6.994 -2.0699  1.0469 -0.3316
15296TIP3    H267304   4.565   4.254   6.856  1.3555 -0.8280  0.5657
15297TIP3   OH267305   5.173   0.005  12.957  0.4480 -0.2252 -0.4586
15297TIP3    H167306   5.106  -0.056  12.927  0.2384 -1.2484  2.0027
15297TIP3    H267307   5.255  -0.043  12.948  0.4223 -0.4052  0.2795
15298TIP3   OH267308   0.512   6.198   5.920 -0.1153  0.0768  0.3951
15298TIP3    H167309   0.439   6.195   5.983  0.3249 -1.6437  0.8662
15298TIP3    H267310   0.587   6.164   5.969  0.4602 -0.3607 -0.7758
15299TIP3   OH267311   2.691   2.283  15.146 -0.1938  0.0982  0.7997
15299TIP3    H167312   2.783   2.278  15.170 -0.5711  0.3968  2.3090
15299TIP3    H267313   2.662   2.192  15.145  0.0017  0.0363  0.7324
15300TIP3   OH267314   0.984   5.846  14.979  0.4990  0.3910  0.0740
15300TIP3    H167315   0.910   5.901  15.006  1.8085  2.0581  0.3309
15300TIP3    H267316   0.975   5.767  15.032  0.5016  1.7672  2.1683
15301TIP3   OH267317   4.953   4.051  15.524  0.0471  0.1651 -0.0800
15301TIP3    H167318   4.861   4.075  15.536 -0.1889 -0.0663 -1.3048
15301TIP3    H267319   4.991   4.127  15.480 -0.5132 -1.2963 -3.2444
15302TIP3   OH267320   4.937   1.393  15.588  0.0280  0.5526 -0.2078
15302TIP3    H167321   4.968   1.326  15.649 -0.4383 -0.2890 -0.8738
15302TIP3    H267322   4.844   1.404  15.611 -0.0640  0.4759 -0.5440
15303TIP3   OH267323   1.158   2.467  14.239  0.3256  0.3663  0.0313
15303TIP3    H167324   1.105   2.484  14.161 -1.1083  1.1234  1.1369
15303TIP3    H267325   1.249   2.469  14.207 -0.2802 -0.9031 -1.8809
15304TIP3   OH267326   0.651   3.253  15.438  0.5520  0.4672  0.4694
15304TIP3    H167327   0.607   3.318  15.493 -0.7725 -1.0998  1.3298
15304TIP3    H267328   0.596   3.245  15.361 -0.8906 -1.6750  1.6585
15305TIP3   OH267329   1.157   3.793  15.746 -0.0346  0.5339  0.0876
15305TIP3    H167330   1.138   3.760  15.658  1.0136 -2.1574  0.8144
15305TIP3    H267331   1.173   3.886  15.734 -0.1969  0.2604 -2.5226
15306TIP3   OH267332   1.762   2.424   3.650  0.5089 -0.5149 -0.0191
15306TIP3    H167333   1.764   2.500   3.708 -1.9134 -0.1518 -0.3714
15306TIP3    H267334   1.693   2.368   3.686 -0.6577 -0.5394 -2.2060
15307TIP3   OH267335   4.060   5.152   3.831  0.6413 -0.0891  0.0798
15307TIP3    H167336   4.056   5.247   3.821  0.7576 -0.0888  0.0342
15307TIP3    H267337   4.086   5.120   3.744 -2.4471 -0.3859 -0.8231
15308TIP3   OH267338   1.023   4.970  16.781  0.2900 -0.4740 -0.2904
15308TIP3    H167339   1.048   4.889  16.826  1.9053 -0.1651 -0.5974
15308TIP3    H267340   1.098   4.990  16.725  0.4877  1.9535  0.7891
15309TIP3   OH267341   6.047   4.820   5.834  0.2937 -0.3840 -0.0224
15309TIP3    H167342   6.084   4.901   5.868  1.6004 -1.2321  0.6362
15309TIP3    H267343   6.034   4.765   5.911 -2.3383 -0.1417 -0.2395
15310TIP3   OH267344   3.456   5.423  16.273 -0.0971  0.6123  0.3699
15310TIP3    H167345   3.507   5.450  16.197  0.1129  0.0809  0.3187
15310TIP3    H267346   3.378   5.382  16.236  0.8305 -1.2284  0.4238
15311TIP3   OH267347   4.701   2.196   2.301  0.3888 -0.1874  0.0058
15311TIP3    H167348   4.613   2.166   2.322  0.4752 -1.1154 -0.9046
15311TIP3    H267349   4.689   2.287   2.274 -0.1993 -0.1063  0.5265
15312TIP3   OH267350   1.586   1.485   1.452  0.5554  0.0017 -0.6357
15312TIP3    H167351   1.544   1.537   1.384  1.2444  1.1826 -0.1690
15312TIP3    H267352   1.647   1.545   1.494  0.2199 -0.7354  0.9482
15313TIP3   OH267353   4.914   0.204  16.112 -0.0169  0.5161 -0.2292
15313TIP3    H167354   4.896   0.195  16.205 -0.2238 -0.2152 -0.3363
15313TIP3    H267355   4.991   0.260  16.108  1.1773 -1.0407  0.4680
15314TIP3   OH267356   2.898   3.452  14.453 -0.5081  0.3533  0.4041
15314TIP3    H167357   2.967   3.407  14.502  0.5257  0.2623 -1.0800
15314TIP3    H267358   2.817   3.417  14.488  0.2568 -1.2165  0.6490
15315TIP3   OH267359   5.527   6.425  14.225  0.2732  0.0874 -0.0957
15315TIP3    H167360   5.542   6.519  14.224  0.2054  0.0939 -0.6066
15315TIP3    H267361   5.464   6.412  14.296 -1.1072  0.6429 -1.1952
15316TIP3   OH267362   4.614   1.688   4.989  0.5230 -0.4389 -0.7490
15316TIP3    H167363   4.693   1.652   4.950  0.6102 -1.6585  0.5312
15316TIP3    H267364   4.644   1.736   5.066 -0.1265 -2.5015  0.8367
15317TIP3   OH267365   1.027   6.174  12.254 -0.1873  0.0518  0.0763
15317TIP3    H167366   1.111   6.153  12.294  0.0198  0.7089 -0.0041
15317TIP3    H267367   1.001   6.257  12.294 -0.2445  0.4279 -0.7265
15318TIP3   OH267368   1.947   6.681  14.453  1.0421  0.8811  0.1103
15318TIP3    H167369   1.973   6.767  14.487  0.1510  1.1314  0.1674
15318TIP3    H267370   1.855   6.691  14.429  0.7801 -0.2133  0.6091
15319TIP3   OH267371   4.955   0.924   1.848  0.0327 -0.8264 -0.0221
15319TIP3    H167372   5.034   0.974   1.827 -0.8068  0.6312  0.1869
15319TIP3    H267373   4.925   0.960   1.931  0.0813 -2.5491  0.7665
15320TIP3   OH267374   3.417   5.466  12.795 -0.1035 -0.0861 -0.0632
15320TIP3    H167375   3.501   5.432  12.825 -0.5019 -2.1959 -1.2371
15320TIP3    H267376   3.352   5.418  12.846 -0.6756 -1.0215 -1.6450
15321TIP3   OH267377   6.115   6.587   5.960  0.4639 -0.1735 -0.2432
15321TIP3    H167378   6.202   6.578   5.922  0.4926  2.1097 -0.7930
15321TIP3    H267379   6.122   6.660   6.021 -1.4995  1.3693 -1.7638
15322TIP3   OH267380   1.807   2.442  12.844 -0.2521 -0.5436 -0.1003
15322TIP3    H167381   1.815   2.443  12.940 -0.5377 -2.7341 -0.0289
15322TIP3    H267382   1.794   2.534  12.820 -2.1317 -0.1918  2.1288
15323TIP3   OH267383   5.673   4.589  13.048  0.2878  0.5193  0.1992
15323TIP3    H167384   5.704   4.631  13.128 -1.6865  3.1771 -0.3508
15323TIP3    H267385   5.577   4.590  13.056  0.1437 -1.3935 -1.0977
15324TIP3   OH267386   3.919   5.548   0.954  0.2431 -0.3767 -0.0677
15324TIP3    H167387   3.944   5.472   1.007  1.4266 -1.0369 -1.5371
15324TIP3    H267388   4.001   5.578   0.915 -0.6110  0.0864 -1.5331
15325TIP3   OH267389   5.852   6.296   1.706  0.2367 -0.0241  0.1834
15325TIP3    H167390   5.816   6.336   1.786  0.2369  1.0322 -0.3406
15325TIP3    H267391   5.929   6.249   1.735  1.3935  2.0146  0.5183
15326TIP3   OH267392   5.409   6.148  10.682 -0.2658 -0.7299 -1.0809
15326TIP3    H167393   5.428   6.065  10.726  1.7710 -0.4904 -1.4680
15326TIP3    H267394   5.456   6.213  10.734 -0.2641 -0.0709 -1.9052
15327TIP3   OH267395   6.547   3.232   5.767 -0.0555  0.3232 -0.1528
15327TIP3    H167396   6.550   3.239   5.863  1.2433 -1.4894 -0.0417
15327TIP3    H267397   6.531   3.322   5.737  3.6426  1.6469  1.5874
15328TIP3   OH267398   3.327   1.640  15.110 -0.1335 -0.6454 -0.1312
15328TIP3    H167399   3.238   1.675  15.103 -0.2475 -1.0724 -0.9319
15328TIP3    H267400   3.337   1.617  15.202 -0.3007  0.8309  0.2640
15329TIP3   OH267401   4.370   6.425   4.575  0.3270 -0.0113  0.2038
15329TIP3    H167402   4.393   6.518   4.578  0.8782 -0.1773  1.3395
15329TIP3    H267403   4.304   6.414   4.643 -0.8097 -0.1693 -0.9123
15330TIP3   OH267404   4.195   0.973  12.142  0.3628 -0.1312 -0.4160
15330TIP3    H167405   4.173   0.882  12.119  2.7235 -1.2785  1.6307
15330TIP3    H267406   4.115   1.007  12.182  0.5471 -2.4930  2.0622
15331TIP3   OH267407   2.798   0.200   4.586  0.1264  0.3079 -0.3118
15331TIP3    H167408   2.728   0.166   4.530 -0.1631 -0.3968  0.4654
15331TIP3    H267409   2.793   0.146   4.665  1.6703  0.1332 -0.3231
15332TIP3   OH267410   2.740   1.925   5.299 -0.6237 -0.0436 -0.2975
15332TIP3    H167411   2.809   1.908   5.235 -0.2428  0.0208  0.1025
15332TIP3    H267412   2.785   1.963   5.374 -0.7397 -2.4189  0.9987
15333TIP3   OH267413   4.873   3.441  13.972 -0.3338  0.0103 -0.3493
15333TIP3    H167414   4.826   3.499  14.031 -0.3985 -0.8242  0.4292
15333TIP3    H267415   4.825   3.358  13.976  0.3463 -0.4076 -0.6621
15334TIP3   OH267416   4.858   2.991  13.084 -0.2958 -0.3748 -0.2372
15334TIP3    H167417   4.901   3.034  13.157  1.7394 -0.1367 -1.5310
15334TIP3    H267418   4.887   2.900  13.089 -0.0498 -0.3319 -0.8151
15335TIP3   OH267419   2.767   3.961   5.350  0.1780  0.1474  0.1119
15335TIP3    H167420   2.851   3.979   5.393 -0.6825  0.7906  1.5524
15335TIP3    H267421   2.704   3.958   5.422 -1.0422 -0.3225 -0.9711
15336TIP3   OH267422   3.631   6.443  11.948  0.1882  0.3387  0.1028
15336TIP3    H167423   3.594   6.356  11.961 -2.2549  1.4936  1.3034
15336TIP3    H267424   3.616   6.463  11.856 -0.9714  0.2275  0.2597
15337TIP3   OH267425   1.393   5.730   2.519  0.1382  0.5025 -0.4540
15337TIP3    H167426   1.347   5.813   2.510 -1.1479 -0.3025 -1.4474
15337TIP3    H267427   1.335   5.675   2.571  1.1666  0.3435  0.5519
15338TIP3   OH267428   4.546   3.323   3.884  0.0810  0.2733  0.2690
15338TIP3    H167429   4.597   3.270   3.824 -0.6371  1.4356 -1.4335
15338TIP3    H267430   4.568   3.413   3.861 -1.1624  0.7544  0.8977
15339TIP3   OH267431   5.321   1.974  16.212 -0.0466  0.3279 -0.9308
15339TIP3    H167432   5.266   1.906  16.174 -0.6801  0.7909 -0.8580
15339TIP3    H267433   5.410   1.950  16.189 -0.2977 -0.3405 -1.1935
15340TIP3   OH267434   1.997   6.416  11.950  0.0559 -0.3802 -0.2767
15340TIP3    H167435   2.074   6.398  11.896  1.0503 -2.3723  1.7354
15340TIP3    H267436   1.930   6.356  11.918 -0.8594  1.6174 -2.2845
15341TIP3   OH267437   3.427   6.361  12.197  0.2984 -0.0935 -0.0628
15341TIP3    H167438   3.355   6.306  12.227  0.1921 -0.4210 -0.8995
15341TIP3    H267439   3.457   6.319  12.116  0.6800  0.6900 -0.3322
15342TIP3   OH267440   0.904   6.770  13.485 -0.1298  0.0839  0.1107
15342TIP3    H167441   0.977   6.717  13.453  0.1443  0.1019  0.7042
15342TIP3    H267442   0.908   6.849  13.432 -0.4526 -0.4275 -0.6820
15343TIP3   OH267443   6.449   3.345  12.809  0.5827 -0.3221  0.1828
15343TIP3    H167444   6.490   3.412  12.864  0.7309 -0.2171 -0.0529
15343TIP3    H267445   6.363   3.332  12.848 -0.3634  1.6916 -1.1163
15344TIP3   OH267446   1.414   6.240  16.748  0.0381 -0.0769  0.1724
15344TIP3    H167447   1.334   6.205  16.708  2.6701 -0.9978 -4.5462
15344TIP3    H267448   1.467   6.163  16.768  1.2813  0.7087 -0.0690
15345TIP3   OH267449   3.517   2.110   1.361 -0.0385  0.4025 -0.5218
15345TIP3    H167450   3.522   2.111   1.457  1.1017  0.5525 -0.5700
15345TIP3    H267451   3.467   2.188   1.338  1.0973  1.2732 -0.1022
15346TIP3   OH267452   4.935   5.203   5.690  0.3233 -0.1912 -0.1150
15346TIP3    H167453   4.961   5.113   5.708  1.2142 -0.0696 -0.7757
15346TIP3    H267454   4.866   5.221   5.753  0.3659 -1.2300  0.2347
15347TIP3   OH267455   4.946   3.045   3.906 -0.0510  0.0206 -0.4941
15347TIP3    H167456   4.895   3.109   3.858  1.4251  0.8367 -1.0076
15347TIP3    H267457   4.882   2.979   3.935 -1.5325  1.5555 -0.2053
15348TIP3   OH267458   2.803   4.840  14.352  0.5453  0.2045 -0.3926
15348TIP3    H167459   2.836   4.816  14.439  2.0529  0.1509 -0.9671
15348TIP3    H267460   2.803   4.936  14.352 -0.0021  0.2050 -0.1319
15349TIP3   OH267461   6.258   0.823   5.728  0.3359 -0.5196 -0.7987
15349TIP3    H167462   6.235   0.896   5.785  0.2918 -1.5997  0.5905
15349TIP3    H267463   6.198   0.753   5.752  1.2515 -1.4579 -1.1726
15350TIP3   OH267464   5.043   6.191  13.397 -0.0207 -0.2130  0.5336
15350TIP3    H167465   5.096   6.173  13.474  0.5806 -1.1860 -0.1091
15350TIP3    H267466   5.049   6.112  13.343 -0.1571  0.5841 -0.6785
15351TIP3   OH267467   6.624   6.388  14.218  0.1899 -0.0043  0.7502
15351TIP3    H167468   6.680   6.450  14.264 -2.2585  1.6122  1.6367
15351TIP3    H267469   6.573   6.442  14.158 -1.1284 -1.3125  0.6722
15352TIP3   OH267470   2.491   4.464   5.240 -0.0781 -0.0476 -0.1397
15352TIP3    H167471   2.574   4.416   5.243  0.2404  0.4264 -1.1463
15352TIP3    H267472   2.487   4.509   5.324  0.4470 -0.4728  0.1175
15353TIP3   OH267473   0.396   1.571   6.283  0.3545 -0.4703  0.0194
15353TIP3    H167474   0.353   1.522   6.353  0.1357  1.2236  1.1097
15353TIP3    H267475   0.324   1.604   6.229  0.5114 -1.5596 -0.8669
15354TIP3   OH267476   5.969   5.061  12.335 -0.5440 -0.2839 -0.3900
15354TIP3    H167477   6.046   5.098  12.378 -0.4648 -0.0506 -0.7356
15354TIP3    H267478   5.987   5.069  12.241 -1.3091  0.4477 -0.4808
15355TIP3   OH267479   0.742   6.212  11.061 -0.3441  0.1599  0.5079
15355TIP3    H167480   0.719   6.303  11.079 -0.7152 -0.1637  1.7098
15355TIP3    H267481   0.807   6.217  10.991 -1.3208  1.2792 -0.3423
15356TIP3   OH267482   6.325   5.985  12.668  0.2819 -0.6687  0.1472
15356TIP3    H167483   6.238   5.948  12.652  0.3463 -0.6830 -0.1663
15356TIP3    H267484   6.311   6.080  12.667  0.5851 -0.6404 -1.6684
15357TIP3   OH267485   1.270   1.525   5.875 -0.1897  0.1527  0.7013
15357TIP3    H167486   1.240   1.499   5.962 -2.0119  2.0793  0.7138
15357TIP3    H267487   1.293   1.618   5.884  0.6624  0.0907 -0.6114
15358TIP3   OH267488   5.893   6.015  16.778 -0.2108  0.2963 -0.2091
15358TIP3    H167489   5.921   5.947  16.716  1.2611 -0.1965  0.9738
15358TIP3    H267490   5.819   5.976  16.824  1.9015 -1.4082  1.9329
15359TIP3   OH267491   5.706   0.646  14.223  0.5691  0.1563 -0.4104
15359TIP3    H167492   5.719   0.566  14.275  1.0781 -1.1662 -2.4907
15359TIP3    H267493   5.635   0.623  14.163 -0.0432  1.6660 -0.2639
15360TIP3   OH267494   4.052   0.643  16.518 -0.1468 -0.0366 -0.0732
15360TIP3    H167495   4.027   0.563  16.565  1.3177 -0.5866 -0.2168
15360TIP3    H267496   3.982   0.705  16.539  0.4443 -0.2643  2.8418
15361TIP3   OH267497   2.646   2.835   5.982  0.6398  0.7251 -0.2949
15361TIP3    H167498   2.719   2.801   5.931  0.9592  0.1439  0.5380
15361TIP3    H267499   2.659   2.798   6.070 -1.0185  0.0572 -0.3102
15362TIP3   OH267500   3.189   6.745   2.578  0.6229 -0.0203  0.2167
15362TIP3    H167501   3.283   6.744   2.598  0.5006  1.6695  0.9098
15362TIP3    H267502   3.180   6.807   2.506  0.2193 -1.3659 -0.9307
15363TIP3   OH267503   3.241   4.516   6.010 -1.0461  0.4577  0.1239
15363TIP3    H167504   3.165   4.498   5.955 -0.8738  1.9000 -0.5953
15363TIP3    H267505   3.204   4.550   6.092 -1.1856  1.1344 -0.2170
15364TIP3   OH267506   1.597   1.775  12.874 -0.3772  0.3783  0.3747
15364TIP3    H167507   1.537   1.701  12.865 -0.9331  0.6982  1.3051
15364TIP3    H267508   1.669   1.741  12.926 -0.4123  0.3660  0.4150
15365TIP3   OH267509   3.962   6.468  11.452  0.3237 -0.1180  0.0453
15365TIP3    H167510   3.928   6.513  11.374 -0.1358  0.8964  0.8203
15365TIP3    H267511   4.023   6.531  11.491  1.2285 -0.9792  0.0114
15366TIP3   OH267512   1.294   6.037   2.811  0.4639  0.1361 -0.4452
15366TIP3    H167513   1.371   6.003   2.766  1.9668  1.4477  1.0786
15366TIP3    H267514   1.270   5.968   2.873  1.5548  0.5044  0.3917
15367TIP3   OH267515   0.236   3.763  14.692 -0.4103  0.0200 -0.2703
15367TIP3    H167516   0.168   3.724  14.747 -0.1678  1.5889  1.1998
15367TIP3    H267517   0.296   3.804  14.754 -0.6367  2.6599 -1.7256
15368TIP3   OH267518   5.205   0.297  13.360 -0.5187  0.0176 -0.1581
15368TIP3    H167519   5.168   0.214  13.333  1.5684 -1.2398  0.7332
15368TIP3    H267520   5.234   0.283  13.450  1.6742  1.0623 -0.6651
15369TIP3   OH267521   2.356   4.093   1.871  0.0248  0.1635  0.6548
15369TIP3    H167522   2.308   4.053   1.798 -3.1404  1.1694  2.0897
15369TIP3    H267523   2.406   4.164   1.831 -0.4572 -0.2724 -0.7583
15370TIP3   OH267524   1.654   0.786   5.817 -0.1204  0.4839 -0.0864
15370TIP3    H167525   1.701   0.737   5.884  0.4204 -0.5166 -1.1679
15370TIP3    H267526   1.570   0.806   5.856 -0.0135 -0.5637  0.7060
15371TIP3   OH267527   0.002   4.462  11.417 -0.4135 -0.5451  0.0693
15371TIP3    H167528  -0.071   4.474  11.478 -0.0142 -0.6973  0.5829
15371TIP3    H267529   0.003   4.367  11.399 -0.9160 -0.4207 -0.6658
15372TIP3   OH267530   3.199   1.086  16.954 -0.0391 -0.5228 -0.4886
15372TIP3    H167531   3.158   1.030  16.888 -1.0578  0.5752 -0.8073
15372TIP3    H267532   3.131   1.098  17.020  0.0939  0.5172 -0.5334
15373TIP3   OH267533   1.954   0.538  12.095  0.3696 -0.2461 -0.2469
15373TIP3    H167534   1.932   0.569  12.183  0.5745  1.4454 -0.7663
15373TIP3    H267535   1.911   0.452  12.088  0.1196 -0.2681  1.3906
15374TIP3   OH267536   6.446   4.079  16.890  0.0902  0.3284 -0.6097
15374TIP3    H167537   6.411   3.990  16.884 -0.8890  0.6721 -0.0723
15374TIP3    H267538   6.445   4.111  16.799 -1.7422  0.6060 -0.5146
15375TIP3   OH267539   2.933   0.811  14.296  0.0363 -0.2897  0.0304
15375TIP3    H167540   3.019   0.779  14.325  0.5330  1.0787  0.0742
15375TIP3    H267541   2.932   0.903  14.320 -0.5119  0.2962 -2.1291
15376TIP3   OH267542   0.039   4.550   5.562  0.3397 -0.5012  0.1222
15376TIP3    H167543   0.107   4.593   5.511 -0.7767 -0.3485 -1.2442
15376TIP3    H267544  -0.019   4.621   5.591 -0.9818 -0.9525 -1.3561
15377TIP3   OH267545   4.805   4.399  16.122  0.2458  0.1399 -0.1865
15377TIP3    H167546   4.842   4.418  16.035 -0.6908 -1.9907 -1.0729
15377TIP3    H267547   4.755   4.478  16.144  0.3137  0.6231 -1.6803
15378TIP3   OH267548   3.695   5.939  11.566  0.3370  0.0399  0.2437
15378TIP3    H167549   3.786   5.957  11.542  0.1793  1.4005  0.6158
15378TIP3    H267550   3.645   5.959  11.486  0.4220 -1.3658 -0.1729
15379TIP3   OH267551   6.445   2.499  14.192 -0.2053  0.5425  0.2230
15379TIP3    H167552   6.355   2.477  14.171  0.6866 -1.8180 -1.3576
15379TIP3    H267553   6.442   2.590  14.220 -2.8365  0.9575 -1.2931
15380TIP3   OH267554   5.380   0.965  15.691  0.5849  0.2359  0.0062
15380TIP3    H167555   5.464   0.968  15.645  1.8579  1.3680  2.2978
15380TIP3    H267556   5.404   0.951  15.783 -1.8506 -1.3885  0.4097
15381TIP3   OH267557   1.596   3.668  16.955  0.4115 -0.3370  0.0694
15381TIP3    H167558   1.553   3.585  16.974  2.4131 -1.4282 -0.0496
15381TIP3    H267559   1.685   3.657  16.988  0.6487  1.8385  0.2343
15382TIP3   OH267560   0.895   1.219   4.047  0.3171 -0.4091  0.1384
15382TIP3    H167561   0.889   1.139   4.098 -0.9098 -0.2294  0.3033
15382TIP3    H267562   0.938   1.193   3.966 -0.9835 -1.4611 -0.2397
15383TIP3   OH267563   1.345   0.159   5.517  0.5125  0.7271 -0.0149
15383TIP3    H167564   1.267   0.115   5.483  0.3218  0.4453  0.7858
15383TIP3    H267565   1.311   0.238   5.560  0.7203  0.8733 -0.1147
15384TIP3   OH267566   0.165   0.777   3.810 -1.2342  0.5310 -0.0731
15384TIP3    H167567   0.184   0.803   3.720  0.0740 -1.3942 -0.3815
15384TIP3    H267568   0.238   0.811   3.861 -0.8047 -0.3501 -0.0956
15385TIP3   OH267569   5.936   0.844  15.799 -0.6539 -0.2427  0.3661
15385TIP3    H167570   5.900   0.755  15.801 -2.6267  0.5289  0.8227
15385TIP3    H267571   6.016   0.837  15.748 -1.6592 -1.9670 -1.0266
15386TIP3   OH267572   0.962   3.319  10.382  0.3884 -0.5542 -0.0155
15386TIP3    H167573   0.911   3.241  10.358 -2.3324  0.9949  0.4618
15386TIP3    H267574   0.926   3.344  10.468  1.3825  1.0862 -0.0689
15387TIP3   OH267575   2.260   1.995   5.741 -0.2020 -0.1055 -0.0050
15387TIP3    H167576   2.308   1.972   5.820 -0.5342  1.9577  0.8302
15387TIP3    H267577   2.326   1.997   5.672 -0.0699 -2.9418 -0.0382
15388TIP3   OH267578   3.493   4.262  16.150  0.0213  0.1783  0.5291
15388TIP3    H167579   3.523   4.344  16.110  1.9280 -1.0315 -0.6148
15388TIP3    H267580   3.510   4.273  16.243 -0.0752  1.2214  0.4333
15389TIP3   OH267581   2.249   4.490   4.521  0.4453 -0.1052  0.0678
15389TIP3    H167582   2.155   4.478   4.507  0.0865  1.7045  0.7296
15389TIP3    H267583   2.276   4.551   4.453  0.6513  1.2071  1.2970
15390TIP3   OH267584   4.742   2.986  12.414  0.7311 -0.0312 -0.1518
15390TIP3    H167585   4.738   2.970  12.320  0.4667  0.9815 -0.3245
15390TIP3    H267586   4.654   3.017  12.436  0.4226 -1.4635  0.6604
15391TIP3   OH267587   6.522   1.300   4.861  0.4384  0.9877 -0.7339
15391TIP3    H167588   6.504   1.213   4.897  0.9665  1.0960 -0.2118
15391TIP3    H267589   6.436   1.340   4.851  0.0933 -0.0893 -2.2135
15392TIP3   OH267590   2.577   4.652  14.674 -0.1506  0.6694 -0.0347
15392TIP3    H167591   2.520   4.706  14.728  0.9267  0.8950  0.8981
15392TIP3    H267592   2.587   4.570  14.723 -0.6985  0.1239 -0.8089
15393TIP3   OH267593   3.147   3.975  16.899  0.0813 -0.3640 -0.3132
15393TIP3    H167594   3.129   3.896  16.848  2.2270 -1.4611  0.5711
15393TIP3    H267595   3.067   3.989  16.949  0.4960 -3.4431  1.3854
15394TIP3   OH267596   3.791   2.239  13.991  0.0550  0.8228 -0.1544
15394TIP3    H167597   3.790   2.314  14.050  0.9593  0.4286  0.3811
15394TIP3    H267598   3.866   2.187  14.020 -1.5219 -1.1258  0.5394
15395TIP3   OH267599   2.669   6.220  15.325  0.1936  0.5692 -0.1404
15395TIP3    H167600   2.719   6.302  15.329  2.9445 -1.0641  0.3272
15395TIP3    H267601   2.654   6.196  15.416 -0.0988  0.2632 -0.2700
15396TIP3   OH267602   1.376   4.896   5.225  0.3424 -0.3464 -0.0818
15396TIP3    H167603   1.377   4.976   5.279  1.4924  0.1485 -0.8062
15396TIP3    H267604   1.293   4.901   5.177  0.6101  0.6605 -0.4613
15397TIP3   OH267605   5.314   4.151   0.294 -0.0980 -0.0420 -0.3952
15397TIP3    H167606   5.366   4.109   0.362  0.0235 -0.0849 -0.5138
15397TIP3    H267607   5.309   4.243   0.321 -0.0791 -0.0661 -0.3120
15398TIP3   OH267608   2.090   4.577   3.399 -0.1477 -0.0720  0.2414
15398TIP3    H167609   2.169   4.631   3.395 -0.0554 -0.2617 -0.5719
15398TIP3    H267610   2.116   4.499   3.448 -0.0266  0.1923  0.5981
15399TIP3   OH267611   6.562   6.407  12.008 -0.0768 -0.3165  0.0194
15399TIP3    H167612   6.473   6.437  11.990 -0.0290 -0.5516 -0.6358
15399TIP3    H267613   6.570   6.408  12.103 -1.4786 -2.2853  0.1769
15400TIP3   OH267614   5.495   6.639   4.447 -0.2466  0.8037 -0.3634
15400TIP3    H167615   5.436   6.596   4.385  0.5148  0.6159 -0.9653
15400TIP3    H267616   5.460   6.616   4.533 -1.6302  1.5210 -0.7206
15401TIP3   OH267617   2.985   3.865   2.480  0.2939  0.0131 -0.0078
15401TIP3    H167618   2.978   3.956   2.510  2.1754  1.3651 -3.3280
15401TIP3    H267619   2.921   3.859   2.409  1.6430 -0.5532 -1.2153
15402TIP3   OH267620   4.920   1.984  15.534 -0.4368 -0.5810 -0.1160
15402TIP3    H167621   4.955   2.002  15.447 -0.8194 -0.3199 -0.2158
15402TIP3    H267622   4.835   2.028  15.536  0.0613  0.3870  0.7731
15403TIP3   OH267623   0.095   1.377  16.114  0.6520  0.1442 -0.4113
15403TIP3    H167624   0.107   1.359  16.020  1.8272  0.8039 -0.4025
15403TIP3    H267625   0.184   1.383  16.148  0.2231 -0.3410  0.8093
15404TIP3   OH267626   2.330   3.883  15.075 -0.2539  0.3242  0.3469
15404TIP3    H167627   2.300   3.963  15.031 -1.2363  1.1514  2.3937
15404TIP3    H267628   2.259   3.864  15.138  0.6941 -1.2708  0.9425
15405TIP3   OH267629   0.224   0.450   1.817  0.2667 -0.6757 -0.3372
15405TIP3    H167630   0.202   0.400   1.895 -0.5257 -0.9874 -0.7615
15405TIP3    H267631   0.269   0.387   1.761  0.6724 -0.4991 -0.2118
15406TIP3   OH267632   3.030   6.715  15.741  0.7087  0.0003 -0.2149
15406TIP3    H167633   3.108   6.712  15.797  1.0442  0.0600 -0.6801
15406TIP3    H267634   2.977   6.640  15.770 -1.0026  2.3012  2.8921
15407TIP3   OH267635   0.136   3.742  11.352 -0.7578  0.3182 -0.3942
15407TIP3    H167636   0.090   3.826  11.348 -0.0774  0.6170 -2.1409
15407TIP3    H267637   0.133   3.708  11.263 -1.1455 -1.5927  0.3235
15408TIP3   OH267638   2.398   6.317  14.087 -0.0158 -0.2385  0.0814
15408TIP3    H167639   2.311   6.280  14.078 -0.5178  1.0030 -0.2306
15408TIP3    H267640   2.457   6.243  14.070 -0.9947 -0.9994 -0.0613
15409TIP3   OH267641   1.979   4.754  16.956 -0.0198 -0.5522  0.5147
15409TIP3    H167642   1.970   4.715  17.043 -2.8064 -0.8911  0.1262
15409TIP3    H267643   2.009   4.682  16.901  0.3989 -0.6908  0.9174
15410TIP3   OH267644   4.062   3.991   5.230  0.1663 -0.3000  0.1369
15410TIP3    H167645   3.971   3.973   5.204  0.5360  1.7200 -2.8911
15410TIP3    H267646   4.088   4.064   5.174  3.7320 -0.9604  0.8431
15411TIP3   OH267647   0.161   5.056  16.002 -0.0454 -0.6652  0.7769
15411TIP3    H167648   0.116   5.022  16.079  0.4552 -0.8505  0.9925
15411TIP3    H267649   0.121   5.142  15.987 -1.4154 -1.3940  0.1384
15412TIP3   OH267650   1.497   0.963   1.181 -0.1569 -0.4577  0.1375
15412TIP3    H167651   1.511   0.902   1.109  0.7818 -0.5931  0.4252
15412TIP3    H267652   1.537   1.045   1.150 -2.3758  0.3702 -0.7082
15413TIP3   OH267653   3.849   2.126  11.385  0.6546  0.1489  0.3161
15413TIP3    H167654   3.932   2.171  11.399  1.8149 -1.0405 -2.4152
15413TIP3    H267655   3.864   2.071  11.308 -2.9735  0.6446 -0.8355
15414TIP3   OH267656   6.099   3.275  15.410 -0.3371  0.4636  0.0815
15414TIP3    H167657   6.094   3.180  15.403 -0.0556  0.3624  1.1927
15414TIP3    H267658   6.014   3.302  15.444  0.8606  0.2329  3.4429
15415TIP3   OH267659   4.200   1.683   0.285  0.0596 -0.2082  0.0247
15415TIP3    H167660   4.132   1.748   0.304 -1.1429 -1.4750  0.1157
15415TIP3    H267661   4.270   1.702   0.348 -1.0307 -0.1268  1.2288
15416TIP3   OH267662   5.300   6.122  12.089 -0.1846  0.5795 -0.0040
15416TIP3    H167663   5.243   6.150  12.018  0.9358 -0.6197 -1.4277
15416TIP3    H267664   5.280   6.028  12.099  0.9580  0.3335  0.0087
15417TIP3   OH267665   4.009   6.514  15.885 -0.5640 -0.7516  0.9192
15417TIP3    H167666   4.008   6.418  15.880 -1.6448 -0.6866 -0.7148
15417TIP3    H267667   4.101   6.537  15.899 -0.0680 -1.9795 -0.1820
15418TIP3   OH267668   5.809   1.033   1.500  0.1428 -0.7396  0.1119
15418TIP3    H167669   5.833   1.003   1.412 -0.6419  0.5700 -0.5507
15418TIP3    H267670   5.728   0.986   1.520 -0.1878 -0.3262 -0.2502
15419TIP3   OH267671   4.120   3.915   3.232 -0.1425  0.1560 -0.0014
15419TIP3    H167672   4.067   3.910   3.311 -1.9447  2.6797 -0.9736
15419TIP3    H267673   4.102   3.832   3.186 -0.2795 -0.6464  1.4684
15420TIP3   OH267674   4.153   4.291   2.460 -0.5482 -0.7848 -0.1904
15420TIP3    H167675   4.241   4.256   2.465 -0.9631 -1.8165 -0.0927
15420TIP3    H267676   4.162   4.371   2.408  0.4703 -0.7696  0.0061
15421TIP3   OH267677   3.422   4.575   5.808 -0.3789 -0.3490 -0.5130
15421TIP3    H167678   3.389   4.658   5.774 -0.9112 -0.2159  0.2998
15421TIP3    H267679   3.360   4.551   5.877 -0.5153 -1.6835 -1.0793
15422TIP3   OH267680   0.938   3.678  16.548  0.0007  0.2581  0.2286
15422TIP3    H167681   0.845   3.657  16.555  0.1681 -0.4902  0.2423
15422TIP3    H267682   0.972   3.664  16.637  0.1336  0.5227  0.2200
15423TIP3   OH267683   3.822   1.900  14.702  0.5763  0.2673  0.1267
15423TIP3    H167684   3.782   1.985  14.720  1.1454  0.2211  1.6108
15423TIP3    H267685   3.792   1.843  14.772 -0.4977 -1.0003 -1.3464
15424TIP3   OH267686   4.252   1.595  13.229 -0.1802 -0.5531  0.1390
15424TIP3    H167687   4.330   1.647  13.249 -1.7010  1.2650  1.4955
15424TIP3    H267688   4.211   1.640  13.156 -0.3236 -1.1238 -0.1379
15425TIP3   OH267689   4.439   2.387  11.949 -0.0823  0.3859  0.3126
15425TIP3    H167690   4.385   2.313  11.978 -1.5045  0.9806 -0.7253
15425TIP3    H267691   4.455   2.370  11.856 -0.0122  1.1378  0.1863
15426TIP3   OH267692   6.179   4.718  15.998  0.2590  0.1875 -0.0784
15426TIP3    H167693   6.115   4.650  16.020  1.4854 -1.3328 -1.1363
15426TIP3    H267694   6.154   4.747  15.911  0.6573  0.0192 -0.2471
15427TIP3   OH267695   1.967   3.580  14.895 -0.1357 -0.6369  0.0294
15427TIP3    H167696   1.909   3.647  14.932  1.3184  0.3938  0.5087
15427TIP3    H267697   1.924   3.553  14.814 -0.9578  0.6020  0.0441
15428TIP3   OH267698   3.125   6.179   6.191  0.1893 -0.5496  0.1832
15428TIP3    H167699   3.180   6.257   6.190 -0.4622 -0.0773 -2.7103
15428TIP3    H267700   3.040   6.210   6.223  0.2463 -0.3094  0.1008
15429TIP3   OH267701   5.467   6.563  15.413 -0.0889 -0.0711  0.1425
15429TIP3    H167702   5.481   6.655  15.391 -0.0344 -0.4479 -1.4103
15429TIP3    H267703   5.550   6.520  15.395  0.2438 -0.2464  1.9577
15430TIP3   OH267704   3.869   3.246   5.727  0.2904  0.9638 -0.2614
15430TIP3    H167705   3.831   3.161   5.705  0.0015  0.5678  1.7301
15430TIP3    H267706   3.799   3.309   5.705 -0.0364  0.5728 -0.3485
15431TIP3   OH267707   5.993   6.388  15.613  0.2878  0.0249  0.0579
15431TIP3    H167708   6.033   6.409  15.698  2.0296  0.7065 -0.8959
15431TIP3    H267709   5.902   6.367  15.634  0.6173  0.4604  2.0602
15432TIP3   OH267710   1.058   3.763  15.470 -0.3598  0.2159 -0.2989
15432TIP3    H167711   0.971   3.793  15.496  0.5532  0.1911  2.9996
15432TIP3    H267712   1.068   3.795  15.380 -3.9628 -0.2714 -0.9363
15433TIP3   OH267713   5.909   2.542  14.674  0.4248 -0.0995  0.2511
15433TIP3    H167714   6.001   2.571  14.675 -0.1447  1.7228  0.3947
15433TIP3    H267715   5.860   2.619  14.645 -1.2417 -0.5702  1.7622
15434TIP3   OH267716   3.676   0.673   1.494 -0.4096  0.3724 -0.0415
15434TIP3    H167717   3.726   0.738   1.444  0.0483  0.4996  0.5791
15434TIP3    H267718   3.679   0.594   1.439 -1.6430  1.0986 -1.1678
15435TIP3   OH267719   4.133   1.738  14.083  0.5079 -0.1600 -0.2497
15435TIP3    H167720   4.061   1.699  14.033 -0.1200  0.7447 -0.0506
15435TIP3    H267721   4.094   1.813  14.126  1.4574  0.0299  0.2771
15436TIP3   OH267722   4.931   5.126   1.511 -0.3229  0.0617  0.0720
15436TIP3    H167723   4.962   5.206   1.554  0.7429  0.5290 -1.5161
15436TIP3    H267724   4.836   5.125   1.528 -0.2775  1.4369  0.4648
15437TIP3   OH267725   2.486   1.312   0.670 -0.2931 -0.0189  0.5237
15437TIP3    H167726   2.448   1.227   0.691 -2.4862  0.5362 -0.9310
15437TIP3    H267727   2.576   1.307   0.701 -1.2139 -1.8123  3.1071
15438TIP3   OH267728   5.935   3.105  13.745 -0.5965  0.6104  0.1654
15438TIP3    H167729   5.971   3.021  13.774  1.6006  1.0891 -1.0918
15438TIP3    H267730   5.990   3.171  13.787 -0.3433  1.3749 -1.3451
15439TIP3   OH267731   5.848   3.229  16.402 -0.2677 -0.1967  0.2236
15439TIP3    H167732   5.819   3.258  16.488 -0.3939 -0.8848  0.4160
15439TIP3    H267733   5.792   3.275  16.340 -2.0175 -1.7687  0.5922
15440TIP3   OH267734   3.311   1.301   2.066 -0.3969  0.0661  0.1686
15440TIP3    H167735   3.405   1.286   2.057 -0.5342 -0.5625 -0.2789
15440TIP3    H267736   3.291   1.371   2.004 -0.2579  0.0666  0.1253
15441TIP3   OH267737   1.142   3.540  13.716 -0.2536  0.2742 -0.0423
15441TIP3    H167738   1.207   3.589  13.766  1.1211 -1.4551 -0.0967
15441TIP3    H267739   1.105   3.478  13.779 -0.6613  0.1115 -0.4385
15442TIP3   OH267740   0.922   3.618  14.917  0.6995  0.3267 -0.5653
15442TIP3    H167741   1.007   3.582  14.942  1.1603  0.5157 -1.8074
15442TIP3    H267742   0.939   3.711  14.902 -0.3422  0.9841  2.0049
15443TIP3   OH267743   1.706   3.877   2.186 -0.0474  0.2180 -0.1710
15443TIP3    H167744   1.619   3.917   2.183  0.3680  1.1898  0.7233
15443TIP3    H267745   1.715   3.844   2.275  0.8872  0.9875  0.0300
15444TIP3   OH267746   3.782   1.400   2.694  0.0980 -0.3924 -0.3455
15444TIP3    H167747   3.785   1.310   2.662 -0.3716 -0.6243  0.2674
15444TIP3    H267748   3.722   1.398   2.768 -0.3393  0.5303 -0.6626
15445TIP3   OH267749   6.543   3.108   3.450  0.5307  0.0241  0.1901
15445TIP3    H167750   6.584   3.130   3.533 -0.7279 -1.2407  1.1621
15445TIP3    H267751   6.513   3.191   3.415  3.5812  0.9473 -0.3941
15446TIP3   OH267752   0.488   0.638   0.224  0.0889 -0.1818  0.1599
15446TIP3    H167753   0.505   0.572   0.292 -0.1975  0.3249  0.7255
15446TIP3    H267754   0.421   0.598   0.169 -0.4803 -0.1459  0.8194
15447TIP3   OH267755   6.567   0.296   4.315 -0.0223 -0.1983 -0.3702
15447TIP3    H167756   6.487   0.311   4.364  0.8625  1.0036  0.7198
15447TIP3    H267757   6.559   0.206   4.283 -1.7563 -0.1093 -0.2167
15448TIP3   OH267758   2.019   2.515   4.952 -0.4594  0.3859 -0.2002
15448TIP3    H167759   1.984   2.576   5.017  1.1363 -1.1520  2.1666
15448TIP3    H267760   1.942   2.488   4.901 -1.8115  1.3088  1.3163
15449TIP3   OH267761   4.320   1.724  15.019 -0.7062 -0.1602 -0.0753
15449TIP3    H167762   4.356   1.682  14.941 -0.5463 -3.2426  1.6130
15449TIP3    H267763   4.393   1.776  15.054 -0.7010  1.0347 -1.7638
15450TIP3   OH267764   3.532   2.375  14.401  0.4002  0.3031 -0.3768
15450TIP3    H167765   3.477   2.353  14.326  1.0223  0.2818 -0.8325
15450TIP3    H267766   3.595   2.438  14.367  1.7874 -1.0154 -0.3194
15451TIP3   OH267767   4.225   0.027   3.308 -0.1921  0.2284 -0.4839
15451TIP3    H167768   4.317   0.049   3.293 -0.6701  2.5610 -0.1946
15451TIP3    H267769   4.183   0.111   3.327 -2.1584 -0.9555  0.6040
15452TIP3   OH267770   1.479   2.833  15.354 -0.1462  0.3866  0.6398
15452TIP3    H167771   1.459   2.741  15.333 -0.7552  0.8834 -1.0878
15452TIP3    H267772   1.423   2.853  15.429 -0.7735 -0.3591  0.3855
15453TIP3   OH267773   5.571   3.086  11.800 -0.3616  0.1493  0.2672
15453TIP3    H167774   5.493   3.077  11.746  0.6029  1.4513 -1.3951
15453TIP3    H267775   5.544   3.145  11.871 -0.9691  0.3979 -0.1661
15454TIP3   OH267776   0.055   5.181   3.546 -0.8717 -0.4441 -0.2660
15454TIP3    H167777   0.003   5.111   3.588 -1.6627  0.8877  1.0511
15454TIP3    H267778   0.033   5.175   3.453  0.4125 -3.0557 -0.4394
15455TIP3   OH267779   2.305   6.547   2.325  0.0097 -0.1918  0.3987
15455TIP3    H167780   2.400   6.552   2.313 -0.1401  0.2343 -0.6928
15455TIP3    H267781   2.273   6.634   2.301 -0.6728 -0.3802  0.6145
15456TIP3   OH267782   6.028   5.226  11.869 -0.0813 -0.0072 -0.3792
15456TIP3    H167783   5.944   5.202  11.907 -0.3167  0.4671 -0.5951
15456TIP3    H267784   6.021   5.201  11.777  1.1011 -2.7141  0.2208
15457TIP3   OH267785   1.487   1.309  11.958 -0.3344  0.7043  0.2250
15457TIP3    H167786   1.490   1.268  11.871 -1.6603 -1.6275  1.2353
15457TIP3    H267787   1.434   1.388  11.946 -0.7737  0.2352 -1.0104
15458TIP3   OH267788   2.944   0.133   5.126  0.0975  0.0640  0.1708
15458TIP3    H167789   3.019   0.168   5.078 -1.5154  2.1989 -0.8942
15458TIP3    H267790   2.900   0.076   5.063  0.6987 -1.0369  0.7333
15459TIP3   OH267791   0.517   1.412  17.073  0.2786 -0.6263  0.1451
15459TIP3    H167792   0.574   1.449  17.006  1.2310 -1.6199  0.3888
15459TIP3    H267793   0.463   1.485  17.102  0.6947  0.0816 -0.8482
15460TIP3   OH267794   6.352   2.359  15.435  0.2140 -0.3908  0.3987
15460TIP3    H167795   6.375   2.404  15.516 -2.3439 -0.5007  1.2354
15460TIP3    H267796   6.401   2.405  15.367  0.8189  1.0020  1.7540
15461TIP3   OH267797   6.115   5.650  10.892  0.2160  0.4217  0.2700
15461TIP3    H167798   6.031   5.604  10.893  0.1442  0.5434 -0.3210
15461TIP3    H267799   6.106   5.715  10.822  1.6350 -1.1037 -1.3517
15462TIP3   OH267800   0.385   5.335   2.166  0.9073 -0.8433  0.3090
15462TIP3    H167801   0.313   5.364   2.109  2.0327  1.2221 -0.1100
15462TIP3    H267802   0.402   5.245   2.138 -0.0782 -0.6229 -1.0786
15463TIP3   OH267803   2.590   0.503   4.679  0.2671  0.2447 -0.2017
15463TIP3    H167804   2.575   0.534   4.589  2.6537 -0.1266 -0.7687
15463TIP3    H267805   2.652   0.431   4.669 -0.6548 -0.8259  1.6291
15464TIP3   OH267806   1.476   6.617  15.341  0.1307 -1.2124 -0.5593
15464TIP3    H167807   1.414   6.685  15.369 -3.1081 -4.4013  0.3888
15464TIP3    H267808   1.455   6.602  15.249  1.2392 -0.5671 -0.9285
15465TIP3   OH267809   4.458   2.437   3.452  0.3997 -0.4624  0.4972
15465TIP3    H167810   4.492   2.389   3.528  0.0290  0.0568  1.0023
15465TIP3    H267811   4.440   2.370   3.387  0.8285 -0.9046  0.8297
15466TIP3   OH267812   2.479   5.634   4.315  0.1127  0.3741 -0.3740
15466TIP3    H167813   2.437   5.557   4.353 -0.9293  0.0852 -2.0521
15466TIP3    H267814   2.457   5.706   4.374 -0.3201 -0.3087  0.3013
15467TIP3   OH267815   5.668   4.617  11.621 -0.1405  0.1501  0.2383
15467TIP3    H167816   5.684   4.634  11.528  2.0144 -0.5525  0.4603
15467TIP3    H267817   5.755   4.616  11.661 -0.9667 -0.6345  2.0721
15468TIP3   OH267818   1.847   1.809   6.406 -0.0336 -0.3444  0.1900
15468TIP3    H167819   1.782   1.879   6.408  0.3799  0.0240  0.8379
15468TIP3    H267820   1.845   1.776   6.316 -0.2639  0.4518 -0.0935
15469TIP3   OH267821   6.448   3.963  17.146 -0.3104  0.4875  0.4598
15469TIP3    H167822   6.473   4.031  17.083 -2.6813  0.6188 -0.3603
15469TIP3    H267823   6.421   3.889  17.092 -1.5942  0.3169  1.3144
15470TIP3   OH267824   3.724   1.900   5.687 -0.3191 -0.1170 -0.3374
15470TIP3    H167825   3.675   1.970   5.644  0.7421  1.3481  0.7748
15470TIP3    H267826   3.668   1.873   5.760 -1.1344 -1.0892 -1.2970
15471TIP3   OH267827   5.123   6.193   5.729 -0.2169  0.2549  0.3903
15471TIP3    H167828   5.129   6.288   5.729  2.6605  0.1337  3.1290
15471TIP3    H267829   5.059   6.172   5.797 -0.3332  0.2004  0.2653
15472TIP3   OH267830   6.141   0.551   0.092  0.5331 -0.0025  0.0092
15472TIP3    H167831   6.162   0.565   0.184 -0.0454  1.5127 -0.0759
15472TIP3    H267832   6.196   0.613   0.045 -1.4965  1.5089 -0.4427
15473TIP3   OH267833   4.366   1.802  15.388 -0.3411 -0.5461  0.0107
15473TIP3    H167834   4.409   1.879  15.351 -1.2167 -0.0812 -0.0434
15473TIP3    H267835   4.273   1.816  15.371 -0.4483 -1.9185 -0.5574
15474TIP3   OH267836   3.690   6.377   0.578  0.1117  0.0471  0.6143
15474TIP3    H167837   3.757   6.390   0.645 -1.2430  0.1115  1.9972
15474TIP3    H267838   3.665   6.466   0.551  1.8380  0.0138 -1.2357
15475TIP3   OH267839   4.742   6.064  12.332  0.1421 -0.4578  0.1664
15475TIP3    H167840   4.816   6.114  12.297  0.0408  0.2803  0.9844
15475TIP3    H267841   4.670   6.081  12.273 -0.0728  0.9067  0.8145
15476TIP3   OH267842   2.121   6.676   3.076  0.2522  0.2964  0.0042
15476TIP3    H167843   2.075   6.686   2.992  0.8466 -0.1690 -0.3849
15476TIP3    H267844   2.051   6.674   3.142 -0.2371  0.3666 -0.5063
15477TIP3   OH267845   1.826   5.172   1.918 -0.2073 -0.6632  0.4253
15477TIP3    H167846   1.894   5.106   1.900 -1.0037 -1.4098  0.1441
15477TIP3    H267847   1.766   5.165   1.844 -0.4703  0.1619  0.5584
15478TIP3   OH267848   6.392   0.448   4.077 -0.3609  0.3087  0.0408
15478TIP3    H167849   6.417   0.478   4.165 -1.3257  0.7073  0.1814
15478TIP3    H267850   6.468   0.399   4.046 -0.5779 -1.1131  1.7022
15479TIP3   OH267851   1.996   3.625   1.414 -0.2864 -0.2774  0.1861
15479TIP3    H167852   2.058   3.671   1.358 -0.3497  0.6956  0.9208
15479TIP3    H267853   1.942   3.693   1.453 -1.5158 -1.0818 -0.0655
15480TIP3   OH267854   4.642   1.526  15.179  0.3745  0.0698 -0.6140
15480TIP3    H167855   4.649   1.607  15.229  0.1771 -0.3682  0.1194
15480TIP3    H267856   4.706   1.467  15.219  0.5851 -0.1152 -1.2056
15481TIP3   OH267857   2.235   3.902   2.762 -0.5634  0.8079 -0.2449
15481TIP3    H167858   2.295   3.935   2.695 -0.1248  0.7650  0.1241
15481TIP3    H267859   2.292   3.864   2.829 -1.0513 -1.2658 -0.9356
15482TIP3   OH267860   0.359   0.208   3.654 -0.0017  0.0601  0.6217
15482TIP3    H167861   0.291   0.233   3.592  0.1258  0.2360  0.5519
15482TIP3    H267862   0.312   0.187   3.735  0.0020  2.0299  1.1601
15483TIP3   OH267863   4.022   1.841   1.863  0.4770  0.3821  0.5125
15483TIP3    H167864   3.952   1.857   1.800 -0.8872 -1.0096  1.6371
15483TIP3    H267865   3.978   1.845   1.948  2.1028  1.2398  1.3378
15484TIP3   OH267866   1.610   3.687   1.646  0.1308  0.0228  0.9111
15484TIP3    H167867   1.646   3.776   1.653 -1.4430  0.9615 -1.9872
15484TIP3    H267868   1.516   3.698   1.658 -0.0318 -1.2871  0.8777
15485TIP3   OH267869   4.327   1.201   1.110 -0.5604  0.2852 -0.1480
15485TIP3    H167870   4.383   1.150   1.052 -1.2395  0.3272 -0.8504
15485TIP3    H267871   4.387   1.260   1.156 -0.1788  1.2896 -1.8989
15486TIP3   OH267872   0.071   5.393   1.681 -0.5636  0.3789 -0.2262
15486TIP3    H167873   0.015   5.318   1.661 -0.7921 -0.0879  2.0423
15486TIP3    H267874   0.159   5.357   1.689 -0.8313  0.1479  1.9180
15487TIP3   OH267875   0.788   2.755  13.563  0.4012 -0.2762 -0.5780
15487TIP3    H167876   0.854   2.814  13.526  0.7942  0.2579  0.9272
15487TIP3    H267877   0.816   2.741  13.653 -0.5676 -1.5054 -0.4527
15488TIP3   OH267878   2.207   1.903   4.449  0.9378 -0.6275 -0.1320
15488TIP3    H167879   2.148   1.828   4.456  0.8884 -0.6198 -0.4833
15488TIP3    H267880   2.239   1.916   4.538  0.2023 -0.4644  0.1115
15489TIP3   OH267881   5.208   1.807   5.322 -0.5050  0.2108  0.2792
15489TIP3    H167882   5.145   1.788   5.392 -0.3787 -0.1785  0.2895
15489TIP3    H267883   5.289   1.828   5.368  0.3196 -2.6227  0.2497
15490TIP3   OH267884   5.697   0.806  16.022 -0.4378  0.5465  0.6562
15490TIP3    H167885   5.728   0.868  15.956  1.1097  0.1422  0.9657
15490TIP3    H267886   5.606   0.832  16.039 -0.7787  0.7849 -1.4467
15491TIP3   OH267887   3.454   1.993  14.765 -0.2062 -0.6953  0.2186
15491TIP3    H167888   3.531   2.023  14.814 -0.4869  0.8723 -0.2813
15491TIP3    H267889   3.439   2.061  14.700 -1.8601 -1.1338  0.1271
15492TIP3   OH267890   6.270   0.116  11.232 -0.3460  0.1306 -0.1454
15492TIP3    H167891   6.275   0.046  11.167  0.0618  1.0615 -1.1274
15492TIP3    H267892   6.197   0.170  11.203 -0.8843 -0.0696  0.8077
15493TIP3   OH267893   0.578   2.994   5.538 -0.3267  0.0844  0.0666
15493TIP3    H167894   0.617   2.951   5.462  0.7376 -0.3955  0.8710
15493TIP3    H267895   0.494   3.028   5.506  0.5444  0.7498 -1.5697
15494TIP3   OH267896   0.370   0.711   2.513  0.4036  0.2286  0.2719
15494TIP3    H167897   0.334   0.800   2.513 -0.1834 -0.0004  1.1496
15494TIP3    H267898   0.350   0.677   2.601  2.3631 -0.0728  0.6074
15495TIP3   OH267899   6.719   1.560   5.516 -0.4109  0.1691 -0.0892
15495TIP3    H167900   6.730   1.494   5.448  0.7976 -0.9840  1.2097
15495TIP3    H267901   6.626   1.583   5.512 -0.3551  0.1703 -2.1622
15496TIP3   OH267902   1.359   4.287   0.696  0.9467 -0.2669  0.3858
15496TIP3    H167903   1.303   4.361   0.675  0.4330 -0.8964 -0.5187
15496TIP3    H267904   1.448   4.324   0.699  0.7193  0.3450 -0.2444
15497TIP3   OH267905   6.452   6.140   4.558 -0.4833  0.4831  0.9378
15497TIP3    H167906   6.523   6.202   4.575  0.4574  0.2412 -1.8252
15497TIP3    H267907   6.399   6.183   4.490 -1.0346 -0.8015  0.5461
15498TIP3   OH267908   3.602   5.362   2.298  0.1276 -0.4361  0.0161
15498TIP3    H167909   3.517   5.333   2.330 -0.8114  0.1362 -1.8749
15498TIP3    H267910   3.662   5.348   2.372 -1.5062 -1.2586  1.2138
15499TIP3   OH267911   0.567   2.820  17.124 -0.2883 -0.1647  0.0249
15499TIP3    H167912   0.537   2.869  17.201 -1.3625 -2.1747  0.9580
15499TIP3    H267913   0.557   2.728  17.150 -1.7172 -0.8850 -2.9372
15500TIP3   OH267914   4.349   0.318   0.412 -0.0403 -0.3912 -0.1084
15500TIP3    H167915   4.333   0.231   0.450 -0.3177 -0.6148 -0.7164
15500TIP3    H267916   4.346   0.302   0.317  0.1856  0.2344 -0.2177
15501TIP3   OH267917   4.264   3.750  13.928 -0.3615  0.5631 -0.2166
15501TIP3    H167918   4.287   3.827  13.876  1.0213  0.3682  0.0924
15501TIP3    H267919   4.184   3.716  13.887 -0.0189  1.1762 -1.4069
15502TIP3   OH267920   3.828   1.583   2.079 -0.3132  0.4220  0.8492
15502TIP3    H167921   3.790   1.632   2.006  0.8016 -1.4259 -1.0234
15502TIP3    H267922   3.899   1.533   2.040 -1.5578 -2.8695  2.6150
15503TIP3   OH267923   5.442   2.768  11.888  0.2854  0.3576  0.1732
15503TIP3    H167924   5.372   2.715  11.851  1.3521  0.8779 -2.7149
15503TIP3    H267925   5.428   2.856  11.851  1.7250  0.7491  0.5178
15504TIP3   OH267926   3.051   2.125  15.922 -0.2878 -0.1447  0.0105
15504TIP3    H167927   3.122   2.184  15.947 -0.6590  0.0042  0.7369
15504TIP3    H267928   2.971   2.170  15.951 -0.4956 -1.5974  1.8215
15505TIP3   OH267929   4.660   3.592  11.092  0.3351 -0.0926  0.7455
15505TIP3    H167930   4.602   3.556  11.025  0.4002 -0.0734  0.6788
15505TIP3    H267931   4.695   3.672  11.052 -0.4404  0.4798  1.2007
15506TIP3   OH267932   3.653   0.841  16.886 -0.1948 -0.6416 -0.0500
15506TIP3    H167933   3.565   0.851  16.851 -0.2953 -0.5720  0.2257
15506TIP3    H267934   3.688   0.764  16.840 -0.7574 -1.2736  0.5656
15507TIP3   OH267935   5.966   5.307   5.503  0.8997  0.3007 -0.4997
15507TIP3    H167936   6.005   5.293   5.589 -0.5510 -0.3318  0.0753
15507TIP3    H267937   6.040   5.325   5.445  2.1280 -1.6485  0.4038
15508TIP3   OH267938   2.279   2.168   5.367 -0.3149  0.5937 -0.6285
15508TIP3    H167939   2.355   2.181   5.310 -0.1613 -0.7931 -0.7549
15508TIP3    H267940   2.306   2.201   5.452  0.6399 -0.4139 -0.5287
15509TIP3   OH267941   0.456   4.627  16.768 -0.1809 -0.7885 -0.7568
15509TIP3    H167942   0.435   4.649  16.859 -0.1365 -1.7348 -0.5067
15509TIP3    H267943   0.530   4.567  16.775  0.2383 -0.3581 -1.4571
15510TIP3   OH267944   5.924   2.036   6.544  0.7170 -0.1516 -0.5798
15510TIP3    H167945   5.898   2.128   6.553  0.4625 -0.3533  0.7684
15510TIP3    H267946   6.020   2.038   6.547  0.7059  0.0446 -0.3257
15511TIP3   OH267947   2.308   3.187  10.518  0.6653 -0.8861 -0.0944
15511TIP3    H167948   2.245   3.122  10.549  0.5389  0.6779  3.1785
15511TIP3    H267949   2.376   3.188  10.585 -0.2575  3.5935  0.9700
15512TIP3   OH267950   3.654   5.353  13.552  0.1646  1.0119  0.0168
15512TIP3    H167951   3.712   5.375  13.480 -0.6368 -0.0497 -0.9690
15512TIP3    H267952   3.566   5.375  13.520 -0.0427  2.2448  1.3508
15513TIP3   OH267953   4.972   2.209  15.036 -0.2068 -0.6756  0.1560
15513TIP3    H167954   5.008   2.211  14.947 -0.2726 -0.3113  0.1336
15513TIP3    H267955   4.928   2.294  15.045  0.9421 -0.1617  1.0127
15514TIP3   OH267956   2.506   6.363   0.042  0.8101 -0.5083 -0.2095
15514TIP3    H167957   2.550   6.403  -0.033  0.0862 -0.8428 -0.8247
15514TIP3    H267958   2.537   6.273   0.044 -0.1983 -0.8877 -0.9480
15515TIP3   OH267959   5.532   1.012   5.861  0.1545 -0.2222 -0.2573
15515TIP3    H167960   5.621   1.002   5.894 -0.1780 -1.5180  0.2805
15515TIP3    H267961   5.492   0.926   5.873 -1.8497  0.9108  1.5397
15516TIP3   OH267962   3.481   3.238   0.321  0.3971  0.1109 -0.1687
15516TIP3    H167963   3.418   3.308   0.303  0.0873  0.1367  0.9716
15516TIP3    H267964   3.557   3.283   0.357  0.0695 -0.1624  0.8790
15517TIP3   OH267965   0.320   2.617   3.830 -0.0494 -0.2511 -0.3636
15517TIP3    H167966   0.297   2.575   3.748 -0.4795 -0.1207 -0.3105
15517TIP3    H267967   0.362   2.699   3.803  0.0203 -0.3171 -0.4563
15518TIP3   OH267968   4.574   5.514  11.631 -0.2129 -0.0613  0.4116
15518TIP3    H167969   4.533   5.483  11.712  0.3204 -2.5003 -0.2071
15518TIP3    H267970   4.622   5.438  11.598 -1.2358  0.5744 -2.7135
15519TIP3   OH267971   3.275   0.725   4.724  0.1259 -0.2115  0.7628
15519TIP3    H167972   3.219   0.791   4.685  1.2574  1.1712  1.4311
15519TIP3    H267973   3.306   0.673   4.649 -1.0702 -0.2309  0.2790
15520TIP3   OH267974   5.536   0.694  13.417 -0.1957  0.0278  0.6710
15520TIP3    H167975   5.469   0.656  13.360  0.5456 -1.7272  0.9430
15520TIP3    H267976   5.497   0.691  13.505 -0.0394 -0.3767  0.7296
15521TIP3   OH267977   3.649   5.184  15.519 -0.0935 -0.3416  0.3316
15521TIP3    H167978   3.729   5.213  15.562  0.3174  0.7014 -1.1027
15521TIP3    H267979   3.584   5.251  15.538  0.1562  0.2548 -0.8356
15522TIP3   OH267980   0.067   3.303   1.047 -0.0620 -0.4671 -0.0754
15522TIP3    H167981   0.021   3.354   1.114 -1.1693 -2.8010  0.9803
15522TIP3    H267982   0.139   3.261   1.094 -0.3024 -1.4024 -0.5372
15523TIP3   OH267983   2.333   0.556  11.796 -0.4024  0.2739 -0.0643
15523TIP3    H167984   2.404   0.538  11.858  0.1440  0.6682 -0.5627
15523TIP3    H267985   2.315   0.472  11.755  1.4586  0.6410 -1.6851
15524TIP3   OH267986   0.644   2.458  11.674  0.1411  0.2277 -0.0638
15524TIP3    H167987   0.608   2.546  11.659  1.4568  0.6505 -0.8034
15524TIP3    H267988   0.733   2.474  11.706  0.2490 -0.8393  0.1760
15525TIP3   OH267989   4.439   4.365   3.882 -0.1038 -0.4855 -0.0813
15525TIP3    H167990   4.349   4.335   3.885  0.2255 -1.4717  0.2089
15525TIP3    H267991   4.433   4.460   3.887 -1.1117 -0.5594  0.1643
15526TIP3   OH267992   1.851   4.663   3.510  0.2104 -0.2571  0.5184
15526TIP3    H167993   1.793   4.595   3.545  0.0453 -2.1051 -3.1148
15526TIP3    H267994   1.931   4.617   3.487  1.1748  1.3334  0.6171
15527TIP3   OH267995   2.004   4.451   2.817  0.2240  0.1730  0.3830
15527TIP3    H167996   1.934   4.394   2.851 -1.2511  2.2314  0.8924
15527TIP3    H267997   2.011   4.428   2.725 -1.7814  0.5590  0.1165
15528TIP3   OH267998   2.200   4.779  15.316 -0.0877  0.0571 -0.1871
15528TIP3    H167999   2.119   4.817  15.349  0.5392  1.3910 -0.1450
15528TIP3    H268000   2.188   4.685  15.326 -1.8334  0.2094 -0.6521
15529TIP3   OH268001   5.394   0.740  11.310 -0.0921 -0.1645  0.3800
15529TIP3    H168002   5.308   0.711  11.280  0.2712 -0.0511 -0.7816
15529TIP3    H268003   5.378   0.776  11.397 -1.1838 -0.3286  0.2548
15530TIP3   OH268004   1.493   3.285  11.925 -0.6841  0.3371 -0.5526
15530TIP3    H168005   1.552   3.276  11.850  0.3161  0.0776  0.2547
15530TIP3    H268006   1.490   3.197  11.964 -1.6012  0.3507 -0.5887
15531TIP3   OH268007   0.085   4.331  15.127  0.0517 -0.1394 -0.2521
15531TIP3    H168008   0.015   4.395  15.116  0.3376  0.2135 -0.0484
15531TIP3    H268009   0.133   4.334  15.044 -2.5052 -3.2589 -1.9639
15532TIP3   OH268010   5.360   0.710  16.081 -0.3093  0.5689  0.1020
15532TIP3    H168011   5.270   0.678  16.074  0.6568 -1.9774 -1.3695
15532TIP3    H268012   5.392   0.714  15.991  1.4703  0.1765  0.6972
15533TIP3   OH268013   5.253   1.192  16.314 -0.0336  0.6547  0.1603
15533TIP3    H168014   5.187   1.142  16.361 -1.0943  0.1072 -1.8469
15533TIP3    H268015   5.334   1.143  16.327 -0.9865 -1.4035 -1.4390
15534TIP3   OH268016   4.272   1.225  16.988 -0.3141  0.2683 -0.4143
15534TIP3    H168017   4.210   1.298  16.995 -0.6164  0.1011 -1.3272
15534TIP3    H268018   4.248   1.167  17.060 -1.2085  0.2196 -0.7436
15535TIP3   OH268019   3.006   6.559  16.016 -0.2529  0.4206 -0.2887
15535TIP3    H168020   3.050   6.478  15.989 -0.1953  0.7660 -1.2699
15535TIP3    H268021   2.929   6.563  15.960 -0.7697  0.5519  0.4281
15536TIP3   OH268022   5.150   6.200   1.598  0.1876 -0.5257 -0.3365
15536TIP3    H168023   5.144   6.295   1.599 -0.8615 -0.5712 -1.1894
15536TIP3    H268024   5.059   6.170   1.595  0.4483 -1.5829  1.2989
15537TIP3   OH268025   5.219   0.805  12.457 -0.0678  0.1158 -0.2037
15537TIP3    H168026   5.246   0.897  12.449  0.7161  0.0829  1.6871
15537TIP3    H268027   5.130   0.803  12.423  0.3695  1.3257 -1.4549
15538TIP3   OH268028   5.751   5.556  16.510  0.3997  0.5039 -0.3491
15538TIP3    H168029   5.692   5.593  16.575  0.0193  1.0711 -1.0170
15538TIP3    H268030   5.838   5.567  16.549  0.1839  0.9063  0.0308
15539TIP3   OH268031   4.818   5.800   5.293 -0.2564  0.8051 -0.1192
15539TIP3    H168032   4.875   5.774   5.220 -0.5596 -0.2699  0.0179
15539TIP3    H268033   4.792   5.717   5.333 -2.5537  1.2379 -0.6462
15540TIP3   OH268034   3.566   0.218   3.717  0.8507  0.5459 -0.4302
15540TIP3    H168035   3.597   0.298   3.758  2.3285 -0.9495  1.4707
15540TIP3    H268036   3.582   0.150   3.782 -1.5562 -1.1134 -1.5064
15541TIP3   OH268037   1.611   1.764   1.437  0.3047  0.3917 -0.0596
15541TIP3    H168038   1.576   1.807   1.359  0.0129  0.0322 -0.1297
15541TIP3    H268039   1.706   1.764   1.424  0.2832  0.6874 -0.2270
15542TIP3   OH268040   5.895   5.378   2.187  0.1900 -0.0571  0.0876
15542TIP3    H168041   5.808   5.380   2.147 -0.3657  1.3999  1.3114
15542TIP3    H268042   5.878   5.355   2.279  1.4649 -3.5571 -0.4804
15543TIP3   OH268043   0.787   0.463  15.443  0.0418 -0.2582 -0.3607
15543TIP3    H168044   0.726   0.389  15.444 -0.8512  0.4668 -0.4900
15543TIP3    H268045   0.800   0.481  15.350 -0.6455  0.4823 -0.3158
15544TIP3   OH268046   4.394   5.249   3.717  0.6833 -0.4916  0.1685
15544TIP3    H168047   4.324   5.262   3.653  0.4453 -2.5823 -0.0433
15544TIP3    H268048   4.355   5.196   3.786  2.2346 -2.3714 -0.3439
15545TIP3   OH268049   2.563   1.951  17.037 -0.1971 -0.3602 -0.2354
15545TIP3    H168050   2.553   2.024  17.098  0.8390  0.6308 -1.2550
15545TIP3    H268051   2.476   1.910  17.036 -0.0909 -0.7932  2.3697
15546TIP3   OH268052   4.126   5.562   4.851  0.3830  0.3668  0.6789
15546TIP3    H168053   4.210   5.598   4.823  1.0144 -0.4461  1.4808
15546TIP3    H268054   4.147   5.473   4.881 -0.9962 -0.3408 -0.4104
15547TIP3   OH268055   5.408   3.455  13.033  0.3178 -0.4934  0.2285
15547TIP3    H168056   5.427   3.473  12.941  1.2085  1.9886  0.8622
15547TIP3    H268057   5.314   3.433  13.034  0.3414 -0.7278 -1.2863
15548TIP3   OH268058   0.974   2.380  14.916  0.2547  0.4755 -0.1777
15548TIP3    H168059   0.917   2.373  14.993 -1.8918  2.2298 -1.5456
15548TIP3    H268060   1.011   2.468  14.922  0.1443  0.5867 -1.0943
15549TIP3   OH268061   6.209   1.985  12.931  0.2247 -0.2168  0.4136
15549TIP3    H168062   6.219   1.891  12.918 -1.8098 -0.1220 -2.0775
15549TIP3    H268063   6.126   1.995  12.976 -0.0334  0.4476 -0.1958
15550TIP3   OH268064   4.934   3.299   4.762  0.2256  0.0158 -0.3316
15550TIP3    H168065   4.989   3.344   4.826  1.9359 -1.7010 -0.5649
15550TIP3    H268066   4.885   3.234   4.814  1.2015 -0.9978 -0.6706
15551TIP3   OH268067   5.585   2.976  12.923  0.4982  0.2114  0.2461
15551TIP3    H168068   5.641   3.048  12.951  0.5856 -0.0356  0.7134
15551TIP3    H268069   5.552   3.003  12.838  1.2323  0.4162  0.0221
15552TIP3   OH268070   5.512   2.823  13.997 -0.2435 -1.1288  0.0095
15552TIP3    H168071   5.467   2.890  13.944  1.3463  0.2631  0.3722
15552TIP3    H268072   5.601   2.821  13.963  0.3904 -1.2925  1.6242
15553TIP3   OH268073   6.201   5.461   3.089 -0.0915 -0.1290 -0.4195
15553TIP3    H168074   6.168   5.399   3.024 -2.0210  0.9713 -0.5358
15553TIP3    H268075   6.175   5.547   3.055  1.6378  0.6853  0.2509
15554TIP3   OH268076   1.276   4.707   1.080 -0.4026 -0.0316 -0.0278
15554TIP3    H168077   1.282   4.689   1.174  0.0728 -2.0683 -0.4372
15554TIP3    H268078   1.351   4.765   1.062 -0.3763  0.2024  0.7999
15555TIP3   OH268079   4.426   1.400   3.319  0.0900  0.0552 -0.2851
15555TIP3    H168080   4.350   1.342   3.312  2.0744 -2.6096 -0.2769
15555TIP3    H268081   4.423   1.432   3.410 -2.2316  1.7739 -0.9029
15556TIP3   OH268082   1.967   3.492   5.884  0.0140  0.1988 -0.0334
15556TIP3    H168083   1.889   3.447   5.917 -0.1307 -0.9461 -1.8483
15556TIP3    H268084   1.998   3.436   5.813  2.3383  0.7899  0.4860
15557TIP3   OH268085   6.368   6.684   6.045  0.7544 -0.2046  0.0021
15557TIP3    H168086   6.313   6.722   6.114  0.1089 -0.1628 -0.5263
15557TIP3    H268087   6.457   6.692   6.079  0.3928 -0.8102  1.1293
15558TIP3   OH268088   5.099   4.870  15.964  0.1687  0.2591  0.2098
15558TIP3    H168089   5.010   4.891  15.935  0.1586  1.6423  1.2021
15558TIP3    H268090   5.120   4.938  16.028  1.5030 -0.7389  0.8523
15559TIP3   OH268091   6.165   5.670   4.864  0.3970 -0.0729 -0.1027
15559TIP3    H168092   6.156   5.600   4.928 -2.0551 -0.2710 -0.6358
15559TIP3    H268093   6.132   5.748   4.909 -0.1638  0.0392 -0.7066
15560TIP3   OH268094   4.598   5.193   2.702 -0.0149 -1.0034 -0.5384
15560TIP3    H168095   4.684   5.164   2.671  0.4108  0.0175 -0.3575
15560TIP3    H268096   4.555   5.228   2.623  0.7083  0.7429 -0.1950
15561TIP3   OH268097   5.468   6.182  11.235  0.2158  1.0424 -0.2755
15561TIP3    H168098   5.530   6.151  11.169 -1.6336 -1.6557 -0.8320
15561TIP3    H268099   5.393   6.212  11.184 -0.6406  0.3052  0.5295
15562TIP3   OH268100   5.616   4.722   0.840 -0.4622 -0.0699 -0.4104
15562TIP3    H168101   5.573   4.641   0.867 -0.5094  0.6691  1.7986
15562TIP3    H268102   5.580   4.740   0.753  1.2344 -3.6052 -1.9287
15563TIP3   OH268103   5.936   6.272   6.412 -0.0671  0.0705 -0.5829
15563TIP3    H168104   5.914   6.296   6.322  1.8359  1.0513 -0.8212
15563TIP3    H268105   6.015   6.323   6.431  0.9848 -1.9898  0.7766
15564TIP3   OH268106   1.338   3.991  13.734 -0.4715 -0.6734 -0.3512
15564TIP3    H168107   1.421   4.016  13.693 -0.1680 -1.1627 -0.0488
15564TIP3    H268108   1.281   3.967  13.661 -0.0958 -1.0697 -0.5200
15565TIP3   OH268109   5.517   2.031  14.857 -0.0782  0.3599  0.0589
15565TIP3    H168110   5.529   1.992  14.944 -2.0070  0.3704  0.3480
15565TIP3    H268111   5.604   2.061  14.832  0.7205 -0.7290  1.4733
15566TIP3   OH268112   5.954   1.784  10.618 -0.1057  0.8628  0.9736
15566TIP3    H168113   6.024   1.827  10.667 -0.6718  1.1592  1.5303
15566TIP3    H268114   5.999   1.731  10.552  0.5905  2.6238  0.0052
15567TIP3   OH268115   5.979   0.026   4.235  0.5449 -0.0726  0.5101
15567TIP3    H168116   5.905  -0.020   4.275 -0.3792  0.6723 -0.3209
15567TIP3    H268117   5.975   0.003   4.142  1.1037  0.2958  0.3889
15568TIP3   OH268118   2.706   0.550  15.538 -0.4308 -0.2870 -0.1371
15568TIP3    H168119   2.790   0.505  15.546  0.0795  0.9472  2.0307
15568TIP3    H268120   2.710   0.594  15.453  0.6882 -1.0934 -0.5137
15569TIP3   OH268121   1.314   6.753   3.749  0.1833  0.3243 -0.1590
15569TIP3    H168122   1.408   6.764   3.757  0.4036 -0.5025 -1.3542
15569TIP3    H268123   1.287   6.817   3.683 -0.2527  1.2541  0.9156
15570TIP3   OH268124   2.604   2.621  12.539 -0.7950 -0.1434 -0.1669
15570TIP3    H168125   2.569   2.644  12.625  1.8506  0.3357  0.8327
15570TIP3    H268126   2.582   2.695  12.484 -0.0004  0.8763  0.8474
15571TIP3   OH268127   4.308   0.977  13.280 -0.5534 -0.0274 -0.4641
15571TIP3    H168128   4.220   0.948  13.302  0.0738 -1.8007 -0.1856
15571TIP3    H268129   4.321   0.948  13.190 -0.8437  1.7036 -1.0868
15572TIP3   OH268130   6.035   1.680  11.702 -0.3077  0.4495 -0.0244
15572TIP3    H168131   6.125   1.651  11.713  0.7314  3.2467 -0.7038
15572TIP3    H268132   6.033   1.768  11.739 -2.5203  0.7876 -0.8635
15573TIP3   OH268133   2.771   1.795  15.291  0.1699 -0.4043  0.0883
15573TIP3    H168134   2.784   1.715  15.341 -0.4232 -0.4944  0.0935
15573TIP3    H268135   2.842   1.853  15.320  1.2591 -1.2995 -0.6898
15574TIP3   OH268136   4.074   3.823  17.015 -0.2923  0.1212  0.1307
15574TIP3    H168137   4.159   3.808  17.057 -0.2145  1.1091  0.3336
15574TIP3    H268138   4.075   3.767  16.938 -0.0705 -1.0399  0.9563
15575TIP3   OH268139   6.776   1.497   2.173 -0.4860  0.5963  0.1696
15575TIP3    H168140   6.786   1.452   2.257 -0.8130 -0.4444 -0.3393
15575TIP3    H268141   6.863   1.494   2.134 -0.7581 -0.5873 -0.3532
15576TIP3   OH268142   0.825   5.754   4.415  0.2431 -0.5057  0.2579
15576TIP3    H168143   0.901   5.808   4.437 -0.0677 -0.2325  0.6632
15576TIP3    H268144   0.756   5.817   4.393  0.2947 -0.7651 -0.6384
15577TIP3   OH268145   5.178   0.293   3.199  0.3138  0.2745  0.6242
15577TIP3    H168146   5.158   0.283   3.292 -2.5167 -0.9986 -0.0418
15577TIP3    H268147   5.189   0.203   3.167  0.9201  0.6766 -0.3253
15578TIP3   OH268148   3.586   5.394  13.125 -0.2080  0.0727  0.1066
15578TIP3    H168149   3.656   5.346  13.169  0.4550  2.1779  1.4356
15578TIP3    H268150   3.608   5.486  13.139 -2.4166  0.7691 -0.8055
15579TIP3   OH268151   5.803   0.350  13.062  0.2251 -0.4707  0.1576
15579TIP3    H168152   5.814   0.268  13.109  2.3894 -0.5035 -0.3540
15579TIP3    H268153   5.892   0.380  13.045 -0.5395  1.7435 -0.0835
15580TIP3   OH268154   0.532   6.477  14.783  0.4071  0.2673  0.3250
15580TIP3    H168155   0.556   6.435  14.700 -1.1653 -2.7252  1.3090
15580TIP3    H268156   0.614   6.478  14.833  0.4503 -1.8366  0.3351
15581TIP3   OH268157   1.481   3.721   4.686 -0.4707 -0.2270  0.1947
15581TIP3    H168158   1.531   3.776   4.626 -0.7282 -1.0648 -0.8059
15581TIP3    H268159   1.469   3.776   4.764  2.5478 -0.2406  0.7322
15582TIP3   OH268160   0.395   1.093   0.868  0.3780  0.3344 -0.1190
15582TIP3    H168161   0.335   1.166   0.880 -1.4726 -1.2166  0.2326
15582TIP3    H268162   0.402   1.083   0.773 -1.8535 -1.0009 -0.1706
15583TIP3   OH268163   1.734   2.175  14.169  0.0209  0.0725  0.2780
15583TIP3    H168164   1.808   2.222  14.208 -0.1760  0.9332 -0.3763
15583TIP3    H268165   1.774   2.104  14.119  0.4656  1.0374 -0.7664
15584TIP3   OH268166   0.987   0.446   5.873 -0.1297 -0.4735 -0.7833
15584TIP3    H168167   0.913   0.392   5.845 -0.6001  0.8211 -2.1001
15584TIP3    H268168   1.007   0.500   5.796  0.1540  1.4279  0.6197
15585TIP3   OH268169   1.414   0.962   1.976 -0.1724  0.4319  0.2938
15585TIP3    H168170   1.352   0.931   1.910  0.1557  2.4001 -0.9737
15585TIP3    H268171   1.430   1.054   1.953  1.5729  0.5527  1.8664
15586TIP3   OH268172   0.458   5.022   2.137 -0.0214 -0.1877 -0.0695
15586TIP3    H168173   0.407   4.948   2.104 -0.6809 -1.0464  2.6557
15586TIP3    H268174   0.460   5.008   2.232  3.2625  1.1487  0.1047
15587TIP3   OH268175   2.165   2.677   5.335 -0.0142  0.4881 -0.2547
15587TIP3    H168176   2.242   2.636   5.375 -1.1975 -0.3263  1.2482
15587TIP3    H268177   2.108   2.603   5.313 -0.8748  1.1558 -0.2844
15588TIP3   OH268178   2.011   0.583   3.046 -0.2254  0.4498 -0.3149
15588TIP3    H168179   2.050   0.667   3.069 -0.4188  1.1704 -2.4984
15588TIP3    H268180   2.066   0.518   3.089 -0.1948  1.6930  1.5615
15589TIP3   OH268181   0.274   2.267   2.415 -0.0006 -0.0598 -0.1227
15589TIP3    H168182   0.183   2.240   2.403 -0.9274  2.7462  0.0833
15589TIP3    H268183   0.326   2.191   2.390 -2.4135 -1.8549  0.1537
15590TIP3   OH268184   0.194   0.695  10.911 -0.0613  0.4558  0.4934
15590TIP3    H168185   0.121   0.696  10.973 -1.4536  0.6020 -1.1313
15590TIP3    H268186   0.170   0.629  10.846  0.6269  1.4627 -0.8113
15591TIP3   OH268187   3.351   1.888   3.183  0.2848  0.0412 -0.1825
15591TIP3    H168188   3.267   1.848   3.204  0.2711  0.0768 -0.1680
15591TIP3    H268189   3.402   1.879   3.264  0.2960  0.0165 -0.1923
15592TIP3   OH268190   3.404   0.863  13.396 -0.1080  0.1986 -0.2392
15592TIP3    H168191   3.478   0.863  13.457  0.8749  1.3367 -1.4161
15592TIP3    H268192   3.389   0.770  13.376  1.3835 -0.0052 -0.4553
15593TIP3   OH268193   3.107   1.922   0.121 -0.5439 -0.0937  0.6324
15593TIP3    H168194   3.138   1.873   0.045 -0.3788 -1.1782  1.3904
15593TIP3    H268195   3.142   2.010   0.109  0.8827 -0.6947  0.2833
15594TIP3   OH268196   2.789   3.396  16.319  0.7214 -0.2758 -0.2023
15594TIP3    H168197   2.698   3.390  16.290  0.8210 -1.4302 -0.2803
15594TIP3    H268198   2.828   3.313  16.293  1.8881  0.3367 -0.4607
15595TIP3   OH268199   5.440   5.555   0.763  0.1889 -0.2378  0.2773
15595TIP3    H168200   5.420   5.649   0.758 -0.2675 -0.3171  0.5359
15595TIP3    H268201   5.534   5.549   0.747  0.2770  0.2930  0.5865
15596TIP3   OH268202   5.643   4.535  15.841 -0.1225 -0.2147  0.3626
15596TIP3    H168203   5.697   4.603  15.881 -0.8107 -0.4037  1.6372
15596TIP3    H268204   5.696   4.456  15.844  0.9083  0.3699 -1.6488
15597TIP3   OH268205   3.082   3.153  13.578  0.4792  0.1376  0.2561
15597TIP3    H168206   3.123   3.232  13.542 -0.4765  0.2229 -0.6483
15597TIP3    H268207   3.148   3.085  13.568 -0.0298  0.0043 -2.2830
15598TIP3   OH268208   2.650   1.114   5.235  0.1800  0.0924  0.4629
15598TIP3    H168209   2.693   1.119   5.320 -0.6012  1.1510  0.8139
15598TIP3    H268210   2.572   1.169   5.244 -0.7477 -1.0498 -0.4501
15599TIP3   OH268211   1.341   0.530   2.212  0.1151  0.3662 -0.8393
15599TIP3    H168212   1.247   0.512   2.212  0.1496  0.1824  0.4944
15599TIP3    H268213   1.351   0.602   2.274  1.2785 -1.8608  1.6205
15600TIP3   OH268214   5.654   1.728   4.325 -0.3827 -0.1468  0.1526
15600TIP3    H168215   5.691   1.816   4.315 -0.1922 -0.2417  0.0172
15600TIP3    H268216   5.719   1.681   4.377 -0.2842 -0.3352 -0.1440
15601TIP3   OH268217   6.588   1.877   2.885  0.1925 -0.1516 -0.2008
15601TIP3    H168218   6.658   1.924   2.839  1.9345 -1.6666  0.7859
15601TIP3    H268219   6.600   1.786   2.858 -2.0083 -0.3057 -0.7149
15602TIP3   OH268220   1.348   1.318  12.442  0.4864  0.2020  0.2982
15602TIP3    H168221   1.391   1.266  12.374 -0.5148 -0.3048  0.0544
15602TIP3    H268222   1.333   1.256  12.513 -1.7983 -0.1399 -0.4580
15603TIP3   OH268223   6.174   1.235   1.681 -0.7791  0.2825  0.1659
15603TIP3    H168224   6.201   1.190   1.601  0.2283 -0.2729  0.8020
15603TIP3    H268225   6.087   1.200   1.701 -1.5590  1.3048 -1.3295
15604TIP3   OH268226   3.568   3.317   3.715 -0.5615 -0.2598  0.0750
15604TIP3    H168227   3.571   3.408   3.684 -0.7791  0.4626  2.0878
15604TIP3    H268228   3.651   3.305   3.761  0.1318 -1.5852 -1.4894
15605TIP3   OH268229   3.278   6.683   3.489  0.3119 -0.4818 -0.1770
15605TIP3    H168230   3.294   6.612   3.552 -2.7040  0.2727  1.5204
15605TIP3    H268231   3.185   6.675   3.468  0.5718  1.3102 -2.0859
15606TIP3   OH268232   6.460   0.621   4.286 -0.0368  0.3932 -0.0883
15606TIP3    H168233   6.370   0.646   4.304 -0.2136 -0.6119  0.4731
15606TIP3    H268234   6.506   0.633   4.370  1.2677  4.6960 -1.3247
15607TIP3   OH268235   2.513   2.149   5.232 -0.1347 -0.3901  0.5854
15607TIP3    H168236   2.585   2.206   5.204 -0.6506  0.8228  1.6549
15607TIP3    H268237   2.549   2.061   5.228  0.5998 -0.0384 -1.3944
15608TIP3   OH268238   4.999   2.618   2.479  0.0539 -0.0411 -0.1952
15608TIP3    H168239   5.093   2.605   2.487 -0.0519 -1.6534 -1.3073
15608TIP3    H268240   4.984   2.623   2.385 -1.0813 -0.6253 -0.0484
15609TIP3   OH268241   2.978   0.320  14.730 -0.7955 -0.1791 -0.1775
15609TIP3    H168242   3.043   0.356  14.670  0.1833 -0.5888  0.6115
15609TIP3    H268243   2.903   0.378  14.723 -0.9013 -0.5184 -2.1911
15610TIP3   OH268244   6.635   2.024   0.580  0.0015  0.0719 -0.1049
15610TIP3    H168245   6.549   1.991   0.603  0.1067  0.0375  0.2381
15610TIP3    H268246   6.694   1.985   0.644  0.3298 -0.2282 -0.5832
15611TIP3   OH268247   5.729   4.701  13.330  1.1307 -0.3111 -0.1848
15611TIP3    H168248   5.718   4.662  13.417 -1.0553 -2.0984 -1.1953
15611TIP3    H268249   5.654   4.760  13.320  1.4358 -0.0147 -0.8036
15612TIP3   OH268250   1.997   5.663   2.707 -0.1435  0.4244  0.2009
15612TIP3    H168251   2.041   5.735   2.662 -2.6031  1.3572 -0.7655
15612TIP3    H268252   1.967   5.605   2.637 -1.9473  0.6826  0.7494
15613TIP3   OH268253   4.133   1.308  14.393  0.1617 -0.3312 -0.0979
15613TIP3    H168254   4.146   1.214  14.380  0.6013 -0.5305  1.7478
15613TIP3    H268255   4.042   1.323  14.366  0.5155 -1.0241 -1.7241
15614TIP3   OH268256   3.284   1.841  12.619  0.0623 -0.4438  0.3273
15614TIP3    H168257   3.249   1.771  12.675 -1.0889  1.1830  1.7328
15614TIP3    H268258   3.364   1.868  12.663  1.0721 -1.5543 -0.7901
15615TIP3   OH268259   1.865   3.744  16.542  0.2474  0.0044  0.3408
15615TIP3    H168260   1.956   3.716  16.551  0.2894  0.2674  0.7832
15615TIP3    H268261   1.815   3.676  16.587  0.4308  1.1377  2.3631
15616TIP3   OH268262   6.610   4.489   4.685 -0.0407 -0.4595 -0.2675
15616TIP3    H168263   6.622   4.406   4.639 -0.7756 -1.1585  0.7866
15616TIP3    H268264   6.538   4.473   4.746  1.4467  0.1958  1.7248
15617TIP3   OH268265   1.059   3.847   5.209 -0.1804 -0.0841 -0.7128
15617TIP3    H168266   1.092   3.769   5.255 -0.5397 -0.0985 -0.4713
15617TIP3    H268267   1.131   3.910   5.212 -0.2004 -0.0875 -0.1233
15618TIP3   OH268268   0.603   4.195  10.381 -0.4364  0.3539  0.0968
15618TIP3    H168269   0.546   4.165  10.452  1.2033 -1.3932  0.7136
15618TIP3    H268270   0.557   4.169  10.301 -1.0016 -0.1025  0.5674
15619TIP3   OH268271   3.729   3.904  15.511 -0.4552  0.1901  0.4230
15619TIP3    H168272   3.637   3.911  15.537 -0.4592  2.5738 -0.1616
15619TIP3    H268273   3.736   3.955  15.430  0.7369 -2.5696 -1.2986
15620TIP3   OH268274   6.758   0.657   3.613 -0.6716  0.2496  0.5847
15620TIP3    H168275   6.786   0.727   3.672 -1.3490  0.5868  0.5095
15620TIP3    H268276   6.761   0.578   3.666  2.4922 -0.0883  0.0071
15621TIP3   OH268277   6.636   1.517   1.775  0.1137 -0.2260 -0.3151
15621TIP3    H168278   6.630   1.560   1.690 -0.3459  0.8707  0.2696
15621TIP3    H268279   6.560   1.458   1.777 -1.3742  1.6957  0.4114
15622TIP3   OH268280   4.227   0.139  14.607 -0.4704 -0.5939 -0.1601
15622TIP3    H168281   4.193   0.082  14.676  1.7341 -0.1978  1.2939
15622TIP3    H268282   4.190   0.225  14.627  3.2362  0.4233  2.9462
15623TIP3   OH268283   0.156   2.287   3.403 -0.6399  0.1359 -0.2332
15623TIP3    H168284   0.212   2.361   3.429  1.2670 -0.3737 -2.6764
15623TIP3    H268285   0.159   2.228   3.479  0.0393  1.3186  0.6845
15624TIP3   OH268286   0.606   2.766  14.869  0.1850 -0.9634 -0.4229
15624TIP3    H168287   0.527   2.725  14.906 -1.4320  1.4667 -1.1277
15624TIP3    H268288   0.608   2.737  14.778 -0.0028 -0.8563 -0.4609
15625TIP3   OH268289   0.075   0.354   3.660  0.3385  0.6552 -0.1094
15625TIP3    H168290   0.058   0.350   3.566 -0.8102  2.0430  0.0319
15625TIP3    H268291   0.052   0.267   3.693 -1.6501  0.9475 -0.7175
15626TIP3   OH268292   0.693   0.367   5.768  0.6378  0.3103  0.4219
15626TIP3    H168293   0.709   0.461   5.774 -0.6129  0.4995  0.7455
15626TIP3    H268294   0.598   0.358   5.765  0.7204 -1.0127  1.4346
15627TIP3   OH268295   6.301   0.243   0.835  0.0051  0.2437 -0.0858
15627TIP3    H168296   6.227   0.290   0.876 -1.1020 -1.0617 -0.5565
15627TIP3    H268297   6.359   0.222   0.908  0.4417  2.1936  0.1591
15628TIP3   OH268298   0.629   4.315  12.749 -0.0348 -0.2379 -0.3843
15628TIP3    H168299   0.620   4.227  12.786  0.2984 -0.5246 -0.9680
15628TIP3    H268300   0.547   4.330  12.703 -0.8938  0.5657  1.3939
15629TIP3   OH268301   0.592   6.160   0.577 -0.0335  0.6671  0.4890
15629TIP3    H168302   0.553   6.204   0.501  0.3241 -0.2870 -0.2490
15629TIP3    H268303   0.517   6.130   0.628 -0.3279  3.8051  2.0195
15630TIP3   OH268304   3.028   3.060   4.013  0.0664 -0.1569 -0.4741
15630TIP3    H168305   2.957   3.067   3.949 -1.0629 -3.2306  0.3225
15630TIP3    H268306   2.983   3.048   4.097  1.5353  0.7658  0.4599
15631TIP3   OH268307   5.392   0.024   1.333  0.2815 -0.3092 -0.5411
15631TIP3    H168308   5.300   0.045   1.343  0.1712 -1.4321  0.8505
15631TIP3    H268309   5.438   0.104   1.359 -0.2375 -0.5926  1.3030
15632TIP3   OH268310   5.497   2.619   2.150 -0.0179  0.1038  0.1961
15632TIP3    H168311   5.549   2.642   2.073 -0.8248  2.6008  0.3641
15632TIP3    H268312   5.501   2.696   2.206 -0.0623 -1.4098  2.3453
15633TIP3   OH268313   6.048   6.645  16.418  0.4509  0.1632 -0.2739
15633TIP3    H168314   5.989   6.597  16.359  2.0643 -0.8330 -1.0922
15633TIP3    H268315   6.119   6.584  16.436  0.3796  0.7356  2.1259
15634TIP3   OH268316   5.107   0.082  14.463 -0.5498 -0.2096  0.2101
15634TIP3    H168317   5.114   0.102  14.557 -0.8481  0.1618  0.1538
15634TIP3    H268318   5.198   0.072  14.434 -0.4687 -0.7294  0.6226
15635TIP3   OH268319   4.479   2.840  14.660 -0.4034  0.6483 -0.0549
15635TIP3    H168320   4.453   2.864  14.571 -1.4648 -2.5854 -0.7096
15635TIP3    H268321   4.399   2.850  14.712 -0.4063  0.2200  0.0229
15636TIP3   OH268322   5.252   0.863  16.447  0.1983 -0.2115  0.1880
15636TIP3    H168323   5.190   0.936  16.441  1.5709  0.9309 -0.3632
15636TIP3    H268324   5.196   0.786  16.459 -1.2904  0.8823  0.5083
15637TIP3   OH268325   6.440   4.349  15.434  0.1081  0.0266 -0.2090
15637TIP3    H168326   6.507   4.287  15.403  1.7928  0.8838  1.5927
15637TIP3    H268327   6.448   4.424  15.375  0.3103 -0.1497 -0.4077
15638TIP3   OH268328   4.224   2.641  14.991 -0.2788  0.0383 -0.8554
15638TIP3    H168329   4.269   2.587  15.055  0.6752  0.3974 -1.2051
15638TIP3    H268330   4.292   2.700  14.957 -0.6173 -0.5820 -2.6665
15639TIP3   OH268331   4.347   1.454  11.166  0.1259 -0.4057 -0.3352
15639TIP3    H168332   4.316   1.528  11.218  1.5349  0.2037 -0.3264
15639TIP3    H268333   4.276   1.437  11.104 -0.9387 -0.1794  0.8109
15640TIP3   OH268334   1.061   3.257  11.647  0.0995  0.5394 -0.2496
15640TIP3    H168335   1.006   3.178  11.644 -0.2981  0.7124  1.6952
15640TIP3    H268336   1.124   3.245  11.576  1.3447 -2.5135  1.2587
15641TIP3   OH268337   4.642   0.299   2.699  0.6171  0.0502  0.0046
15641TIP3    H168338   4.649   0.266   2.609 -1.1643  1.1186 -0.5495
15641TIP3    H268339   4.665   0.392   2.692 -1.6119  0.6497  0.2486
15642TIP3   OH268340   5.579   1.204   3.701  0.0855  0.1517 -0.0743
15642TIP3    H168341   5.581   1.240   3.612 -1.4139  0.0457 -0.1485
15642TIP3    H268342   5.550   1.277   3.756 -1.0496 -0.3854  0.0426
15643TIP3   OH268343   1.528   0.687  14.021 -0.6525 -0.6787  0.2341
15643TIP3    H168344   1.618   0.703  14.049 -0.3290 -2.0965  0.0671
15643TIP3    H268345   1.519   0.736  13.940 -0.6064  0.9310  1.1967
15644TIP3   OH268346   6.345   4.702   1.946 -0.1093  0.1033 -0.2765
15644TIP3    H168347   6.277   4.666   2.004  0.7013 -0.7340  0.1734
15644TIP3    H268348   6.418   4.723   2.005 -0.9251  3.4931 -0.3808
15645TIP3   OH268349   5.739   1.119  16.567  0.1067 -0.1375  0.2094
15645TIP3    H168350   5.803   1.108  16.497  1.7952  0.5768  1.6172
15645TIP3    H268351   5.659   1.079  16.532  1.5744 -1.9737 -1.1788
15646TIP3   OH268352   3.874   6.610  11.240  0.2006  0.1905  0.3509
15646TIP3    H168353   3.933   6.623  11.166 -0.3971  0.3513 -0.1012
15646TIP3    H268354   3.881   6.691  11.290 -0.2754  0.5572 -0.1633
15647TIP3   OH268355   4.125   6.776   0.787 -0.1586 -0.0534  0.2865
15647TIP3    H168356   4.141   6.695   0.836 -0.4636  0.9742  2.1540
15647TIP3    H268357   4.050   6.815   0.831  0.1554  1.3742 -0.4354
15648TIP3   OH268358   0.571   0.889   1.747  0.2382  0.0621  0.3628
15648TIP3    H168359   0.521   0.939   1.682  0.3248 -1.2017 -0.7033
15648TIP3    H268360   0.514   0.815   1.769  1.0349 -0.6046  0.2183
15649TIP3   OH268361   6.237   4.888   0.522  0.2584 -0.4780 -0.1030
15649TIP3    H168362   6.163   4.921   0.471 -0.4147 -0.1545  1.0654
15649TIP3    H268363   6.209   4.897   0.613  1.6374 -0.5955  0.3408
15650TIP3   OH268364   5.712   4.284   4.736 -0.7624  0.1814 -0.2033
15650TIP3    H168365   5.753   4.269   4.821 -0.0005  0.1660 -0.5711
15650TIP3    H268366   5.767   4.351   4.694 -1.2377  0.3231 -0.6098
15651TIP3   OH268367   3.022   0.237   4.858 -0.2927 -0.3977  0.0539
15651TIP3    H168368   3.031   0.270   4.769 -0.2448  1.6809  0.7879
15651TIP3    H268369   3.111   0.223   4.888 -0.3262 -1.5764 -0.3911
15652TIP3   OH268370   6.069   3.887  16.509  0.5335  0.0305  0.1126
15652TIP3    H168371   6.090   3.979  16.496  0.8266 -0.1327 -0.6184
15652TIP3    H268372   6.046   3.880  16.602  0.5185  0.8324  0.1755
15653TIP3   OH268373   5.104   1.678  15.909 -0.1452 -0.0770 -0.1894
15653TIP3    H168374   5.035   1.741  15.886 -1.1367 -1.1731 -0.2406
15653TIP3    H268375   5.168   1.686  15.838 -0.8950 -0.0438 -0.8725
15654TIP3   OH268376   1.673   3.354   3.282  0.4094  0.1644  0.4314
15654TIP3    H168377   1.752   3.405   3.264  0.0046  0.5873 -0.2062
15654TIP3    H268378   1.656   3.307   3.200  0.4440 -0.5493  0.8236
15655TIP3   OH268379   2.120   3.996   0.748  0.1097 -0.3493  0.0912
15655TIP3    H168380   2.207   3.966   0.775 -0.8903 -2.7859  0.6925
15655TIP3    H268381   2.059   3.945   0.801 -1.7658 -0.7434 -2.3395
15656TIP3   OH268382   2.535   1.649   5.017  0.6395  0.7099  0.4094
15656TIP3    H168383   2.516   1.650   5.111  0.7611  0.6223  0.4361
15656TIP3    H268384   2.482   1.720   4.981 -0.9144 -0.5250  0.2525
15657TIP3   OH268385   4.592   5.526  13.350  0.1803  0.3301 -0.2418
15657TIP3    H168386   4.672   5.512  13.401  0.1828  0.5442 -0.1866
15657TIP3    H268387   4.615   5.495  13.262  0.7293  1.5480 -0.5367
15658TIP3   OH268388   4.892   1.129   4.156  0.0425 -0.8390  0.1899
15658TIP3    H168389   4.906   1.129   4.250  1.0145 -1.9972  0.0615
15658TIP3    H268390   4.978   1.109   4.119 -0.3938 -0.6877 -0.9242
15659TIP3   OH268391   0.972   3.743  12.578 -0.1455  0.2262  0.0347
15659TIP3    H168392   0.993   3.650  12.587 -2.6164 -0.6191 -2.2733
15659TIP3    H268393   0.889   3.753  12.625 -0.3819  1.0556 -0.5514
15660TIP3   OH268394   0.300   1.800  16.590 -0.4011  0.0911  0.1588
15660TIP3    H168395   0.325   1.892  16.585  1.2808 -0.2855  1.2389
15660TIP3    H268396   0.345   1.766  16.668 -0.1328 -1.8854 -0.8062
15661TIP3   OH268397   2.636   1.646   5.981 -0.7870  0.1138  0.0030
15661TIP3    H168398   2.666   1.660   5.891 -1.1071 -0.9405 -0.2794
15661TIP3    H268399   2.543   1.669   5.979 -0.3215  2.0644  0.5541
15662TIP3   OH268400   5.539   0.139   3.032  0.6532 -0.6340 -0.4748
15662TIP3    H168401   5.532   0.211   2.969  0.9868 -1.4225 -1.4233
15662TIP3    H268402   5.511   0.061   2.984 -0.0349 -1.0964  0.6442
15663TIP3   OH268403   3.941   5.210   1.835 -0.3996 -0.0395 -0.0413
15663TIP3    H168404   3.883   5.282   1.810  1.6773  0.7202 -2.7838
15663TIP3    H268405   4.014   5.251   1.880 -0.1528 -0.6671  0.1472
15664TIP3   OH268406   1.547   0.822   2.494  0.2088 -0.3238  0.1818
15664TIP3    H168407   1.504   0.811   2.410  1.1821  0.7963 -0.4808
15664TIP3    H268408   1.480   0.859   2.551  0.0942  0.7187 -0.6314
15665TIP3   OH268409   2.987   3.915   6.027 -0.3517  0.1076 -0.1318
15665TIP3    H168410   2.932   3.844   6.058 -0.7977  0.7416  0.5471
15665TIP3    H268411   2.948   3.994   6.064  0.0970  0.7155 -0.9290
15666TIP3   OH268412   2.640   0.404   0.827 -0.2237  0.1382  0.0932
15666TIP3    H168413   2.555   0.424   0.789  0.2646 -0.0193 -1.1323
15666TIP3    H268414   2.634   0.431   0.918 -1.5844  0.1133  0.0105
15667TIP3   OH268415   0.830   2.215   0.355 -0.9673 -0.3389  0.3610
15667TIP3    H168416   0.922   2.215   0.383 -0.6213  1.8516 -0.6530
15667TIP3    H268417   0.830   2.168   0.272 -0.6123  0.2660  0.0080
15668TIP3   OH268418   4.366   4.800   5.323  1.2494  0.2079 -0.1613
15668TIP3    H168419   4.380   4.719   5.371 -0.9092  0.3915  0.7998
15668TIP3    H268420   4.280   4.831   5.351  0.9964  1.5866 -2.3182
15669TIP3   OH268421   6.671   1.873  15.083 -0.1285 -0.5151 -0.1690
15669TIP3    H168422   6.639   1.845  14.997 -1.8693  0.3949  0.1451
15669TIP3    H268423   6.616   1.826  15.146  0.8948 -0.9019  0.4496
15670TIP3   OH268424   1.278   2.684   2.109 -0.9315  0.1526 -0.1556
15670TIP3    H168425   1.205   2.663   2.051 -0.4460 -0.8394 -0.4212
15670TIP3    H268426   1.240   2.687   2.196 -1.2271 -0.6608 -0.2578
15671TIP3   OH268427   4.547   0.561  11.105  0.0803  0.5224  0.6150
15671TIP3    H168428   4.602   0.528  11.176  0.2840  0.3724  0.3823
15671TIP3    H268429   4.608   0.585  11.036 -0.1191  0.7024  0.5001
15672TIP3   OH268430   3.835   5.363  11.689 -0.0052 -0.0250 -0.0880
15672TIP3    H168431   3.904   5.332  11.747 -1.2192 -1.0212  0.8512
15672TIP3    H268432   3.849   5.458  11.683  3.0749 -0.5560 -2.1227
15673TIP3   OH268433   3.717   6.042   2.038 -0.3416  0.2276 -0.3471
15673TIP3    H168434   3.740   5.976   2.103  0.1676 -0.7017 -1.4497
15673TIP3    H268435   3.632   6.075   2.066 -0.1360 -0.1870  0.7667
15674TIP3   OH268436   4.809   1.385  11.425 -0.2526 -0.1832 -0.2053
15674TIP3    H168437   4.841   1.447  11.359 -1.7912 -0.6451 -1.4169
15674TIP3    H268438   4.877   1.318  11.430  0.0587  0.0699 -1.0143
15675TIP3   OH268439   2.406   4.515  16.474 -0.0638  0.5640  0.2968
15675TIP3    H168440   2.330   4.480  16.429  0.1291  0.5761 -0.0357
15675TIP3    H268441   2.390   4.494  16.567 -1.0176  1.5887  0.3736
15676TIP3   OH268442   4.214   4.494   0.944 -0.3519 -0.0433  0.0810
15676TIP3    H168443   4.154   4.449   1.004  0.3977 -0.5089  0.4993
15676TIP3    H268444   4.183   4.472   0.857 -0.6814 -0.4361  0.2977
15677TIP3   OH268445   6.613   6.563  16.252 -0.1047  0.7376  0.0024
15677TIP3    H168446   6.533   6.615  16.249  0.3545  1.5322  1.0136
15677TIP3    H268447   6.614   6.525  16.340  0.1902  0.0162 -0.3037
15678TIP3   OH268448   6.312   1.424   0.593 -0.7608 -0.4307  0.7096
15678TIP3    H168449   6.381   1.404   0.531 -0.9490  0.8709  0.0697
15678TIP3    H268450   6.352   1.483   0.656 -0.6341 -1.5682  1.7073
15679TIP3   OH268451   0.770   5.898   1.165 -0.0450  0.4162 -0.7196
15679TIP3    H168452   0.703   5.832   1.145 -1.6132  1.0754  2.0629
15679TIP3    H268453   0.761   5.963   1.096 -1.8854  0.1750 -0.7298
15680TIP3   OH268454   0.478   5.102   1.070  1.0316 -0.0926 -0.0197
15680TIP3    H168455   0.539   5.054   1.015  2.0873  0.3098  0.7732
15680TIP3    H268456   0.467   5.186   1.027  0.1019 -0.6007 -0.7876
15681TIP3   OH268457   2.501   2.006   0.148  0.4607 -0.2235  0.9434
15681TIP3    H168458   2.523   2.023   0.240 -0.0089  0.7900  0.8808
15681TIP3    H268459   2.525   2.087   0.103 -1.7205  0.2731  0.5965
15682TIP3   OH268460   3.817   1.331  15.617  0.0515  0.3021 -0.4052
15682TIP3    H168461   3.819   1.245  15.575  1.7404 -0.2926  0.8180
15682TIP3    H268462   3.909   1.359  15.619 -0.3028  1.4577  0.5451
15683TIP3   OH268463   1.909   6.493   3.848  0.4552  0.7682 -0.2107
15683TIP3    H168464   1.875   6.582   3.839  0.0640  0.5340 -1.0714
15683TIP3    H268465   1.937   6.469   3.759  3.1935  1.0886  0.4977
15684TIP3   OH268466   1.931   5.548  11.455  0.5838  0.1592 -0.5305
15684TIP3    H168467   1.954   5.632  11.414  3.6148 -0.7205 -0.7268
15684TIP3    H268468   1.987   5.484  11.412 -2.1924 -2.1383 -0.8757
15685TIP3   OH268469   6.018   6.119  11.464  0.3178  0.5029  0.0457
15685TIP3    H168470   6.099   6.070  11.460  0.6707  1.1603 -1.1522
15685TIP3    H268471   5.996   6.123  11.557  1.0808 -0.5972  0.2763
15686TIP3   OH268472   5.079   0.472  16.061 -0.5120  0.3381  0.4211
15686TIP3    H168473   5.069   0.453  15.968 -0.0883 -0.8478  0.6151
15686TIP3    H268474   5.061   0.566  16.068  1.9327  0.9681 -1.2299
15687TIP3   OH268475   1.499   2.312   4.640 -0.1665 -0.6010  0.0266
15687TIP3    H168476   1.564   2.349   4.580 -0.5206 -2.4183 -1.5190
15687TIP3    H268477   1.522   2.349   4.726 -0.5615  3.2139 -1.4089
15688TIP3   OH268478   0.010   0.414  14.061 -0.2772  0.6433 -0.4654
15688TIP3    H168479  -0.013   0.323  14.080 -0.8305  0.8155 -0.2879
15688TIP3    H268480   0.103   0.412  14.041  0.2516  0.3795  1.8707
15689TIP3   OH268481   1.858   3.779  11.611 -0.0219  0.4948  0.2074
15689TIP3    H168482   1.888   3.764  11.522  1.1308 -0.9453  0.8281
15689TIP3    H268483   1.791   3.712  11.625 -0.3637  0.8661  0.3495
15690TIP3   OH268484   5.288   4.736   1.986  0.6236 -0.4664  0.6207
15690TIP3    H168485   5.207   4.701   2.023  0.1057  0.7753  0.6920
15690TIP3    H268486   5.305   4.681   1.909 -3.2609  2.5697 -2.6454
15691TIP3   OH268487   4.532   2.775   0.528  0.6550 -0.6899 -0.3716
15691TIP3    H168488   4.585   2.716   0.581 -0.0912 -0.6873  0.3802
15691TIP3    H268489   4.485   2.718   0.467  0.7302 -0.7813 -0.3443
15692TIP3   OH268490   3.436   0.207  16.696 -0.5275 -0.5072  0.3118
15692TIP3    H168491   3.434   0.303  16.702 -0.5852 -0.5658  1.3052
15692TIP3    H268492   3.379   0.178  16.767  0.1838 -1.2983  0.5549
15693TIP3   OH268493   4.688   5.598   5.741 -0.1455  0.2475  0.1058
15693TIP3    H168494   4.775   5.590   5.703  0.3361 -1.3426  1.4681
15693TIP3    H268495   4.628   5.578   5.669  0.6590 -0.2015 -0.4447
15694TIP3   OH268496   4.260   4.172  15.166  0.3767  0.0661 -0.2127
15694TIP3    H168497   4.352   4.158  15.187  0.1521  2.1466  2.3618
15694TIP3    H268498   4.239   4.258  15.202 -2.5980 -0.3575 -0.7387
15695TIP3   OH268499   1.194   5.054   0.304  0.4093 -0.5064  0.0364
15695TIP3    H168500   1.113   5.061   0.355  0.7387 -1.0001  0.6387
15695TIP3    H268501   1.222   5.145   0.291 -0.8677 -0.2776 -1.1987
15696TIP3   OH268502   1.432   5.714  12.228  0.1783  0.5540  0.0870
15696TIP3    H168503   1.451   5.788  12.169 -0.4824  1.0853  0.5199
15696TIP3    H268504   1.514   5.696  12.272 -0.3577  3.0429  2.2119
15697TIP3   OH268505   3.448   3.764   1.943 -0.0254 -0.1802  0.5089
15697TIP3    H168506   3.442   3.678   1.901 -1.5283 -0.1400  0.6060
15697TIP3    H268507   3.534   3.797   1.920  0.3897 -1.5437  0.1219
15698TIP3   OH268508   4.425   3.192  14.700  0.5391  0.0897 -0.3508
15698TIP3    H168509   4.397   3.195  14.791  1.0671 -2.1302 -0.1001
15698TIP3    H268510   4.388   3.271  14.661 -2.2725 -0.5036  1.0377
15699TIP3   OH268511   0.823   3.260   2.908  0.2785 -0.1402  0.0692
15699TIP3    H168512   0.822   3.356   2.908 -2.2429 -0.1255 -0.1480
15699TIP3    H268513   0.829   3.237   3.001  0.4330  0.2175  0.1506
15700TIP3   OH268514   3.317   4.087   5.731  0.7390  0.8719  0.4495
15700TIP3    H168515   3.305   4.180   5.711  0.9323  1.0101  0.9819
15700TIP3    H268516   3.233   4.047   5.711  0.5991  1.1911  0.3985
15701TIP3   OH268517   6.512   2.701   0.965  0.0986  0.4161 -0.1812
15701TIP3    H168518   6.546   2.619   1.001  0.8269  1.0350  0.5507
15701TIP3    H268519   6.419   2.684   0.950 -0.0065 -0.1714  1.0617
15702TIP3   OH268520   1.722   0.604   1.974  0.1022  0.0151  0.2421
15702TIP3    H168521   1.637   0.609   1.930  0.8227 -0.4777 -1.2310
15702TIP3    H268522   1.745   0.695   1.992 -0.6251  0.1636  0.4515
15703TIP3   OH268523   0.755   1.791   5.132  1.1494 -0.5832 -0.4417
15703TIP3    H168524   0.782   1.792   5.040  1.4371 -0.2930 -0.3562
15703TIP3    H268525   0.659   1.789   5.128  1.1654 -0.8826 -0.7470
15704TIP3   OH268526   2.219   1.562   2.199  0.1641 -0.1570 -0.2295
15704TIP3    H168527   2.168   1.491   2.238 -2.7035  1.5591 -0.6772
15704TIP3    H268528   2.212   1.548   2.104  1.9760 -0.8527 -0.2772
15705TIP3   OH268529   0.442   1.403  13.545  0.9376  0.2459  0.2828
15705TIP3    H168530   0.508   1.463  13.511  1.4812 -1.3805 -1.6087
15705TIP3    H268531   0.381   1.390  13.472 -0.2344 -0.0521  1.2802
15706TIP3   OH268532   1.247   3.687   6.632  0.4801 -0.2671  0.0226
15706TIP3    H168533   1.236   3.599   6.667  0.6136 -0.9300 -1.5540
15706TIP3    H268534   1.179   3.695   6.565 -0.5025  1.3836  1.1632
15707TIP3   OH268535   2.751   4.166   3.003  0.0958 -0.3487 -0.2350
15707TIP3    H168536   2.769   4.083   3.047 -0.1548 -2.8551 -4.5695
15707TIP3    H268537   2.660   4.185   3.024 -0.2443 -1.8923 -0.2513
15708TIP3   OH268538   3.346   2.784  13.559 -0.4076  0.3705  0.3785
15708TIP3    H168539   3.334   2.879  13.569  1.3216  1.0770 -3.3170
15708TIP3    H268540   3.379   2.774  13.470 -3.0774 -3.9591 -0.2658
15709TIP3   OH268541   2.973   3.780  14.125  0.0303 -0.3740 -0.1517
15709TIP3    H168542   2.953   3.700  14.077  2.5653 -1.2170  0.1303
15709TIP3    H268543   2.975   3.754  14.217  2.7952 -0.4567 -0.1935
15710TIP3   OH268544   0.022   0.542  12.540  0.5350  0.0335 -0.1249
15710TIP3    H168545  -0.059   0.557  12.589  0.1644 -0.5762 -0.5544
15710TIP3    H268546   0.091   0.575  12.598  0.1689 -1.4378  1.1759
15711TIP3   OH268547   6.596   1.722  12.147  0.0894  0.4364 -0.1845
15711TIP3    H168548   6.596   1.706  12.241 -2.4833  2.0195  0.1434
15711TIP3    H268549   6.632   1.810  12.137  2.2271 -0.5006 -0.8690
15712TIP3   OH268550   1.215   0.074  10.744  0.6320 -0.0687 -0.0756
15712TIP3    H168551   1.295   0.125  10.733  1.1236 -0.9328 -0.5301
15712TIP3    H268552   1.244  -0.017  10.744 -0.0848 -0.3308  2.0689
15713TIP3   OH268553   5.135   1.938  11.460  0.2853 -0.5492  0.0170
15713TIP3    H168554   5.042   1.924  11.440 -0.2003  2.8883 -0.3916
15713TIP3    H268555   5.138   1.953  11.554  0.5276 -1.1940  0.1178
15714TIP3   OH268556   3.093   6.553   5.577  0.4653  0.0942 -0.5214
15714TIP3    H168557   3.054   6.626   5.625 -0.7297  0.3487 -1.8524
15714TIP3    H268558   3.186   6.559   5.597 -0.1036 -0.3521  2.4775
15715TIP3   OH268559   2.114   3.816   1.713  0.5195  0.0699  0.4374
15715TIP3    H168560   2.185   3.757   1.688 -1.1480 -2.1717  0.9079
15715TIP3    H268561   2.118   3.820   1.808 -1.2201 -1.6606  0.6016
15716TIP3   OH268562   2.178   5.576  15.619  0.0113 -0.0915 -0.2097
15716TIP3    H168563   2.271   5.582  15.598 -0.2484  0.5004 -1.2421
15716TIP3    H268564   2.172   5.604  15.710  0.7033  0.9969 -0.4899
15717TIP3   OH268565   3.058   5.401  11.648 -0.1102 -0.0427 -0.5139
15717TIP3    H168566   3.152   5.418  11.644 -0.1339  0.1198 -0.3611
15717TIP3    H268567   3.027   5.416  11.559  0.8110 -4.7007 -1.7490
15718TIP3   OH268568   5.032   2.258  15.845  0.1891  0.0055  0.3681
15718TIP3    H168569   5.040   2.243  15.751 -0.0782  1.5635  0.0905
15718TIP3    H268570   4.937   2.262  15.860  0.2073 -1.0987  0.8564
15719TIP3   OH268571   6.450   4.131   6.124  0.1442 -0.4910 -0.1927
15719TIP3    H168572   6.412   4.211   6.161  1.2375 -1.1861  2.5485
15719TIP3    H268573   6.536   4.159   6.092 -0.5105 -0.0452 -1.6066
15720TIP3   OH268574   5.038   4.717   2.121 -0.6553 -0.5500 -0.0375
15720TIP3    H168575   4.974   4.779   2.086 -0.7780  1.4240  3.4813
15720TIP3    H268576   4.991   4.635   2.128 -1.3355 -0.3534 -2.0911
15721TIP3   OH268577   6.010   4.542  14.289 -0.2487  0.1240  0.2500
15721TIP3    H168578   6.068   4.520  14.361  2.2703  1.2712 -1.3731
15721TIP3    H268579   6.024   4.635  14.274  0.7313 -0.4968 -2.9811
15722TIP3   OH268580   4.889   3.340  13.450 -0.4023 -0.5804 -0.2497
15722TIP3    H168581   4.828   3.357  13.377  1.2770 -0.8471 -1.7608
15722TIP3    H268582   4.929   3.426  13.467  0.4591 -0.8526 -0.8324
15723TIP3   OH268583   1.101   0.523   1.258 -0.3955  0.4683  0.1919
15723TIP3    H168584   1.082   0.616   1.244  1.2064  0.3326 -3.1899
15723TIP3    H268585   1.027   0.477   1.219 -0.5396  0.2713  0.6873
15724TIP3   OH268586   0.661   5.097  12.943  0.1048 -0.5836 -0.2264
15724TIP3    H168587   0.665   5.182  12.900  1.6417 -1.5617 -2.0705
15724TIP3    H268588   0.686   5.115  13.034 -0.3521  1.0368 -0.4072
15725TIP3   OH268589   4.299   4.447   4.524  0.3625  0.3845  0.3275
15725TIP3    H168590   4.383   4.492   4.518  0.5436  0.0842  0.6268
15725TIP3    H268591   4.285   4.432   4.617  0.5154 -0.5711  0.2079
15726TIP3   OH268592   0.795   4.407  15.727 -0.3327 -0.6184 -0.3977
15726TIP3    H168593   0.818   4.345  15.658  2.6205  0.2215 -0.2323
15726TIP3    H268594   0.837   4.373  15.806  1.4986  1.6508 -0.3508
15727TIP3   OH268595   4.654   5.467  15.893 -0.0530 -0.0052 -0.4349
15727TIP3    H168596   4.601   5.427  15.963 -0.7522  1.2956 -0.2046
15727TIP3    H268597   4.731   5.501  15.939 -0.4966  0.8207 -0.2987
15728TIP3   OH268598   5.252   6.342  10.558  0.0324  0.2546  0.1045
15728TIP3    H168599   5.256   6.425  10.604 -0.4730 -0.4951  1.5364
15728TIP3    H268600   5.311   6.284  10.608 -0.0186 -0.3815 -0.5639
15729TIP3   OH268601   3.911   4.863   0.299 -0.3524  0.1721  0.2696
15729TIP3    H168602   3.968   4.926   0.255 -1.8327  1.9634  0.8257
15729TIP3    H268603   3.918   4.783   0.248  2.4043  0.4546  0.1565
15730TIP3   OH268604   6.329   1.084  12.769  0.3545  0.9437 -0.1114
15730TIP3    H168605   6.404   1.068  12.826  1.2125  0.5154 -1.3360
15730TIP3    H268606   6.275   1.005  12.778  0.6399  0.7441 -0.1255
15731TIP3   OH268607   0.438   6.148  12.453  0.5331 -0.0518 -0.4282
15731TIP3    H168608   0.445   6.186  12.541 -2.1304 -1.4007  0.4127
15731TIP3    H268609   0.526   6.159  12.416  1.3982  1.6164  1.9383
15732TIP3   OH268610   3.505   4.756  16.064  0.0244 -0.3337 -0.3794
15732TIP3    H168611   3.437   4.761  15.996 -0.3336 -1.4153 -0.1096
15732TIP3    H268612   3.584   4.732  16.015 -0.3760 -1.7849 -0.3432
15733TIP3   OH268613   3.841   2.457  14.149 -0.3235  0.1440 -0.1770
15733TIP3    H168614   3.929   2.488  14.167  0.1161 -1.6440  0.8866
15733TIP3    H268615   3.783   2.525  14.184  0.6199  0.8171  0.0796
15734TIP3   OH268616   4.829   1.566   4.847  0.2545 -0.0819 -0.5286
15734TIP3    H168617   4.854   1.533   4.761  0.7659  1.9127 -1.1767
15734TIP3    H268618   4.896   1.631   4.868 -0.6053  0.3992  0.7914
15735TIP3   OH268619   3.574   3.617   6.096  0.2719  0.5538 -0.1630
15735TIP3    H168620   3.551   3.542   6.151  1.0124  0.8902  0.6101
15735TIP3    H268621   3.559   3.693   6.152 -3.0615  1.1979 -1.7668
15736TIP3   OH268622   5.268   6.459  12.712  0.1238  0.2748  1.1355
15736TIP3    H168623   5.266   6.370  12.676 -1.0201  0.2496  1.2575
15736TIP3    H268624   5.359   6.487  12.700 -0.4865  0.7411 -2.8420
15737TIP3   OH268625   3.550   1.064  13.036  0.0312 -0.0009 -0.0330
15737TIP3    H168626   3.563   1.121  13.111 -0.2515 -0.0372  0.0448
15737TIP3    H268627   3.631   1.069  12.987 -1.0726  2.8410 -1.6545
15738TIP3   OH268628   5.450   1.685   4.505  0.3165 -0.0049  0.7402
15738TIP3    H168629   5.511   1.660   4.436  1.1386  3.2206  0.2101
15738TIP3    H268630   5.371   1.634   4.487  0.7681  0.2273 -2.1658
15739TIP3   OH268631   1.788   2.002   3.908  0.1502  0.0569 -0.3124
15739TIP3    H168632   1.761   1.961   3.990  1.3284 -0.2266 -0.0649
15739TIP3    H268633   1.875   1.966   3.890 -1.4298 -2.5010 -3.4202
15740TIP3   OH268634   0.228   1.325   5.239 -0.2551  0.2603 -0.2371
15740TIP3    H168635   0.239   1.274   5.320  0.1540  0.7031 -0.0144
15740TIP3    H268636   0.133   1.340   5.233 -0.4193 -0.7581 -0.4510
15741TIP3   OH268637   3.398   0.299   2.356  0.2929  0.5048  0.0081
15741TIP3    H168638   3.392   0.383   2.403  1.4538  1.9417 -2.3282
15741TIP3    H268639   3.370   0.319   2.267  0.6493 -1.5978 -0.6075
15742TIP3   OH268640   5.261   1.906   4.020 -0.8343  0.1951  0.1984
15742TIP3    H168641   5.179   1.918   3.972 -0.1734 -1.6404 -1.4472
15742TIP3    H268642   5.322   1.968   3.980 -0.6823 -0.3096 -0.3472
15743TIP3   OH268643   3.112   0.625  13.463  0.6234  0.7194 -0.3362
15743TIP3    H168644   3.110   0.720  13.456  1.4660  0.9149  1.8002
15743TIP3    H268645   3.024   0.600  13.491  1.0720  1.1070  1.4908
15744TIP3   OH268646   4.235   3.972   4.774  0.0738  0.2227  0.1121
15744TIP3    H168647   4.218   4.002   4.863 -0.0843  0.8731 -0.1341
15744TIP3    H268648   4.289   3.893   4.785  2.5365  1.9388  0.7105
15745TIP3   OH268649   2.062   1.550  13.570 -0.0440  0.3400 -1.1156
15745TIP3    H168650   2.084   1.525  13.480  2.3430  0.0663 -0.4850
15745TIP3    H268651   2.010   1.476  13.602  0.4909 -0.3219 -1.7386
15746TIP3   OH268652   2.521   3.250  13.479  0.0359  0.1455 -0.4379
15746TIP3    H168653   2.437   3.206  13.492 -0.1325  0.3340 -0.8692
15746TIP3    H268654   2.532   3.255  13.384  1.7086 -2.0740 -0.3954
15747TIP3   OH268655   5.805   2.524   0.487  0.5312 -0.2429 -0.2071
15747TIP3    H168656   5.741   2.596   0.490 -0.3989 -1.1025  1.0662
15747TIP3    H268657   5.752   2.446   0.467  1.5154 -0.6103 -1.4629
15748TIP3   OH268658   1.449   1.254   1.078  0.5966 -0.0502  0.4446
15748TIP3    H168659   1.487   1.324   1.026  0.6722  0.2945  0.9618
15748TIP3    H268660   1.495   1.259   1.162  1.1130 -1.1738  0.2355
15749TIP3   OH268661   5.174   3.214   6.629  0.0246 -0.8349  0.1772
15749TIP3    H168662   5.201   3.180   6.544  0.5203 -0.3837  0.1517
15749TIP3    H268663   5.091   3.260   6.611  0.3808 -0.3134 -0.1578
15750TIP3   OH268664   2.589   0.159   1.932 -0.3165 -0.2946 -0.0366
15750TIP3    H168665   2.535   0.238   1.941 -1.1895 -1.1262  2.5019
15750TIP3    H268666   2.667   0.177   1.984  0.5425 -0.2569 -1.2983
15751TIP3   OH268667   1.934   3.169   1.288  0.2166 -0.5720  0.4845
15751TIP3    H168668   1.880   3.110   1.339  0.2685  1.1653  2.6437
15751TIP3    H268669   1.886   3.252   1.288  1.0644 -0.0683 -0.7857
15752TIP3   OH268670   4.421   4.765   2.849  0.4119  0.3220 -0.6195
15752TIP3    H168671   4.392   4.690   2.797  1.6256 -0.1449 -0.6560
15752TIP3    H268672   4.461   4.725   2.927  0.5068  0.9571 -0.3428
15753TIP3   OH268673   6.503   6.775  12.576 -0.2677  0.4225 -0.2705
15753TIP3    H168674   6.547   6.698  12.540  0.7250  1.6078 -1.7178
15753TIP3    H268675   6.474   6.749  12.663  0.7229 -1.3385 -0.4467
15754TIP3   OH268676   1.250   3.760  16.451  0.1211  0.1884 -0.0073
15754TIP3    H168677   1.265   3.693  16.385 -0.8427  0.7955 -0.8428
15754TIP3    H268678   1.332   3.762  16.501  0.2531 -1.4324 -0.1158
15755TIP3   OH268679   0.133   4.571  13.318 -0.0487 -0.2059 -0.3642
15755TIP3    H168680   0.199   4.521  13.269  0.3759 -0.9145  0.9202
15755TIP3    H268681   0.078   4.505  13.359 -0.2792  0.3871  0.2899
15756TIP3   OH268682   2.427   3.968   5.185 -0.0533 -0.2808  0.7830
15756TIP3    H168683   2.368   4.004   5.251 -1.4543 -0.3302 -0.4148
15756TIP3    H268684   2.376   3.898   5.143  0.8635 -0.3383 -0.2531
15757TIP3   OH268685   2.500   3.117  11.755  0.3736  0.0772  0.3386
15757TIP3    H168686   2.585   3.082  11.726  1.0605  1.2461  0.9143
15757TIP3    H268687   2.510   3.127  11.850  0.2607  2.0407  0.1482
15758TIP3   OH268688   3.893   3.350  13.260  0.1948 -0.3117 -0.6489
15758TIP3    H168689   3.935   3.400  13.191 -0.8018 -1.5368 -2.1822
15758TIP3    H268690   3.913   3.398  13.340  0.4406  1.7373 -1.9013
15759TIP3   OH268691   3.089   5.086   5.773  0.0366  0.3727 -0.1926
15759TIP3    H168692   3.040   5.052   5.698 -0.0561  0.7109 -0.2862
15759TIP3    H268693   3.172   5.038   5.771  0.1523  0.5907 -0.6858
15760TIP3   OH268694   1.148   2.030   5.357 -0.2119 -0.2442  0.3165
15760TIP3    H168695   1.156   2.033   5.262  1.9177 -2.7243  0.3657
15760TIP3    H268696   1.091   1.956   5.375  0.5645 -0.6912  0.9942
15761TIP3   OH268697   3.251   2.940   5.386 -0.2402 -0.6077  0.1752
15761TIP3    H168698   3.335   2.937   5.431  0.2398  2.4844 -0.4107
15761TIP3    H268699   3.194   2.993   5.442 -1.0676 -0.6745 -0.5768
15762TIP3   OH268700   4.218   1.573   3.081  0.4243 -0.1235  0.4468
15762TIP3    H168701   4.233   1.560   2.988  0.9618  0.5386  0.4358
15762TIP3    H268702   4.304   1.594   3.117  0.2064 -0.2751  1.0737
15763TIP3   OH268703   0.013   2.613   3.351  0.0881  0.0612  0.1767
15763TIP3    H168704  -0.040   2.656   3.418  2.0275  3.7860 -0.5224
15763TIP3    H268705   0.101   2.610   3.389  0.6400 -0.3471 -1.1256
15764TIP3   OH268706   2.274   2.172   2.716 -0.1448  0.0506  0.3757
15764TIP3    H168707   2.293   2.114   2.642 -1.1342 -0.4517  0.4994
15764TIP3    H268708   2.206   2.126   2.765 -1.6322  1.7571 -0.0380
15765TIP3   OH268709   4.748   3.516   4.765  0.2040  0.8420 -0.2718
15765TIP3    H168710   4.775   3.572   4.692 -0.7284  1.1486 -0.3839
15765TIP3    H268711   4.798   3.435   4.753 -0.3196  0.6939 -1.5469
15766TIP3   OH268712   4.509   4.460   2.961 -0.2146  0.1659 -0.0912
15766TIP3    H168713   4.483   4.378   3.002 -1.8495  0.0810 -1.2989
15766TIP3    H268714   4.465   4.528   3.013  0.3232  0.2298  0.2836
15767TIP3   OH268715   0.982   3.814  11.240 -0.2773 -0.1777  0.1293
15767TIP3    H168716   1.037   3.763  11.181  0.3654 -0.0981  0.6549
15767TIP3    H268717   1.029   3.897  11.250 -0.9365  0.2292 -0.1248
15768TIP3   OH268718   2.519   3.091   5.008 -0.1259  0.0059  0.3671
15768TIP3    H168719   2.536   2.999   5.028  1.8466  0.6787  1.9809
15768TIP3    H268720   2.581   3.113   4.938 -1.3359 -0.1525 -0.7804
15769TIP3   OH268721   0.597   6.762   3.231 -0.1665 -0.7164 -0.6328
15769TIP3    H168722   0.608   6.839   3.287 -0.1645 -1.6755  0.7224
15769TIP3    H268723   0.667   6.769   3.166 -0.7511  0.9052 -1.1023
15770TIP3   OH268724   2.423   0.251  10.832  0.2391 -0.7921 -0.5046
15770TIP3    H168725   2.409   0.161  10.862  1.6567 -1.2913 -1.2909
15770TIP3    H268726   2.516   0.267  10.848 -0.0977  0.7050  0.0434
15771TIP3   OH268727   0.425   0.959   2.887 -0.1762 -0.1513  0.7626
15771TIP3    H168728   0.368   0.961   2.810  0.1439  2.4613  0.5811
15771TIP3    H268729   0.375   1.002   2.956 -1.0679 -3.7551  2.5393
15772TIP3   OH268730   2.047   2.574  10.960  0.1301  0.2743 -0.3075
15772TIP3    H168731   1.963   2.617  10.974 -0.4288 -1.0328  0.4372
15772TIP3    H268732   2.029   2.508  10.893  1.2212  1.8557 -2.2254
15773TIP3   OH268733   5.555   1.993  15.443 -0.5292 -0.1790 -0.1374
15773TIP3    H168734   5.579   2.074  15.489  0.0091 -1.0473  1.1348
15773TIP3    H268735   5.492   2.021  15.376 -3.0789  0.7974  2.5653
15774TIP3   OH268736   5.474   2.408   4.108  0.1135  0.0534 -0.1350
15774TIP3    H168737   5.448   2.332   4.055 -0.3231  0.3593 -0.3642
15774TIP3    H268738   5.462   2.379   4.198  3.0116 -1.2422 -0.1138
15775TIP3   OH268739   3.860   1.841  16.175  0.2580  0.2862 -0.0595
15775TIP3    H168740   3.937   1.788  16.153 -0.6108 -0.9439 -0.1744
15775TIP3    H268741   3.807   1.841  16.095 -1.3434 -1.4791  0.9687
15776TIP3   OH268742   3.541   4.561  11.662 -0.6933  0.2810 -0.0827
15776TIP3    H168743   3.445   4.565  11.658 -0.7063  1.1794  0.9080
15776TIP3    H268744   3.562   4.586  11.752  0.5022  0.8163 -0.5045
15777TIP3   OH268745   1.862   2.819   0.940  0.2443  0.6342  0.4470
15777TIP3    H168746   1.837   2.814   1.033  0.3370 -0.6862  0.4094
15777TIP3    H268747   1.824   2.740   0.901 -1.2033  2.0211 -0.9896
15778TIP3   OH268748   2.149   5.732  16.972 -0.6085 -0.2310  0.3636
15778TIP3    H168749   2.176   5.714  16.882 -3.3655  0.2361 -0.6059
15778TIP3    H268750   2.117   5.648  17.005 -0.2477 -0.2455  0.6819
15779TIP3   OH268751   4.242   3.871   5.563  0.4722 -0.5589  0.2749
15779TIP3    H168752   4.163   3.842   5.517 -0.9664 -0.4662  2.6355
15779TIP3    H268753   4.308   3.807   5.539 -0.9976 -2.1192  0.3141
15780TIP3   OH268754   4.122   3.921   1.827  0.5122  0.2664 -0.1937
15780TIP3    H168755   4.144   3.975   1.903  1.2477  0.1343 -0.3023
15780TIP3    H268756   4.188   3.852   1.827 -0.5564 -0.7659  0.0647
15781TIP3   OH268757   4.273   2.670   5.858 -0.3981  0.2444 -0.3157
15781TIP3    H168758   4.181   2.696   5.870 -0.7813 -1.1618 -0.1847
15781TIP3    H268759   4.301   2.641   5.944 -0.4962 -1.4246 -0.8433
15782TIP3   OH268760   1.183   5.470   1.490 -0.0784  0.4170  0.4886
15782TIP3    H168761   1.154   5.528   1.561  0.8086  1.7191 -0.1896
15782TIP3    H268762   1.155   5.383   1.517 -1.4352  1.1614  1.5416
15783TIP3   OH268763   2.914   6.220   0.154 -0.3249  0.0234  0.2097
15783TIP3    H168764   2.996   6.171   0.148  0.4488  1.4647 -1.1879
15783TIP3    H268765   2.848   6.153   0.172  1.2152 -1.0927  1.9861
15784TIP3   OH268766   2.303   3.933  11.398 -0.4791  0.2993  0.1279
15784TIP3    H168767   2.396   3.919  11.381 -1.2845 -3.4213 -1.6201
15784TIP3    H268768   2.280   4.008  11.342  0.6162 -1.3050 -2.5645
15785TIP3   OH268769   5.554   3.535  13.255  0.0589 -0.0717 -0.3075
15785TIP3    H168770   5.496   3.527  13.179 -1.1461 -0.2484  0.6246
15785TIP3    H268771   5.544   3.453  13.302 -1.3652  1.1254  1.5462
15786TIP3   OH268772   0.970   1.125  15.919  0.0046 -0.2281  0.6522
15786TIP3    H168773   0.937   1.044  15.882  0.5641 -0.2910  0.2907
15786TIP3    H268774   0.943   1.193  15.857  2.4465 -0.5351 -0.7895
15787TIP3   OH268775   0.353   3.587   0.836 -0.2360 -0.0498 -0.2047
15787TIP3    H168776   0.341   3.496   0.863 -0.9992 -0.1182 -0.7536
15787TIP3    H268777   0.272   3.631   0.863 -0.8923 -0.0511 -2.0693
15788TIP3   OH268778   3.200   3.334  15.424  0.4932 -0.3898 -0.7710
15788TIP3    H168779   3.231   3.243  15.423  0.0639 -0.5340 -0.9871
15788TIP3    H268780   3.278   3.386  15.405  0.7590 -0.7073 -0.5658
15789TIP3   OH268781   6.114   4.423  14.000 -0.2643 -0.0681  0.7404
15789TIP3    H168782   6.133   4.330  14.016 -0.1460 -0.4430 -1.4584
15789TIP3    H268783   6.028   4.436  14.041 -0.0427 -1.0134  1.5328
15790TIP3   OH268784   6.742   2.150  16.299 -0.0683  0.3943 -0.3146
15790TIP3    H168785   6.702   2.137  16.385 -0.8586  1.3558 -0.5325
15790TIP3    H268786   6.730   2.243  16.281 -2.3690 -0.3216 -2.6955
15791TIP3   OH268787   2.640   1.617  11.607 -0.1334 -0.3963  0.3537
15791TIP3    H168788   2.556   1.655  11.581  0.1384  0.1594  0.2630
15791TIP3    H268789   2.626   1.586  11.696  0.0964  1.4160  1.0481
15792TIP3   OH268790   4.625   6.227   3.480  0.3702  0.3860 -0.2375
15792TIP3    H168791   4.618   6.251   3.387  1.1856  3.0259  0.3641
15792TIP3    H268792   4.713   6.253   3.505  0.9118 -2.2452  0.7828
15793TIP3   OH268793   2.342   3.317   0.857  0.4897  0.3821 -0.7326
15793TIP3    H168794   2.378   3.356   0.936  0.8114  0.1882 -0.7794
15793TIP3    H268795   2.333   3.224   0.878  2.5733 -0.0527 -1.6128
15794TIP3   OH268796   6.485   3.355  13.133 -0.3119  0.3209  0.1152
15794TIP3    H168797   6.434   3.288  13.088  0.1850 -0.0823  0.1549
15794TIP3    H268798   6.470   3.338  13.226 -1.1207  0.9884  0.1237
15795TIP3   OH268799   3.204   2.080  14.499 -0.2140 -0.1445 -0.0562
15795TIP3    H168800   3.264   2.063  14.427  0.2437  0.4469  0.1793
15795TIP3    H268801   3.191   1.994  14.540 -0.1495 -0.4088 -0.5841
15796TIP3   OH268802   3.102   5.416  13.242 -0.0261 -0.2850  0.4505
15796TIP3    H168803   3.041   5.405  13.314  0.8435  1.9554  1.5666
15796TIP3    H268804   3.104   5.510  13.226 -0.0675 -0.7249 -2.3807
15797TIP3   OH268805   6.664   2.540  16.742 -0.3370 -0.6108 -0.2765
15797TIP3    H168806   6.571   2.516  16.752 -0.5612  0.4342  0.2142
15797TIP3    H268807   6.705   2.513  16.824 -0.3394 -0.5001 -0.2367
15798TIP3   OH268808   3.805   4.038  16.539  0.0047 -0.4017  0.2191
15798TIP3    H168809   3.895   4.029  16.573 -0.0949  0.3144  0.6849
15798TIP3    H268810   3.809   3.999  16.452  0.9984  0.4824 -0.1356
15799TIP3   OH268811   2.053   2.192   6.638 -0.2091 -0.6595 -0.6354
15799TIP3    H168812   2.062   2.287   6.629  0.1060 -0.6434 -0.1349
15799TIP3    H268813   2.135   2.157   6.601 -0.1286 -0.7143 -0.4073
15800TIP3   OH268814   0.302   3.977   3.872  0.0702 -0.0786  0.1561
15800TIP3    H168815   0.212   3.987   3.904 -0.2547  1.4411 -1.1789
15800TIP3    H268816   0.315   3.883   3.866 -1.6239 -0.3052 -0.1678
15801TIP3   OH268817   6.282   1.408  16.468  0.8059 -0.2683  0.4659
15801TIP3    H168818   6.249   1.361  16.544  0.2550  1.0138  1.0431
15801TIP3    H268819   6.265   1.500  16.488  0.8635  0.0958 -1.1175
15802TIP3   OH268820   4.899   6.195  12.684  0.1502 -0.9472 -0.2175
15802TIP3    H168821   4.860   6.277  12.713  0.7754 -0.4583 -0.7397
15802TIP3    H268822   4.921   6.149  12.765  1.0055 -0.0179  0.0902
15803TIP3   OH268823   2.208   6.610  13.537 -0.0339  0.3757 -0.4132
15803TIP3    H168824   2.153   6.651  13.471  0.0674  1.3044  0.0765
15803TIP3    H268825   2.230   6.524  13.500 -0.6783  0.5487 -1.2030
15804TIP3   OH268826   0.337   6.276   3.714 -0.9714  0.1018 -0.1337
15804TIP3    H168827   0.413   6.218   3.713 -0.8465  0.2699 -0.5957
15804TIP3    H268828   0.304   6.271   3.803 -1.8227 -1.7903 -0.5274
15805TIP3   OH268829   2.576   3.651  13.928  0.1302  0.0067 -0.3922
15805TIP3    H168830   2.625   3.636  14.009  1.3169 -1.9490 -1.4583
15805TIP3    H268831   2.604   3.738  13.900  1.7592 -0.4206 -0.1247
15806TIP3   OH268832   0.732   6.311   1.882 -0.0435  0.2129  0.2268
15806TIP3    H168833   0.822   6.279   1.890  0.6237  1.5577 -1.4167
15806TIP3    H268834   0.726   6.383   1.944 -0.2476 -0.3843  0.9087
15807TIP3   OH268835   4.751   6.276  11.388 -0.3633  0.3858  0.0249
15807TIP3    H168836   4.845   6.287  11.373 -0.4150  0.4167 -0.2869
15807TIP3    H268837   4.714   6.266  11.300 -0.7211  0.9308  0.1074
15808TIP3   OH268838   4.458   6.489  13.065 -0.4811 -0.6346  0.3004
15808TIP3    H168839   4.458   6.430  13.140 -1.9008 -2.0122 -0.7502
15808TIP3    H268840   4.551   6.497  13.042 -0.2244 -2.1773  0.6972
15809TIP3   OH268841   2.422   6.727   2.802 -0.2455  0.0795 -0.0662
15809TIP3    H168842   2.356   6.657   2.799 -0.4917  0.2464  0.9283
15809TIP3    H268843   2.435   6.742   2.896  0.7864  0.4548 -0.2682
15810TIP3   OH268844   4.965   3.290  15.351  0.5018 -0.0588  0.0571
15810TIP3    H168845   4.949   3.198  15.329  0.1603 -0.1864  0.8308
15810TIP3    H268846   4.924   3.302  15.436 -0.0797  1.0097 -0.3703
15811TIP3   OH268847   6.664   4.077  10.604 -0.3605  0.0304  0.2363
15811TIP3    H168848   6.614   4.006  10.644  0.4873 -1.4473 -1.2590
15811TIP3    H268849   6.754   4.044  10.599  0.1476  1.4012 -0.0480
15812TIP3   OH268850   4.394   2.957  11.514 -0.0717  0.5891 -0.6805
15812TIP3    H168851   4.386   3.039  11.562  0.5737 -0.5699  1.4894
15812TIP3    H268852   4.336   2.896  11.561  2.4396 -1.2252  0.1940
15813TIP3   OH268853   2.724   1.524  13.721 -0.1411  0.2919 -0.3731
15813TIP3    H168854   2.776   1.605  13.722 -0.8437  0.7465  1.1282
15813TIP3    H268855   2.650   1.542  13.778 -1.0879 -0.9285 -1.1813
15814TIP3   OH268856   5.899   2.384   3.429 -0.4662 -0.2183 -0.0805
15814TIP3    H168857   5.991   2.379   3.402 -0.5826  1.0998 -0.7626
15814TIP3    H268858   5.850   2.358   3.351 -0.6780 -1.0738  0.3290
15815TIP3   OH268859   1.515   2.453  15.146 -0.0028  0.3486 -0.0142
15815TIP3    H168860   1.425   2.481  15.163 -0.7954 -0.8865 -1.9137
15815TIP3    H268861   1.535   2.391  15.216 -1.6151 -1.3914 -1.0531
15816TIP3   OH268862   3.877   3.553   6.628  0.1440  0.0937  0.6178
15816TIP3    H168863   3.799   3.500   6.645  0.2377 -0.2445  0.0171
15816TIP3    H268864   3.843   3.641   6.609 -0.1679 -0.2747 -0.6166
15817TIP3   OH268865   0.357   2.810   4.516  0.0724 -0.3163 -0.7013
15817TIP3    H168866   0.302   2.887   4.525  0.9801  0.1466  1.1127
15817TIP3    H268867   0.434   2.829   4.570 -0.3192 -3.0301  0.8932
15818TIP3   OH268868   6.124   5.611   2.453 -0.3686  0.1794 -0.0531
15818TIP3    H168869   6.165   5.647   2.374  2.8212  1.7819  2.1843
15818TIP3    H268870   6.050   5.669   2.470  1.9887  3.1068  0.8941
15819TIP3   OH268871   5.734   4.339  15.237  0.9530 -0.4414 -0.5400
15819TIP3    H168872   5.706   4.267  15.294 -1.2872  0.8376  0.0364
15819TIP3    H268873   5.665   4.346  15.171  1.1949  1.1056 -0.6528
15820TIP3   OH268874   2.195   2.284   0.862  0.1101  0.2413  0.1506
15820TIP3    H168875   2.223   2.375   0.871  1.0824  0.0992 -1.2985
15820TIP3    H268876   2.258   2.246   0.801 -2.6851 -0.3277 -2.5049
15821TIP3   OH268877   0.583   4.867  16.719  0.5864 -0.2586 -0.1152
15821TIP3    H168878   0.507   4.810  16.709 -2.1987  3.2487 -0.2839
15821TIP3    H268879   0.580   4.895  16.811 -0.5391  2.6938 -0.9837
15822TIP3   OH268880   1.625   2.003  13.803 -0.0900 -0.2255 -0.4285
15822TIP3    H168881   1.687   1.964  13.865 -0.3824  0.5675  0.3762
15822TIP3    H268882   1.636   2.097  13.814 -0.3130 -0.0806 -1.4257
15823TIP3   OH268883   4.343   0.810  11.669  0.3865 -0.2145  0.2852
15823TIP3    H168884   4.279   0.853  11.725 -1.1885  0.0990 -1.7055
15823TIP3    H268885   4.423   0.861  11.680 -0.5474  1.2154  0.4766
15824TIP3   OH268886   6.398   3.596  15.343  0.2040  0.1458 -0.3990
15824TIP3    H168887   6.335   3.639  15.401 -1.0567  1.1652 -2.4342
15824TIP3    H268888   6.353   3.518  15.312  0.9005 -0.4427  0.0582
15825TIP3   OH268889   2.581   0.277   1.425  0.2295 -0.2226 -0.4399
15825TIP3    H168890   2.666   0.242   1.452  0.6625 -0.1162 -1.6014
15825TIP3    H268891   2.539   0.305   1.506  1.3917 -0.0835  0.1247
15826TIP3   OH268892   3.035   3.653  14.960  0.4766  0.1826  0.3797
15826TIP3    H168893   3.116   3.609  14.985  0.9520  0.2559 -1.0122
15826TIP3    H268894   3.063   3.726  14.905 -0.5960 -0.5727 -1.2120
15827TIP3   OH268895   3.433   4.487   5.111  0.2338  0.2957 -0.4256
15827TIP3    H168896   3.351   4.446   5.084 -1.4610  0.3383  4.0975
15827TIP3    H268897   3.492   4.414   5.128  0.2026  0.1281 -1.0508
15828TIP3   OH268898   6.531   5.594   2.186  1.1784 -0.6873 -0.1489
15828TIP3    H168899   6.569   5.510   2.213  2.0351 -0.1540  0.3493
15828TIP3    H268900   6.528   5.590   2.091  0.9414 -1.4020 -0.1143
15829TIP3   OH268901   6.666   6.330   4.606  0.3025  0.3601  0.5346
15829TIP3    H168902   6.656   6.392   4.534 -1.2374  0.2045  0.6154
15829TIP3    H268903   6.733   6.268   4.574 -0.7707 -0.0431 -0.9988
15830TIP3   OH268904   1.373   2.553  14.090  0.1708 -0.6138 -0.2605
15830TIP3    H168905   1.378   2.593  14.004  0.8950  1.8008  0.8750
15830TIP3    H268906   1.443   2.487  14.090  1.4097  0.6751 -0.8672
15831TIP3   OH268907   0.575   4.586  11.016 -0.2257 -0.1855 -0.1935
15831TIP3    H168908   0.508   4.577  10.949 -0.1332 -0.1161 -0.2958
15831TIP3    H268909   0.528   4.578  11.099 -0.1021 -2.1201 -0.2797
15832TIP3   OH268910   4.270   5.234   2.178  0.1967  0.4569 -0.4446
15832TIP3    H168911   4.264   5.319   2.135  1.8092  1.3284  1.0146
15832TIP3    H268912   4.231   5.248   2.265 -0.4527 -0.5623 -0.5635
15833TIP3   OH268913   1.043   0.387  14.629 -0.0719 -0.5013 -0.0948
15833TIP3    H168914   1.075   0.299  14.648 -0.6509 -0.9650 -1.1675
15833TIP3    H268915   0.956   0.373  14.591 -0.5737  0.5905  0.6239
15834TIP3   OH268916   6.382   3.710  10.612  0.2978 -0.7471  0.0278
15834TIP3    H168917   6.304   3.756  10.584  1.3256  1.0130 -0.0109
15834TIP3    H268918   6.354   3.619  10.622 -1.6730 -0.1872 -0.2211
15835TIP3   OH268919   1.065   1.237  12.395  0.3715  0.2127 -0.1291
15835TIP3    H168920   1.158   1.254  12.413  0.8815 -1.6455 -0.8661
15835TIP3    H268921   1.050   1.274  12.308  0.1069  1.5407  0.4664
15836TIP3   OH268922   5.527   4.339  15.058  0.4292  0.2915  0.6870
15836TIP3    H168923   5.453   4.349  15.118  0.1873  1.0513  0.2710
15836TIP3    H268924   5.490   4.301  14.979  0.2084  2.0139 -0.0568
15837TIP3   OH268925   2.248   0.619   3.704  0.1263 -0.0160 -0.0462
15837TIP3    H168926   2.299   0.694   3.734 -1.3036  1.3413 -0.8942
15837TIP3    H268927   2.211   0.581   3.783  1.1867 -0.0870  0.4237
15838TIP3   OH268928   6.464   6.541   1.117 -0.0749 -0.2254 -0.2555
15838TIP3    H168929   6.549   6.505   1.089  1.5086  2.2762  1.1463
15838TIP3    H268930   6.443   6.494   1.198 -0.0428 -0.8256 -0.5873
15839TIP3   OH268931   2.270   0.203  15.869  0.0278  0.0320  0.3605
15839TIP3    H168932   2.176   0.216  15.878 -0.1998 -0.3224 -1.4175
15839TIP3    H268933   2.294   0.247  15.788  1.7251  1.6822  1.7077
15840TIP3   OH268934   3.257   2.495  11.471  0.3864  0.7631 -0.0696
15840TIP3    H168935   3.278   2.461  11.384  0.8534  0.5007  0.1432
15840TIP3    H268936   3.282   2.425  11.531 -1.3055  0.3575  0.1831
15841TIP3   OH268937   4.067   2.505   3.742 -0.4145 -0.0685  0.0065
15841TIP3    H168938   4.019   2.539   3.666  2.2504 -0.0592 -1.7253
15841TIP3    H268939   4.111   2.581   3.779 -0.9356 -0.2433  0.9863
15842TIP3   OH268940   4.147   3.621   3.985 -0.3195 -0.3446  0.6885
15842TIP3    H168941   4.056   3.643   3.965 -0.5656 -0.9450  1.1296
15842TIP3    H268942   4.193   3.630   3.901 -1.0730 -1.4714  0.1359
15843TIP3   OH268943   3.147   1.654  16.681 -0.7630 -0.4858 -0.1153
15843TIP3    H168944   3.089   1.637  16.606  0.5735 -0.6054 -1.1290
15843TIP3    H268945   3.166   1.747  16.677 -0.2654 -0.5938 -0.2191
15844TIP3   OH268946   0.649   4.762  12.301  0.1643  0.0894 -0.7454
15844TIP3    H168947   0.649   4.690  12.364  0.5416  0.9797  0.2905
15844TIP3    H268948   0.583   4.823  12.335  1.8120  1.5359 -0.0759
15845TIP3   OH268949   3.809   3.494   0.001  0.4516 -1.1749  0.1545
15845TIP3    H168950   3.901   3.479  -0.021  0.3721 -1.5960  0.1110
15845TIP3    H268951   3.762   3.422  -0.042  0.0417 -0.6452 -0.2968
15846TIP3   OH268952   3.236   1.315  16.561  0.1513  0.1985  0.4174
15846TIP3    H168953   3.151   1.299  16.520  0.1592 -0.5175  0.6636
15846TIP3    H268954   3.291   1.348  16.490 -0.3952  0.8827  0.3106
15847TIP3   OH268955   3.578   4.185  15.711  0.7278 -0.2659 -0.5566
15847TIP3    H168956   3.499   4.164  15.759  0.7989  1.5363  0.3940
15847TIP3    H268957   3.649   4.149  15.764  0.7429  0.8815  0.2133
15848TIP3   OH268958   2.163   1.339  14.129 -0.0793 -0.1093  0.1864
15848TIP3    H168959   2.117   1.310  14.050 -1.4522  2.2006  0.0840
15848TIP3    H268960   2.176   1.260  14.181 -0.1607 -1.4757 -1.8530
15849TIP3   OH268961   4.091   5.390  14.719  0.4911  0.2788  0.3132
15849TIP3    H168962   4.140   5.404  14.800  0.7833  0.0808  0.1709
15849TIP3    H268963   4.024   5.459  14.720  2.4162  2.2538 -0.7688
15850TIP3   OH268964   1.010   5.980  16.550  0.4758  0.1097 -0.1880
15850TIP3    H168965   0.979   5.932  16.473  0.1303 -0.5845  0.3723
15850TIP3    H268966   0.975   6.069  16.538 -0.3408 -0.2305 -0.3836
15851TIP3   OH268967   1.429   3.932   0.443  0.0181  0.2453 -0.1982
15851TIP3    H168968   1.508   3.986   0.456  2.0481 -2.6099 -0.1644
15851TIP3    H268969   1.395   3.918   0.531  1.2013 -0.9352  0.0950
15852TIP3   OH268970   0.863   0.731   1.995  0.0439 -0.5064 -0.3071
15852TIP3    H168971   0.863   0.798   1.926  2.0952 -1.0902 -0.8838
15852TIP3    H268972   0.861   0.648   1.948 -2.1335 -0.8903  0.4054
15853TIP3   OH268973   5.758   3.440   5.305  0.6025  0.6029 -0.1805
15853TIP3    H168974   5.830   3.490   5.345 -0.0461  0.7949  0.7581
15853TIP3    H268975   5.741   3.370   5.368 -1.6289  1.9437  0.7817
15854TIP3   OH268976   2.313   5.764  14.519 -0.2769 -0.0286  0.0593
15854TIP3    H168977   2.405   5.742  14.531 -0.4558 -0.2149  1.2048
15854TIP3    H268978   2.287   5.718  14.440  1.2381  2.0031 -1.6654
15855TIP3   OH268979   0.904   6.755  13.748  0.4171 -0.4089  0.2803
15855TIP3    H168980   0.887   6.740  13.655  0.2006  1.0349  0.0766
15855TIP3    H268981   0.832   6.811  13.777  1.1040  0.0901  1.0499
15856TIP3   OH268982   2.521   2.441   6.644  0.4482  0.1740 -0.1517
15856TIP3    H168983   2.488   2.530   6.654 -1.8185 -0.7553  0.8975
15856TIP3    H268984   2.480   2.392   6.715  1.9902 -1.6409 -0.4703
15857TIP3   OH268985   6.249   4.285  13.299 -0.3353  0.5495 -0.2535
15857TIP3    H168986   6.192   4.295  13.375  0.7662  0.4561  0.6019
15857TIP3    H268987   6.217   4.206  13.256  0.8395 -1.0606  1.7315
15858TIP3   OH268988   3.702   5.356   6.167 -0.0794  0.8202  0.3306
15858TIP3    H168989   3.617   5.313   6.173 -0.0739  0.3664 -2.0658
15858TIP3    H268990   3.756   5.314   6.233 -1.5816  0.7964  1.5537
15859TIP3   OH268991   1.263   0.555  11.021 -0.0621 -0.0584 -0.0865
15859TIP3    H168992   1.206   0.537  10.946 -0.6175  0.0027  0.3187
15859TIP3    H268993   1.260   0.650  11.032  0.3916 -0.0188 -0.2757
15860TIP3   OH268994   3.878   6.049  12.236 -0.1850 -0.0114 -0.0495
15860TIP3    H168995   3.943   6.096  12.288 -0.1479 -1.1354  0.9535
15860TIP3    H268996   3.809   6.113  12.221  1.4496  1.3968 -1.7344
15861TIP3   OH268997   4.548   4.657   3.643 -0.1702 -0.0315  0.4059
15861TIP3    H168998   4.516   4.745   3.626 -0.0343 -0.0156  0.2301
15861TIP3    H268999   4.511   4.634   3.728 -0.3230  0.1387  0.3854
15862TIP3   OH269000   6.339   2.716  14.452  0.1738 -0.4564 -0.1799
15862TIP3    H169001   6.406   2.736  14.386  0.1316  0.3538  0.0127
15862TIP3    H269002   6.259   2.757  14.418 -0.6385 -2.8231 -1.2202
15863TIP3   OH269003   1.943   0.004  15.427 -0.3078  0.1833  0.0943
15863TIP3    H169004   1.883  -0.070  15.418  0.2209 -0.2233 -0.0929
15863TIP3    H269005   2.000  -0.002  15.351 -1.0720  1.5341 -0.6099
15864TIP3   OH269006   3.193   1.141  15.510 -0.0304 -0.3252  0.2922
15864TIP3    H169007   3.225   1.229  15.531 -0.5293 -0.0003 -0.3117
15864TIP3    H269008   3.135   1.153  15.435  0.2596 -1.2310 -0.0858
15865TIP3   OH269009   1.784   2.816   2.095 -0.1791  0.2102 -0.6417
15865TIP3    H169010   1.786   2.759   2.018 -1.0067 -1.8307  0.8149
15865TIP3    H269011   1.705   2.790   2.143  2.1287 -1.0422  2.7092
15866TIP3   OH269012   4.683   4.047  15.616 -0.7276 -0.6358 -0.0749
15866TIP3    H169013   4.703   4.137  15.644  0.6732 -0.6424 -1.0366
15866TIP3    H269014   4.659   4.002  15.697 -1.8241  0.6963  0.3628
15867TIP3   OH269015   6.289   5.366   1.084 -0.2190 -0.1020 -0.2158
15867TIP3    H169016   6.338   5.295   1.128 -0.5286  0.7518  1.5533
15867TIP3    H269017   6.198   5.339   1.090 -0.3292  0.3955  0.3776
15868TIP3   OH269018   1.712   4.043   0.555  0.4859  0.4903  0.0927
15868TIP3    H169019   1.783   4.106   0.541 -0.2150  1.3113  0.1484
15868TIP3    H269020   1.666   4.077   0.632 -1.2787  1.2042 -1.2328
15869TIP3   OH269021   2.830   4.096   5.753 -0.5655 -0.3720 -0.2038
15869TIP3    H169022   2.867   4.181   5.776 -1.4030 -0.1183  0.2515
15869TIP3    H269023   2.804   4.058   5.837 -0.6306 -0.8704 -0.4497
15870TIP3   OH269024   4.427   5.326  14.198  0.4179 -0.0140  0.4745
15870TIP3    H169025   4.483   5.401  14.215  1.4688 -0.8105  0.5655
15870TIP3    H269026   4.422   5.320  14.102  0.4377  0.0846  0.4676
15871TIP3   OH269027   4.562   6.686  17.049  0.1086  0.0374  0.0600
15871TIP3    H169028   4.539   6.599  17.016  1.4100  0.0627 -0.9522
15871TIP3    H269029   4.655   6.695  17.029 -0.1816  1.9646 -0.5178
15872TIP3   OH269030   2.413   3.597   3.795  0.1914 -0.3275 -0.1432
15872TIP3    H169031   2.326   3.586   3.833  0.9626  1.7107  2.2877
15872TIP3    H269032   2.468   3.534   3.842  0.9972  1.7110  1.7076
15873TIP3   OH269033   5.034   5.618   5.427 -0.1021 -0.3084  0.0299
15873TIP3    H169034   4.975   5.575   5.365 -0.6008  0.2718  0.0904
15873TIP3    H269035   5.067   5.694   5.379 -1.4025  0.8103  0.8545
15874TIP3   OH269036   0.416   0.586   5.689  0.1762  0.0451  0.3704
15874TIP3    H169037   0.415   0.494   5.716  0.2437 -0.2266 -0.5334
15874TIP3    H269038   0.417   0.635   5.771  4.5140 -0.7486  0.9122
15875TIP3   OH269039   4.637   5.023   1.494 -0.6289 -0.2476  0.2095
15875TIP3    H169040   4.663   4.975   1.416 -1.7678 -0.5290 -0.0063
15875TIP3    H269041   4.552   4.986   1.518 -1.1253  1.0534  0.5359
15876TIP3   OH269042   1.041   6.230   5.649  0.3263 -0.4108 -0.2562
15876TIP3    H169043   1.042   6.325   5.637 -0.1617 -0.2657  0.8194
15876TIP3    H269044   0.959   6.202   5.610 -0.0533 -0.2546  0.4314
15877TIP3   OH269045   6.466   2.679   2.341  0.7724 -0.5452 -0.0678
15877TIP3    H169046   6.375   2.707   2.331  0.7956 -0.5596 -0.3141
15877TIP3    H269047   6.495   2.658   2.252  0.7009 -1.5313  0.1316
15878TIP3   OH269048   5.694   0.776   5.261  0.0673  0.2682 -0.2099
15878TIP3    H169049   5.674   0.851   5.205  0.5359  0.4192 -0.1788
15878TIP3    H269050   5.670   0.804   5.349  0.4825  0.4820 -0.1598
15879TIP3   OH269051   3.776   5.039  17.212 -0.3875  0.0843 -0.1430
15879TIP3    H169052   3.700   4.990  17.183  0.2634 -0.4799 -0.9174
15879TIP3    H269053   3.849   4.977  17.205  0.1357  0.6040  0.6172
15880TIP3   OH269054   5.504   6.591   2.441  0.6447  0.2466 -0.4481
15880TIP3    H169055   5.557   6.512   2.447 -0.0698 -0.3765 -2.0356
15880TIP3    H269056   5.561   6.656   2.401  0.4187 -0.2309 -1.5476
15881TIP3   OH269057   0.071   6.771  16.918 -0.5431  0.0786 -0.4074
15881TIP3    H169058   0.080   6.773  16.823  0.9294 -1.2500 -0.3012
15881TIP3    H269059   0.160   6.779  16.952 -1.0250  0.2723  0.8608
15882TIP3   OH269060   5.482   0.455  14.479  0.8358  0.3293  0.1465
15882TIP3    H169061   5.447   0.544  14.484  0.8148  0.2163  4.2181
15882TIP3    H269062   5.421   0.403  14.531  3.4275 -1.0970  1.8625
15883TIP3   OH269063   5.278   0.206  16.955 -0.5794 -0.4201 -0.2056
15883TIP3    H169064   5.344   0.260  16.998 -0.8714 -0.0458 -0.2322
15883TIP3    H269065   5.245   0.259  16.884 -0.8114 -0.6627 -0.2808
15884TIP3   OH269066   5.228   2.787  11.041  0.5322 -0.3079  0.7470
15884TIP3    H169067   5.243   2.865  10.987  2.3543 -0.2321  1.3247
15884TIP3    H269068   5.279   2.718  10.998  0.9582 -0.5596  1.6471
15885TIP3   OH269069   4.946   5.258   4.360 -0.2368 -0.0496  0.1758
15885TIP3    H169070   5.038   5.274   4.337  0.2452  0.1183  2.1416
15885TIP3    H269071   4.921   5.183   4.307  1.0037 -0.0119 -0.4894
15886TIP3   OH269072   4.371   1.261  12.216  0.2537 -0.0793 -0.0564
15886TIP3    H169073   4.317   1.340  12.225 -0.5421 -0.6742  0.4676
15886TIP3    H269074   4.319   1.202  12.162  0.6279 -0.4384 -0.0265
15887TIP3   OH269075   0.995   5.372  15.212 -0.0019  0.1064 -0.0676
15887TIP3    H169076   1.041   5.292  15.186  2.2560  1.3652 -0.0132
15887TIP3    H269077   1.064   5.432  15.239 -1.8277  1.2828  2.1786
15888TIP3   OH269078   1.664   4.552  10.889 -0.0919 -0.2398  0.3879
15888TIP3    H169079   1.745   4.602  10.885 -0.4012  0.3341  1.2580
15888TIP3    H269080   1.632   4.552  10.799 -0.2381  1.3694  0.4284
15889TIP3   OH269081   6.371   4.202   1.550  0.1069  0.0771 -0.1860
15889TIP3    H169082   6.368   4.247   1.635 -0.2704 -0.7059  0.2157
15889TIP3    H269083   6.463   4.178   1.540 -0.0854 -1.0511  0.6500
15890TIP3   OH269084   3.064   0.348   3.614 -0.3941  0.2671 -0.3139
15890TIP3    H169085   3.137   0.290   3.634 -0.3436  0.2125 -0.6545
15890TIP3    H269086   3.101   0.436   3.623 -0.1770  0.2347 -0.9015
15891TIP3   OH269087   4.531   3.977   2.483  0.2519 -0.0991  0.3093
15891TIP3    H169088   4.462   3.942   2.427 -0.2591  1.2413  0.0792
15891TIP3    H269089   4.607   3.985   2.425 -0.4039  1.7085 -0.3339
15892TIP3   OH269090   0.904   6.039  13.972  0.2039 -0.3374 -0.1113
15892TIP3    H169091   0.828   6.029  14.029  2.7829 -1.0884  3.4493
15892TIP3    H269092   0.926   6.132  13.977 -0.2973 -0.1715 -0.9173
15893TIP3   OH269093   5.289   6.057   1.422  0.2822  0.0766 -0.2488
15893TIP3    H169094   5.233   6.100   1.487 -1.5997 -0.6972 -1.2904
15893TIP3    H269095   5.261   6.095   1.339  0.2145 -1.4688 -0.9379
15894TIP3   OH269096   0.242   5.496  11.408 -0.3425 -0.5185 -0.0166
15894TIP3    H169097   0.317   5.463  11.359 -0.5101 -1.1270  0.1351
15894TIP3    H269098   0.166   5.467  11.358 -0.4882 -0.2733  0.0615
15895TIP3   OH269099   0.640   1.749   3.842 -0.0570 -0.0789  0.0014
15895TIP3    H169100   0.553   1.721   3.872 -0.6160 -0.3401 -1.8060
15895TIP3    H269101   0.625   1.831   3.796  0.6706 -0.0349 -0.1720
15896TIP3   OH269102   2.618   5.128   4.572 -0.8138 -0.0258 -0.4026
15896TIP3    H169103   2.528   5.112   4.544 -0.8872  0.5117 -0.4950
15896TIP3    H269104   2.672   5.106   4.496 -1.0608  2.0983 -1.2363
15897TIP3   OH269105   5.829   0.320   5.126 -0.1127 -0.2850 -0.2824
15897TIP3    H169106   5.755   0.374   5.152  0.2432 -0.2490  0.6590
15897TIP3    H269107   5.885   0.379   5.076  0.5370  0.3720  1.1911
15898TIP3   OH269108   1.563   6.150   2.595  0.5204 -0.1044 -0.2338
15898TIP3    H169109   1.564   6.213   2.667  1.2368 -0.3818  0.0049
15898TIP3    H269110   1.568   6.204   2.516  1.2591  0.1332 -0.0263
15899TIP3   OH269111   5.424   0.445  16.324  0.1563 -0.3644 -0.0372
15899TIP3    H169112   5.343   0.433  16.373 -1.0778 -0.6028 -2.0861
15899TIP3    H269113   5.449   0.536  16.340 -1.8396  0.4399 -1.3591
15900TIP3   OH269114   6.728   2.412  13.514  0.5549 -0.3609  0.1406
15900TIP3    H169115   6.753   2.394  13.604  2.6439 -1.1852 -0.5512
15900TIP3    H269116   6.792   2.363  13.462  0.0539  0.9763 -1.7787
15901TIP3   OH269117   5.137   6.153  11.861  0.1917  0.3778  0.3182
15901TIP3    H169118   5.198   6.120  11.796  1.3953 -1.5730  2.3855
15901TIP3    H269119   5.127   6.246  11.840  1.7614  0.1134 -1.6698
15902TIP3   OH269120   2.520   5.102  14.704  0.4114  0.3005 -0.4376
15902TIP3    H169121   2.509   5.183  14.654 -1.2629 -0.1385 -0.8063
15902TIP3    H269122   2.434   5.088  14.745  1.4437  0.0782  1.7099
15903TIP3   OH269123   0.809   5.235   0.034  0.0794  0.4318 -0.4945
15903TIP3    H169124   0.740   5.240   0.101  0.4392 -0.7044 -0.0246
15903TIP3    H269125   0.764   5.251  -0.049 -0.7182 -0.0975 -0.1632
15904TIP3   OH269126   2.708   3.135   4.130 -0.3554  0.6825  0.0124
15904TIP3    H169127   2.710   3.185   4.048 -0.5857  1.6871  0.6137
15904TIP3    H269128   2.701   3.044   4.102 -0.5167  1.0224 -1.0879
15905TIP3   OH269129   2.685   2.342   2.223 -0.3599  0.0143 -0.5523
15905TIP3    H169130   2.661   2.264   2.174 -1.7113  0.6876 -0.9912
15905TIP3    H269131   2.729   2.309   2.302  0.0954 -1.1311 -1.2759
15906TIP3   OH269132   3.881   1.513   4.109 -0.0440  0.7152  0.1442
15906TIP3    H169133   3.925   1.500   4.025  1.1554  4.2366  0.1280
15906TIP3    H269134   3.907   1.438   4.162  1.1436 -0.3267 -1.8409
15907TIP3   OH269135   5.411   2.551  16.344 -0.2598  0.4171  0.0432
15907TIP3    H169136   5.469   2.594  16.281  1.6499 -1.4399  0.4899
15907TIP3    H269137   5.409   2.459  16.316 -1.6929  0.1461  1.0086
15908TIP3   OH269138   2.977   1.956  12.528 -0.3439  0.5793  0.2354
15908TIP3    H169139   2.889   1.946  12.565 -0.5550  0.4667 -0.2929
15908TIP3    H269140   2.996   1.871  12.488  1.2030 -0.4021  2.8957
15909TIP3   OH269141   5.725   6.039   5.052  1.3056  0.1258  0.1914
15909TIP3    H169142   5.675   6.090   4.989  1.2039  1.0462  1.0058
15909TIP3    H269143   5.808   6.021   5.009  0.6251 -0.6321 -0.8207
15910TIP3   OH269144   3.520   1.897  12.726 -0.4913 -0.6232 -0.4073
15910TIP3    H169145   3.570   1.953  12.667 -1.2425 -2.0205 -2.4258
15910TIP3    H269146   3.545   1.926  12.814  1.5421  0.7095 -1.3886
15911TIP3   OH269147   6.527   2.963  11.683 -0.4719  0.3367  0.0737
15911TIP3    H169148   6.434   2.985  11.688 -0.6650 -0.4786  0.2189
15911TIP3    H269149   6.547   2.924  11.768  0.0426  0.6528  0.1002
15912TIP3   OH269150   1.212   6.042  12.689  0.6433 -0.1224 -0.2273
15912TIP3    H169151   1.166   6.103  12.631 -0.1695  0.0310  0.5629
15912TIP3    H269152   1.144   6.010  12.748  1.5641  0.1496  0.9966
15913TIP3   OH269153   2.721   5.740   0.151 -1.2340 -0.1021 -0.4248
15913TIP3    H169154   2.807   5.725   0.191 -0.9589 -0.1250 -1.0277
15913TIP3    H269155   2.707   5.665   0.094 -2.0232 -0.5118  0.2930
15914TIP3   OH269156   0.285   0.902  12.019  0.2738  0.5031  0.0604
15914TIP3    H169157   0.287   0.906  12.115 -0.7748 -0.1699  0.1183
15914TIP3    H269158   0.221   0.834  11.999  0.5479  0.5826 -1.1256
15915TIP3   OH269159   2.544   0.723  12.707 -0.0510 -0.0631 -0.0291
15915TIP3    H169160   2.554   0.773  12.626  0.5484 -1.5495 -0.9030
15915TIP3    H269161   2.494   0.645  12.680  0.6490 -0.8460  0.9159
15916TIP3   OH269162   2.048   5.221  12.110 -0.0194 -0.1311  0.4922
15916TIP3    H169163   1.970   5.211  12.056  1.4417 -0.4174 -1.6296
15916TIP3    H269164   2.120   5.192  12.054  1.7944  1.6756  1.8148
15917TIP3   OH269165   1.366   1.289   2.895 -0.5853 -0.0222  0.4321
15917TIP3    H169166   1.325   1.203   2.896  1.1898 -0.9048  0.0015
15917TIP3    H269167   1.426   1.288   2.970  1.8653 -0.4195 -1.4795
15918TIP3   OH269168   0.680   1.052   0.174  0.3266 -0.1586 -0.1935
15918TIP3    H169169   0.585   1.056   0.159  0.2613 -0.0330  0.2496
15918TIP3    H269170   0.719   1.070   0.088 -0.0597 -1.0184 -0.5504
15919TIP3   OH269171   5.379   5.571   0.388  0.5265 -0.0192  0.1919
15919TIP3    H169172   5.366   5.665   0.391 -0.9621 -0.2513  2.1673
15919TIP3    H269173   5.409   5.548   0.476 -0.5938 -1.5770  0.1949
15920TIP3   OH269174   1.219   2.281   4.834  0.3907 -0.4221 -0.2351
15920TIP3    H169175   1.124   2.269   4.839  0.2763 -0.1884 -1.5787
15920TIP3    H269176   1.243   2.316   4.919 -0.8658  0.3486 -0.1787
15921TIP3   OH269177   1.609   2.390  14.087  0.0458  0.1841  0.2332
15921TIP3    H169178   1.650   2.425  14.167 -0.3249 -1.2385  1.0627
15921TIP3    H269179   1.626   2.296  14.090  0.9587  0.2509 -1.9403
15922TIP3   OH269180   1.295   3.361   2.209  0.2673 -0.2081 -0.4726
15922TIP3    H169181   1.362   3.318   2.262  0.2837  0.7502  0.3014
15922TIP3    H269182   1.323   3.453   2.204 -0.3680 -0.0466 -1.1188
15923TIP3   OH269183   0.591   5.008   5.396 -0.1442  0.2569 -0.5200
15923TIP3    H169184   0.674   4.967   5.421 -1.2481 -0.5690  2.0030
15923TIP3    H269185   0.612   5.101   5.387  0.7919  0.2819  1.5400
15924TIP3   OH269186   3.374   1.173   2.887 -0.5142 -0.2399 -0.1623
15924TIP3    H169187   3.419   1.183   2.971 -1.9963 -0.2445  0.6665
15924TIP3    H269188   3.282   1.195   2.907 -0.8150  0.1286 -1.8615
15925TIP3   OH269189   6.281   0.288   2.058 -0.3846 -0.6705  0.2135
15925TIP3    H169190   6.354   0.336   2.096 -1.6604  1.6535 -0.1695
15925TIP3    H269191   6.319   0.238   1.986  0.8888  0.1605  0.3051
15926TIP3   OH269192   5.260   4.241  14.092  0.0005 -0.0850  0.6827
15926TIP3    H169193   5.202   4.315  14.075  0.7270  0.1783 -0.6853
15926TIP3    H269194   5.280   4.247  14.185 -2.5254 -0.4369  1.2989
15927TIP3   OH269195   6.383   0.170   2.463  0.0064  0.5702  0.1808
15927TIP3    H169196   6.422   0.150   2.548  0.1709  0.6598  0.1263
15927TIP3    H269197   6.295   0.133   2.468 -0.3416  1.4750  0.7605
15928TIP3   OH269198   2.996   6.395   1.682  0.3603  0.5471 -0.4895
15928TIP3    H169199   3.065   6.383   1.616  0.7148  1.0285 -0.2087
15928TIP3    H269200   2.927   6.443   1.636  0.4102  0.4741 -0.6416
15929TIP3   OH269201   4.104   0.046  14.358  0.8285 -0.2532 -0.0471
15929TIP3    H169202   4.065  -0.039  14.377 -0.0244 -0.1478 -1.2752
15929TIP3    H269203   4.171   0.058  14.426 -1.5453 -0.2256  2.3615
15930TIP3   OH269204   0.999   5.534  16.354 -0.0702 -0.1146 -0.5219
15930TIP3    H169205   0.998   5.629  16.339 -1.0567 -0.0704 -0.2088
15930TIP3    H269206   0.952   5.523  16.437  1.2728 -0.7563  0.1611
15931TIP3   OH269207   4.819   3.092   1.821 -0.2999  0.6593  0.1466
15931TIP3    H169208   4.888   3.042   1.778  0.5503  1.2215  0.8429
15931TIP3    H269209   4.780   3.031   1.883  0.6846  0.8252  0.9401
15932TIP3   OH269210   4.706   3.600   5.309 -0.2712 -0.0310  0.1745
15932TIP3    H169211   4.679   3.541   5.380  0.2748 -3.6151 -2.4052
15932TIP3    H269212   4.788   3.638   5.340 -0.9278 -0.1800  2.1618
15933TIP3   OH269213   4.017   1.329   5.027  0.2523 -0.5024 -0.0495
15933TIP3    H169214   3.971   1.407   5.058 -1.2129 -0.7075 -1.6716
15933TIP3    H269215   4.090   1.318   5.089 -0.2093  1.4645  0.8678
15934TIP3   OH269216   5.400   0.344  10.617 -0.0260  0.0312  0.2512
15934TIP3    H169217   5.478   0.341  10.562  0.1558 -0.9716  0.5532
15934TIP3    H269218   5.418   0.282  10.688 -0.7359  0.4418  0.8020
15935TIP3   OH269219   1.581   2.921   4.997 -0.1447  0.2521  0.3077
15935TIP3    H169220   1.675   2.906   4.997 -0.0714  0.7079 -0.0905
15935TIP3    H269221   1.543   2.837   5.020  0.3670  0.1047  0.6106
15936TIP3   OH269222   0.087   4.809   4.157 -0.4338  0.3392 -0.0836
15936TIP3    H169223   0.101   4.855   4.074 -0.5121 -0.5998 -0.6205
15936TIP3    H269224   0.069   4.719   4.132 -0.4838  0.0526  0.9596
15937TIP3   OH269225   5.915   5.978   3.500 -0.1492 -0.3418 -0.1625
15937TIP3    H169226   5.895   5.925   3.423 -1.4410 -0.0577 -0.0474
15937TIP3    H269227   5.883   5.927   3.574 -0.8502  0.3145 -0.0026
15938TIP3   OH269228   3.508   3.759  15.170  0.0335  0.0525  0.2930
15938TIP3    H169229   3.593   3.799  15.188 -0.2420  1.3379 -1.1590
15938TIP3    H269230   3.512   3.736  15.078 -1.3613  0.5512  0.0953
15939TIP3   OH269231   5.509   5.882  16.550  0.2050  0.3947 -0.1037
15939TIP3    H169232   5.518   5.869  16.456  0.2346 -2.1952  0.2034
15939TIP3    H269233   5.418   5.909  16.562  0.6001  2.1431 -0.9880
15940TIP3   OH269234   1.584   1.080  13.408 -0.3428  0.2746  0.3875
15940TIP3    H169235   1.609   1.088  13.500 -1.3658  0.9414  0.6184
15940TIP3    H269236   1.666   1.062  13.362  0.0289 -1.0625  1.5411
15941TIP3   OH269237   4.109   0.468  16.200 -0.0578  0.3614 -0.0132
15941TIP3    H169238   4.106   0.393  16.141 -0.8079  0.5036 -0.1529
15941TIP3    H269239   4.183   0.449  16.259  0.8910  0.3727 -1.1954
15942TIP3   OH269240   5.704   0.718   3.328  0.6527 -0.4290  0.3909
15942TIP3    H169241   5.634   0.677   3.278  0.4356 -1.0807  1.2136
15942TIP3    H269242   5.783   0.671   3.301  0.7387  0.0917 -0.2965
15943TIP3   OH269243   6.742   2.800   0.485 -0.2047  0.0432 -0.2250
15943TIP3    H169244   6.686   2.865   0.442 -0.9673 -0.9400 -0.7418
15943TIP3    H269245   6.701   2.786   0.570 -0.6082 -0.4877 -0.5031
15944TIP3   OH269246   4.024   6.296  14.223  0.3172  0.0136 -0.1682
15944TIP3    H169247   4.008   6.215  14.273  0.2758 -1.2778 -2.1915
15944TIP3    H269248   3.958   6.357  14.254 -0.9479 -1.4022  0.0059
15945TIP3   OH269249   1.160   1.328   0.329  0.1439 -0.0563  0.5462
15945TIP3    H169250   1.164   1.424   0.328  0.4110 -0.0685 -0.2683
15945TIP3    H269251   1.229   1.300   0.269 -1.5453 -0.6885 -1.1650
15946TIP3   OH269252   2.917   5.961  16.426 -0.2831 -0.0648  0.0863
15946TIP3    H169253   2.916   5.874  16.386 -1.1018 -0.6910  1.4240
15946TIP3    H269254   2.877   6.018  16.360 -0.1426 -0.7886 -0.6321
15947TIP3   OH269255   4.085   6.269  13.575  0.4348  0.1517  0.4583
15947TIP3    H169256   4.058   6.346  13.625 -0.8237 -0.6848  1.0894
15947TIP3    H269257   4.004   6.229  13.544  1.1593  0.1663 -1.5508
15948TIP3   OH269258   1.334   0.259   0.514 -0.0697  0.1682  1.0390
15948TIP3    H169259   1.421   0.220   0.520 -0.0045  0.3270  1.1329
15948TIP3    H269260   1.295   0.246   0.601 -0.6303 -1.0391  0.6237
15949TIP3   OH269261   2.102   6.780   3.555  0.2307 -0.6105  0.7021
15949TIP3    H169262   2.016   6.738   3.561 -0.9177  1.5251 -0.1486
15949TIP3    H269263   2.094   6.859   3.609  1.3738  0.0645 -0.0957
15950TIP3   OH269264   5.346   1.946   2.725 -0.2164 -0.0519 -0.2572
15950TIP3    H169265   5.423   1.964   2.671  0.9711 -0.1281  1.3705
15950TIP3    H269266   5.294   2.026   2.720  1.3531  1.0802  0.8498
15951TIP3   OH269267   4.956   0.581   1.091  0.0789  0.2197  0.3562
15951TIP3    H169268   4.893   0.604   1.160  0.7992  0.3589  0.9776
15951TIP3    H269269   4.994   0.498   1.120  1.5785  1.1037  0.9655
15952TIP3   OH269270   5.315   1.341  11.668 -0.3749  0.1462 -0.3853
15952TIP3    H169271   5.231   1.356  11.712 -0.6381  1.3194 -1.2689
15952TIP3    H269272   5.347   1.258  11.704 -0.5647  1.1000  2.0682
15953TIP3   OH269273   0.956   5.148   0.821 -0.2004 -0.0899 -0.2343
15953TIP3    H169274   0.956   5.238   0.853 -2.0419  0.6007 -2.0812
15953TIP3    H269275   0.870   5.113   0.845  0.4322 -1.3149  0.3092
15954TIP3   OH269276   5.452   2.468   5.707  0.1545  0.0458 -0.0674
15954TIP3    H169277   5.487   2.471   5.796  1.1415 -0.2924 -0.4440
15954TIP3    H269278   5.478   2.382   5.673 -1.3960 -0.4001 -0.2143
15955TIP3   OH269279   3.599   2.806   2.762  0.2815 -0.4674 -0.2976
15955TIP3    H169280   3.621   2.771   2.675  0.6976  0.8270 -0.7248
15955TIP3    H269281   3.659   2.879   2.773 -1.2044  0.6845  0.2002
15956TIP3   OH269282   3.195   0.099   0.950 -0.1136  0.2980 -0.2048
15956TIP3    H169283   3.284   0.117   0.920  0.4018 -0.3492  0.8971
15956TIP3    H269284   3.140   0.153   0.894  0.9213  0.2119 -1.3445
15957TIP3   OH269285   5.644   1.274   0.554 -0.2296  0.0566 -0.2228
15957TIP3    H169286   5.729   1.293   0.513 -0.9553  0.4096 -1.6091
15957TIP3    H269287   5.629   1.348   0.613  1.7520 -1.4410  2.2522
15958TIP3   OH269288   6.786   6.761  12.842 -0.5490  0.4144 -0.3898
15958TIP3    H169289   6.821   6.672  12.836  1.2563  1.1852 -1.5466
15958TIP3    H269290   6.711   6.753  12.902  0.3519 -1.6392  0.5152
15959TIP3   OH269291   3.955   6.068   0.520  0.8877  0.6714  0.1730
15959TIP3    H169292   3.985   5.987   0.478 -0.3802  0.4132 -0.2479
15959TIP3    H269293   3.877   6.093   0.472 -0.8479  0.1350  2.5846
15960TIP3   OH269294   1.765   5.487  13.071 -0.3105  0.2005 -0.4658
15960TIP3    H169295   1.770   5.503  13.165 -3.4786 -1.0647 -0.0490
15960TIP3    H269296   1.731   5.569  13.034  1.4306  0.8847 -0.6286
15961TIP3   OH269297   4.626   2.455   0.885 -0.7956 -0.1453 -0.1199
15961TIP3    H169298   4.678   2.510   0.944 -0.5137  0.6353 -1.0733
15961TIP3    H269299   4.556   2.513   0.855 -0.6124 -0.3724 -0.9852
15962TIP3   OH269300   3.701   0.577   4.448  0.4643  0.0705  0.4720
15962TIP3    H169301   3.654   0.539   4.373  1.3114  1.1336 -0.6021
15962TIP3    H269302   3.678   0.670   4.446  1.1234  0.2476  1.0606
15963TIP3   OH269303   2.364   4.946  12.446  0.0967  0.9140 -0.2867
15963TIP3    H169304   2.315   4.976  12.369  0.0743  2.2228  0.2287
15963TIP3    H269305   2.455   4.964  12.424  0.2546 -0.3363 -0.7130
15964TIP3   OH269306   4.616   4.739  14.146 -0.2015  0.1125  0.6369
15964TIP3    H169307   4.686   4.792  14.108  0.9705 -1.1266  1.0476
15964TIP3    H269308   4.653   4.651  14.153 -2.5675 -1.1089 -1.2750
15965TIP3   OH269309   1.929   1.911   0.387  0.3726 -0.4664 -0.3117
15965TIP3    H169310   2.021   1.921   0.362  0.5028  1.2716  0.8151
15965TIP3    H269311   1.884   1.893   0.304  1.9317 -3.1748 -0.6507
15966TIP3   OH269312   6.590   4.251  11.251 -0.0812 -0.2677  0.3868
15966TIP3    H169313   6.642   4.189  11.199  0.4196  0.3024  0.2122
15966TIP3    H269314   6.562   4.199  11.327  0.9518 -0.5114  0.6157
15967TIP3   OH269315   4.616   4.093   0.608 -0.0141 -0.4958 -0.1974
15967TIP3    H169316   4.702   4.136   0.611 -0.3580  0.1864  0.0456
15967TIP3    H269317   4.635   4.006   0.574  0.9040 -0.6752  0.7295
15968TIP3   OH269318   2.770   2.368  16.752 -0.3106 -0.6914  0.1541
15968TIP3    H169319   2.722   2.285  16.758  1.0990 -1.5404 -0.1566
15968TIP3    H269320   2.823   2.371  16.831  0.1627 -0.4066 -0.1737
15969TIP3   OH269321   6.596   4.241  13.516  0.6630  0.2258  0.4594
15969TIP3    H169322   6.518   4.217  13.467  1.4308 -0.1304 -0.6100
15969TIP3    H269323   6.563   4.286  13.594 -0.6197 -0.4331  0.3107
15970TIP3   OH269324   5.278   2.744  14.262  0.6348 -0.3993  0.8703
15970TIP3    H169325   5.213   2.779  14.201  0.6239 -0.8409  0.6268
15970TIP3    H269326   5.329   2.821  14.290  0.2729 -0.1150  0.7446
15971TIP3   OH269327   0.852   0.178   1.900 -0.1427  0.8144 -0.2242
15971TIP3    H169328   0.863   0.201   1.808  1.0315  2.9652  0.4210
15971TIP3    H269329   0.941   0.175   1.935 -0.6466  1.4430  1.1524
15972TIP3   OH269330   5.600   2.535   1.072  0.0029 -0.1460  0.1931
15972TIP3    H169331   5.559   2.525   0.986 -0.5065 -0.6553  0.4885
15972TIP3    H269332   5.528   2.527   1.134  0.6584 -2.0417  0.7715
15973TIP3   OH269333   5.397   4.785  11.126 -0.2069 -0.1400 -0.1819
15973TIP3    H169334   5.421   4.796  11.034 -0.2936  3.6746  0.1612
15973TIP3    H269335   5.313   4.831  11.134 -0.0615 -0.1824  1.8484
15974TIP3   OH269336   6.784   4.072  16.752 -0.1676  0.2225 -0.3105
15974TIP3    H169337   6.707   4.021  16.777  1.1155 -0.9068  1.4069
15974TIP3    H269338   6.810   4.036  16.666 -0.8027 -0.2456 -0.3073
15975TIP3   OH269339   3.313   3.622   2.136 -0.4718  0.8352 -0.2304
15975TIP3    H169340   3.373   3.677   2.085 -0.4401  0.8474 -0.1799
15975TIP3    H269341   3.252   3.586   2.071 -0.6691  1.1578 -0.2243
15976TIP3   OH269342   1.189   4.210   4.693  0.8543  0.1603  0.3427
15976TIP3    H169343   1.160   4.293   4.730  0.1734  0.3777 -0.6481
15976TIP3    H269344   1.281   4.223   4.673  0.8738  0.5065  0.6470
15977TIP3   OH269345   1.650   3.102  16.566  0.0429 -0.3772  0.1670
15977TIP3    H169346   1.730   3.121  16.516 -0.4062  1.5804  0.1528
15977TIP3    H269347   1.606   3.187  16.572 -0.8842 -0.9968  2.1864
15978TIP3   OH269348   0.451   5.186   1.709 -0.5235  0.5212  0.5781
15978TIP3    H169349   0.495   5.187   1.794  3.5826 -2.6966 -1.2989
15978TIP3    H269350   0.487   5.261   1.662 -1.6437  1.3959  1.0818
15979TIP3   OH269351   3.842   2.587   0.954 -0.8662 -0.5464  0.1342
15979TIP3    H169352   3.757   2.605   0.914 -0.8976  1.8424  1.2149
15979TIP3    H269353   3.904   2.589   0.881 -1.5708 -1.1865 -0.4914
15980TIP3   OH269354   2.416   4.480  13.592  0.1716 -0.2988 -0.0503
15980TIP3    H169355   2.334   4.429  13.590  2.0633 -3.4710  0.2460
15980TIP3    H269356   2.443   4.477  13.684  0.8562  0.3987 -0.2248
15981TIP3   OH269357   5.386   1.424   3.502  0.0423  0.1144 -0.1919
15981TIP3    H169358   5.480   1.420   3.485 -0.3072  0.3551 -2.3752
15981TIP3    H269359   5.372   1.367   3.577  1.9686  0.3430  0.3616
15982TIP3   OH269360   0.378   6.012  11.942 -0.4600  0.3979 -0.0817
15982TIP3    H169361   0.456   6.022  11.888 -1.6850  0.7735 -1.8048
15982TIP3    H269362   0.311   5.981  11.882 -1.2475 -1.4666  1.6985
15983TIP3   OH269363   4.836   4.714  16.517 -0.1170 -0.0675 -0.7387
15983TIP3    H169364   4.750   4.673  16.530 -0.0252 -0.3926 -1.1462
15983TIP3    H269365   4.839   4.733  16.424 -0.0692  0.6772 -0.5834
15984TIP3   OH269366   1.037   1.469  14.823 -0.3169 -0.5208  0.8817
15984TIP3    H169367   1.009   1.555  14.855  0.6368  0.1447 -0.0361
15984TIP3    H269368   0.956   1.417  14.820 -0.9169  0.3690  1.3613
15985TIP3   OH269369   2.498   4.408  12.584 -0.5370  0.1614 -0.9860
15985TIP3    H169370   2.503   4.477  12.518  1.9508  2.4149  1.4382
15985TIP3    H269371   2.472   4.453  12.665  0.0531 -1.8998  0.4042
15986TIP3   OH269372   5.058   6.486  16.421  0.3972 -0.6826 -0.1044
15986TIP3    H169373   5.069   6.515  16.512 -0.1817 -0.3597 -0.1319
15986TIP3    H269374   4.963   6.476  16.411  0.1444  2.8162 -1.7647
15987TIP3   OH269375   4.080   0.992   4.694 -0.4142  0.1154 -0.4672
15987TIP3    H169376   4.146   0.925   4.678  0.1419  1.3775 -3.8946
15987TIP3    H269377   4.036   1.004   4.610 -2.2680  2.1902  0.7336
15988TIP3   OH269378   3.830   1.924  11.784 -0.0226 -0.2080 -0.0719
15988TIP3    H169379   3.740   1.900  11.762 -0.1179  0.1786 -0.0976
15988TIP3    H269380   3.833   2.019  11.774 -0.4739  0.1903  3.0806
15989TIP3   OH269381   4.524   2.001  11.587  0.1769  0.4121 -0.4989
15989TIP3    H169382   4.599   2.051  11.620  0.3507 -1.0592  1.3879
15989TIP3    H269383   4.448   2.043  11.628  0.2550 -0.3213  0.4028
15990TIP3   OH269384   2.064   4.911   5.322 -0.4183  0.2309  0.4208
15990TIP3    H169385   2.143   4.901   5.269 -0.8347 -1.0740  0.0103
15990TIP3    H269386   2.051   5.006   5.328 -1.0308  0.4199 -2.8582
15991TIP3   OH269387   2.145   5.721   4.203  0.7446  0.2504 -0.3579
15991TIP3    H169388   2.113   5.811   4.198  0.9144  0.2784 -1.0257
15991TIP3    H269389   2.240   5.729   4.209  0.7643  0.1142 -0.4865
15992TIP3   OH269390   5.747   1.679  14.576  0.3103 -0.4856 -0.4466
15992TIP3    H169391   5.804   1.610  14.609  0.9655  0.2892  0.0606
15992TIP3    H269392   5.659   1.652  14.604  0.8538  0.1714  2.0494
15993TIP3   OH269393   1.193   4.552   4.273 -0.3425  0.2923  0.3149
15993TIP3    H169394   1.254   4.522   4.341  0.5201  0.6964 -0.2633
15993TIP3    H269395   1.107   4.526   4.305  0.2031 -0.9911  0.7805
15994TIP3   OH269396   6.091   3.857   1.106  0.1723  0.0416  0.7629
15994TIP3    H169397   6.125   3.905   1.181 -0.1764  1.3622  0.0918
15994TIP3    H269398   6.013   3.812   1.138 -1.0456  2.1110  0.7254
15995TIP3   OH269399   3.610   2.184   4.876 -0.2585 -1.0277  0.4765
15995TIP3    H169400   3.682   2.213   4.820  1.3196 -2.0126  1.9589
15995TIP3    H269401   3.631   2.093   4.897 -0.8514 -0.6860  2.6389
15996TIP3   OH269402   1.182   2.640   2.668  0.1158  0.5341  0.2186
15996TIP3    H169403   1.241   2.573   2.702 -1.1971 -0.9804 -0.4585
15996TIP3    H269404   1.194   2.715   2.728  1.8192 -0.1735  0.7847
15997TIP3   OH269405   6.189   3.826   1.949 -0.0061  0.1444 -0.0046
15997TIP3    H169406   6.196   3.740   1.990 -0.9711  0.7125  1.4021
15997TIP3    H269407   6.271   3.870   1.969  1.5173 -1.2999 -2.8160
15998TIP3   OH269408   4.820   4.033   4.444  0.0659 -0.1788 -0.0801
15998TIP3    H169409   4.728   4.011   4.456 -0.3925  1.1171 -1.1220
15998TIP3    H269410   4.854   3.964   4.388 -0.6099  0.0782 -0.8184
15999TIP3   OH269411   1.225   4.176   5.495  0.4333  0.2296  0.6042
15999TIP3    H169412   1.158   4.241   5.517 -0.4232 -0.7008  0.8043
15999TIP3    H269413   1.175   4.097   5.471  1.3698  0.4256 -2.2458
16000TIP3   OH269414   5.815   4.585  13.958  0.0891  0.1762 -0.8618
16000TIP3    H169415   5.849   4.674  13.968 -0.0872  0.2788 -1.1589
16000TIP3    H269416   5.727   4.597  13.920  0.2379 -0.1429 -1.3163
16001TIP3   OH269417   3.631   4.121   5.406  0.0104 -0.4470 -0.6123
16001TIP3    H169418   3.720   4.102   5.437  0.0878 -1.3693 -1.3543
16001TIP3    H269419   3.627   4.216   5.403  0.3606 -0.3550  1.1531
16002TIP3   OH269420   5.156   2.468  14.191  0.1805  0.2320 -0.4219
16002TIP3    H169421   5.136   2.544  14.246 -0.2349 -0.5936  0.5800
16002TIP3    H269422   5.217   2.501  14.125 -0.1105  1.4655 -0.0770
16003TIP3   OH269423   2.769   0.842   0.280  0.5577 -0.4075  0.3832
16003TIP3    H169424   2.691   0.871   0.234  1.1110  1.0616  0.3264
16003TIP3    H269425   2.737   0.787   0.351 -0.5104  0.0845  0.2772
16004TIP3   OH269426   6.623   0.675  15.633 -0.1639 -0.0744 -0.2859
16004TIP3    H169427   6.655   0.700  15.719  0.6389  0.5109 -0.7458
16004TIP3    H269428   6.556   0.740  15.612 -1.3779 -1.0538  0.4982
16005TIP3   OH269429   4.888   3.001   6.412 -0.7162 -0.6349  0.2575
16005TIP3    H169430   4.857   3.089   6.431  0.9991 -0.3247  1.7365
16005TIP3    H269431   4.976   2.998   6.449 -0.1220 -2.4396 -1.2128
16006TIP3   OH269432   0.474   5.396   0.700 -0.6223  0.7346 -0.2873
16006TIP3    H169433   0.557   5.440   0.682 -0.7986  1.6117  0.9830
16006TIP3    H269434   0.488   5.350   0.782 -0.6908 -0.9658 -1.2171
16007TIP3   OH269435   5.214   6.785  12.417  0.2397 -0.8029 -0.1268
16007TIP3    H169436   5.141   6.770  12.476 -2.2027  0.9492 -2.5914
16007TIP3    H269437   5.251   6.869  12.446 -0.9696  0.0667 -1.0377
16008TIP3   OH269438   6.212   5.004   5.228 -0.6806  0.3874 -0.7581
16008TIP3    H169439   6.207   4.957   5.144  2.1403 -0.2112 -0.6468
16008TIP3    H269440   6.199   4.936   5.294  0.0470  0.3528 -0.6536
16009TIP3   OH269441   4.720   6.196  11.111  0.4439  0.4303 -0.0440
16009TIP3    H169442   4.639   6.246  11.104 -0.1144 -0.3242  0.9085
16009TIP3    H269443   4.760   6.203  11.024  1.3441  4.1413  0.5830
16010TIP3   OH269444   3.819   4.024  14.708 -0.3215 -0.1836 -0.0659
16010TIP3    H169445   3.844   4.007  14.617 -1.0106  0.0300 -0.2992
16010TIP3    H269446   3.858   4.110  14.727 -1.5383  0.5280 -0.6938
16011TIP3   OH269447   4.112   4.095   4.116  0.3755 -0.4952  0.0010
16011TIP3    H169448   4.127   4.148   4.037 -1.2207 -0.1323 -0.0719
16011TIP3    H269449   4.200   4.080   4.151  0.9230  1.5663 -0.4017
16012TIP3   OH269450   2.187   2.604  15.853 -0.8253  0.4610 -0.3187
16012TIP3    H169451   2.169   2.547  15.778 -0.8445 -1.4633  1.1086
16012TIP3    H269452   2.280   2.588  15.873 -1.6298 -1.5442  2.0643
16013TIP3   OH269453   2.341   4.606   1.372 -0.0064 -0.6161  0.3769
16013TIP3    H169454   2.426   4.637   1.402  0.4133 -1.9331  0.5955
16013TIP3    H269455   2.349   4.607   1.276  0.4425 -1.1911  0.3986
16014TIP3   OH269456   3.116   5.350  16.492 -0.3805 -0.3329 -0.4282
16014TIP3    H169457   3.204   5.319  16.512 -0.6220  0.4713  2.1504
16014TIP3    H269458   3.088   5.396  16.572 -2.6962  0.3986 -1.5983
16015TIP3   OH269459   2.335   3.376   4.546  0.0881  0.3381 -0.5616
16015TIP3    H169460   2.275   3.315   4.505  0.0179  1.0315 -1.4989
16015TIP3    H269461   2.417   3.327   4.553 -0.0640  0.0194 -0.9774
16016TIP3   OH269462   2.686   5.953   2.582 -0.1132  0.0656 -0.1944
16016TIP3    H169463   2.716   5.957   2.491 -0.1206 -0.7139 -0.2274
16016TIP3    H269464   2.714   6.037   2.619  2.0229 -0.5979 -0.2484
16017TIP3   OH269465   1.559   3.297   0.345  0.1699  0.2428  0.0275
16017TIP3    H169466   1.606   3.271   0.424  0.7860 -0.1808 -0.4725
16017TIP3    H269467   1.626   3.332   0.287 -0.2291  0.2646 -0.4264
16018TIP3   OH269468   5.081   4.888   1.451 -0.3099  0.2842  0.4875
16018TIP3    H169469   5.014   4.939   1.497 -0.8578 -0.8520  0.9812
16018TIP3    H269470   5.128   4.952   1.398 -1.5038  1.1725  0.4781
16019TIP3   OH269471   6.362   2.320   4.992 -0.1658  0.0035  0.1828
16019TIP3    H169472   6.380   2.230   5.020  3.6036  0.2434 -1.2504
16019TIP3    H269473   6.377   2.373   5.071 -0.8815 -0.4393  0.6245
16020TIP3   OH269474   3.056   2.062  12.101  0.3775  0.0588 -0.5587
16020TIP3    H169475   2.996   1.989  12.086 -1.2330  1.0846  0.6305
16020TIP3    H269476   3.138   2.036  12.060  0.4795 -3.2941  1.5861
16021TIP3   OH269477   4.462   0.018  13.534  0.4946  0.5843 -0.5438
16021TIP3    H169478   4.480   0.052  13.446 -0.4400 -0.7957 -1.2926
16021TIP3    H269479   4.461  -0.077  13.522  0.2237  0.4009  0.9454
16022TIP3   OH269480   1.681   0.429   5.417 -0.4287  0.1170  0.1933
16022TIP3    H169481   1.734   0.501   5.382  0.2682 -0.8416 -0.7388
16022TIP3    H269482   1.604   0.427   5.360 -0.7447  0.4980  0.5944
16023TIP3   OH269483   0.342   2.236   1.960 -0.8358  0.4681 -0.0056
16023TIP3    H169484   0.322   2.323   1.924  0.4166  0.1678 -1.4550
16023TIP3    H269485   0.422   2.249   2.010 -1.7147  0.5460  1.4020
16024TIP3   OH269486   6.099   6.033  14.233 -0.0481 -0.4890 -0.7403
16024TIP3    H169487   6.109   5.979  14.311 -3.0717 -0.0712 -0.0090
16024TIP3    H269488   6.045   5.980  14.174 -1.9857  1.1788 -0.5183
16025TIP3   OH269489   1.910   3.049  16.011 -0.2024  0.1001 -0.4375
16025TIP3    H169490   1.972   3.103  15.962  0.1013 -0.3735 -0.5820
16025TIP3    H269491   1.897   2.972  15.955  0.7901 -0.8404  0.6013
16026TIP3   OH269492   3.906   0.352   5.583  0.2114  0.3291 -0.1721
16026TIP3    H169493   3.989   0.338   5.538  0.5608  0.0976  0.5396
16026TIP3    H269494   3.873   0.434   5.547  0.5481  0.2101 -0.7563
16027TIP3   OH269495   0.154   6.409   0.144  0.4684  0.3054 -0.2183
16027TIP3    H169496   0.214   6.396   0.217 -0.0724  1.9019  0.5342
16027TIP3    H269497   0.088   6.341   0.153  0.7710  0.0942  0.3848
16028TIP3   OH269498   2.564   4.306   1.451 -0.3501  0.1367  0.5335
16028TIP3    H169499   2.657   4.288   1.435 -0.5608 -0.5672  0.0611
16028TIP3    H269500   2.518   4.238   1.401 -1.0961 -0.0109  1.4067
16029TIP3   OH269501   4.636   5.993  16.351  0.3618  0.4446  0.0114
16029TIP3    H169502   4.720   5.963  16.385 -0.1731 -1.1906 -0.0885
16029TIP3    H269503   4.659   6.043  16.272  1.2110 -0.5563 -0.3897
16030TIP3   OH269504   4.122   5.952  16.988  0.0811 -0.2680  0.3722
16030TIP3    H169505   4.042   5.998  17.013  0.1269  0.0800 -0.0993
16030TIP3    H269506   4.099   5.860  16.988 -0.1446 -0.2114  0.8670
16031TIP3   OH269507   6.658   4.572  14.295 -0.1224  0.0815 -0.0237
16031TIP3    H169508   6.713   4.625  14.237 -2.0183  0.1130 -1.8998
16031TIP3    H269509   6.588   4.632  14.322 -0.6471 -0.6326  0.2206
16032TIP3   OH269510   0.205   3.461  12.913 -0.0525  0.4441  0.0736
16032TIP3    H169511   0.147   3.397  12.952  1.5917  0.3546  2.4455
16032TIP3    H269512   0.263   3.410  12.857 -1.1790  0.3470 -1.0314
16033TIP3   OH269513   5.235   6.591   4.369  0.0428  0.3871  0.2062
16033TIP3    H169514   5.141   6.584   4.352  0.5224 -1.0838 -2.0732
16033TIP3    H269515   5.246   6.549   4.455 -1.1113 -1.5464 -0.5388
16034TIP3   OH269516   5.495   0.859   2.952  0.3518 -0.3830  0.1814
16034TIP3    H169517   5.407   0.896   2.957 -0.3570 -2.3523  3.3348
16034TIP3    H269518   5.509   0.845   2.858 -1.3308  3.0432 -0.6638
16035TIP3   OH269519   5.652   4.644   1.433  0.2580  0.3329  0.4683
16035TIP3    H169520   5.634   4.637   1.526 -0.2537  0.7039  0.3989
16035TIP3    H269521   5.607   4.569   1.394 -0.6157  0.9072  0.3686
16036TIP3   OH269522   3.892   6.256  13.206 -0.3994  0.5146 -0.2102
16036TIP3    H169523   3.945   6.193  13.158 -0.4264  1.3825 -1.3988
16036TIP3    H269524   3.952   6.329  13.223 -0.2515  0.0223  1.5111
16037TIP3   OH269525   0.696   1.680   1.397 -0.1662  0.3868 -0.1244
16037TIP3    H169526   0.753   1.610   1.429 -0.8277 -0.7388 -1.3772
16037TIP3    H269527   0.684   1.737   1.473  1.7732  0.0863  0.4368
16038TIP3   OH269528   2.625   0.071   4.443 -0.1437 -0.1046  0.6790
16038TIP3    H169529   2.536   0.047   4.469 -0.2571  0.2969  0.6700
16038TIP3    H269530   2.667  -0.011   4.418 -1.0917 -0.0503 -1.1162
16039TIP3   OH269531   2.214   3.238   2.878 -0.3423  0.3478 -0.1655
16039TIP3    H169532   2.118   3.247   2.883 -0.2478  0.9483  0.7348
16039TIP3    H269533   2.233   3.164   2.936 -0.0271  1.9532  1.8643
16040TIP3   OH269534   1.501   1.260  15.580 -0.7803 -0.3950 -0.1675
16040TIP3    H169535   1.411   1.293  15.575 -0.5398  0.4327  0.7120
16040TIP3    H269536   1.554   1.331  15.546 -0.3040 -0.0833  1.1907
16041TIP3   OH269537   2.604   2.908   0.261 -0.5115  0.0804 -0.1427
16041TIP3    H169538   2.532   2.870   0.210 -0.0560 -1.3683  0.2927
16041TIP3    H269539   2.574   2.903   0.351  0.4499 -1.2266  0.1124
16042TIP3   OH269540   1.882   0.008   5.773 -0.2798 -0.1225 -0.7785
16042TIP3    H169541   1.885   0.027   5.867  0.7178 -1.6670 -0.4804
16042TIP3    H269542   1.891   0.093   5.731  1.7242  0.3378  0.5125
16043TIP3   OH269543   2.044   2.753  13.972 -0.2661 -0.4938 -0.0915
16043TIP3    H169544   1.966   2.702  13.952 -0.5094  0.4464 -1.6679
16043TIP3    H269545   2.010   2.835  14.007 -0.0156 -0.0252 -0.9186
16044TIP3   OH269546   4.920   0.005  15.019  0.1973 -0.6637 -0.9969
16044TIP3    H169547   4.826   0.023  15.020 -0.1392 -2.2530 -1.6883
16044TIP3    H269548   4.958   0.071  15.077 -1.0979  1.3255 -2.3229
16045TIP3   OH269549   2.595   4.817   4.471 -0.3025  0.0945  0.3016
16045TIP3    H169550   2.689   4.806   4.489 -0.6520 -1.4102  1.2984
16045TIP3    H269551   2.591   4.835   4.377  0.8470 -1.9307 -0.1729
16046TIP3   OH269552   4.836   3.079   4.935  0.1172 -0.1767  0.2421
16046TIP3    H169553   4.854   2.990   4.965  0.2059  0.3201  1.6724
16046TIP3    H269554   4.740   3.086   4.936 -0.0478 -1.1983 -2.6857
16047TIP3   OH269555   3.117   4.640  14.348  0.3377  0.0911 -0.6261
16047TIP3    H169556   3.124   4.707  14.416  0.4467 -1.3650  0.8043
16047TIP3    H269557   3.208   4.614  14.331  0.2739  0.0967 -0.9842
16048TIP3   OH269558   0.054   1.735   1.054  0.4094 -0.5725 -0.6106
16048TIP3    H169559   0.038   1.822   1.017  0.7197 -0.1527  0.2414
16048TIP3    H269560   0.117   1.695   0.993  0.2045 -0.2422 -1.0469
16049TIP3   OH269561   2.970   5.372  14.564 -0.1625  0.4178 -0.5455
16049TIP3    H169562   2.972   5.429  14.640 -0.7191  0.1738 -0.3490
16049TIP3    H269563   3.062   5.361  14.539  0.2027 -1.4347  1.5198
16050TIP3   OH269564   1.927   2.095  12.287 -0.5772  0.1778  0.0154
16050TIP3    H169565   1.911   2.066  12.377 -1.3693  0.8127  0.0876
16050TIP3    H269566   2.014   2.136  12.290 -0.4903 -0.0335  0.4264
16051TIP3   OH269567   5.815   3.393  14.207 -0.0858 -0.0745 -0.3316
16051TIP3    H169568   5.723   3.388  14.233  0.3682 -2.4795  0.9362
16051TIP3    H269569   5.858   3.434  14.282 -0.0740  0.7653 -0.7965
16052TIP3   OH269570   4.548   0.370  12.066 -0.0778 -0.5858 -0.3368
16052TIP3    H169571   4.632   0.324  12.062  0.3661  0.0352  1.4336
16052TIP3    H269572   4.514   0.352  12.154 -1.9830 -1.1275 -1.1537
16053TIP3   OH269573   6.775   0.711  11.906  0.6128 -0.0183  0.1845
16053TIP3    H169574   6.707   0.644  11.895  1.3799 -0.5830 -1.3242
16053TIP3    H269575   6.844   0.668  11.955  1.2078 -0.4407 -0.9881
16054TIP3   OH269576   0.034   4.403   1.749 -0.0515 -0.2905 -0.2883
16054TIP3    H169577   0.121   4.381   1.718  0.0288 -0.1064 -0.1958
16054TIP3    H269578   0.032   4.499   1.747  0.4806 -0.2148  1.7348
16055TIP3   OH269579   5.743   3.270  13.068  0.1122  0.2263 -0.5055
16055TIP3    H169580   5.712   3.325  13.139 -1.9174 -0.4565 -0.8382
16055TIP3    H269581   5.785   3.195  13.113  0.6922  0.8123 -0.0559
16056TIP3   OH269582   4.309   1.795  16.682  0.0697 -0.0442  0.0264
16056TIP3    H169583   4.299   1.720  16.623  1.2467 -2.9554  3.3238
16056TIP3    H269584   4.223   1.805  16.723 -0.0875  0.4203 -0.4146
16057TIP3   OH269585   5.453   2.504   6.131 -0.2915 -0.1173 -0.2836
16057TIP3    H169586   5.516   2.510   6.059  0.1843  0.7392  0.1998
16057TIP3    H269587   5.504   2.479   6.207 -0.3974  1.2574  0.2636
16058TIP3   OH269588   2.212   1.957  15.584 -0.0049  0.0858 -0.3943
16058TIP3    H169589   2.274   1.899  15.539 -1.0680 -0.0946 -1.6414
16058TIP3    H269590   2.268   2.017  15.634  1.1722 -0.2565 -1.2748
16059TIP3   OH269591   6.443   6.564  11.385  0.0809 -0.0873  0.3360
16059TIP3    H169592   6.410   6.568  11.295 -0.1719  0.0797  0.4350
16059TIP3    H269593   6.436   6.653  11.418 -1.2238 -0.4084  1.0065
16060TIP3   OH269594   5.550   5.252   2.355  0.2072 -0.7861 -0.4696
16060TIP3    H169595   5.642   5.251   2.379 -0.1167  0.5537  0.9417
16060TIP3    H269596   5.526   5.345   2.355 -1.0260 -1.0856 -1.2763
16061TIP3   OH269597   5.817   5.373   1.878 -0.1507  0.1402  0.1102
16061TIP3    H169598   5.833   5.306   1.812 -0.5201  0.8255 -0.6883
16061TIP3    H269599   5.903   5.412   1.894 -0.0414 -0.1067  0.1239
16062TIP3   OH269600   5.163   1.485  17.109 -0.0231 -0.1891 -0.3140
16062TIP3    H169601   5.203   1.484  17.022  1.3094 -0.2771  0.2910
16062TIP3    H269602   5.179   1.574  17.142  2.2412 -1.0619  1.0773
16063TIP3   OH269603   3.426   5.906  16.724  0.1709 -0.7180  0.6171
16063TIP3    H169604   3.461   5.977  16.671  0.8703 -0.7471  1.0354
16063TIP3    H269605   3.482   5.831  16.703  0.3401 -0.7746  1.2547
16064TIP3   OH269606   6.481   1.535  13.347 -0.6179  0.1359  0.2874
16064TIP3    H169607   6.398   1.552  13.304  0.5345  0.6403 -1.8197
16064TIP3    H269608   6.477   1.444  13.374 -1.4481 -0.1343 -0.7381
16065TIP3   OH269609   1.450   4.882   3.880 -0.0390 -0.1841  0.4154
16065TIP3    H169610   1.435   4.894   3.786 -0.8907  1.9747  0.8085
16065TIP3    H269611   1.370   4.914   3.922  0.5769 -0.5645  1.9042
16066TIP3   OH269612   2.167   4.087  12.253 -0.0633 -0.2909 -0.2638
16066TIP3    H169613   2.101   4.020  12.269  0.5365 -1.1226 -1.1745
16066TIP3    H269614   2.239   4.065  12.311  0.1579 -0.4578 -0.6042
16067TIP3   OH269615   3.820   4.458   3.503  0.0751 -0.8056  0.1423
16067TIP3    H169616   3.808   4.366   3.479  2.7391 -1.3848  0.8188
16067TIP3    H269617   3.800   4.461   3.596  1.6597 -1.0841  0.5090
16068TIP3   OH269618   5.660   4.847  11.949 -0.0741  0.4631 -0.4158
16068TIP3    H169619   5.607   4.767  11.946 -0.7586  0.8170  1.5416
16068TIP3    H269620   5.611   4.911  11.898 -0.5369  0.2072 -0.2941
16069TIP3   OH269621   2.730   1.669  11.996 -0.0006 -0.6144  0.7708
16069TIP3    H169622   2.690   1.607  11.936  0.6511 -0.6369  0.3523
16069TIP3    H269623   2.765   1.614  12.067 -1.0325 -0.5615  1.3297
16070TIP3   OH269624   0.655   0.185  13.224  0.0640 -0.2485  0.2888
16070TIP3    H169625   0.715   0.132  13.278  1.0764  0.0151 -0.5699
16070TIP3    H269626   0.713   0.234  13.166 -1.0204 -0.4018 -0.9245
16071TIP3   OH269627   4.910   1.381  16.120 -0.4193 -0.3270 -0.0775
16071TIP3    H169628   4.862   1.456  16.153 -1.2001 -1.5174  1.5521
16071TIP3    H269629   4.902   1.315  16.189  2.5552 -0.9669 -0.2918
16072TIP3   OH269630   6.409   6.294   2.362 -0.0243 -0.0117 -0.3702
16072TIP3    H169631   6.462   6.369   2.388 -0.5388  0.7099 -1.3651
16072TIP3    H269632   6.424   6.286   2.267 -0.3942 -0.8253 -0.3606
16073TIP3   OH269633   0.175   1.663   6.580 -0.1212 -0.1553  0.2998
16073TIP3    H169634   0.123   1.636   6.504  0.2268  0.0977 -0.0312
16073TIP3    H269635   0.231   1.734   6.546 -1.6739  1.6209  1.3503
16074TIP3   OH269636   4.770   1.253   3.585  0.3212 -0.0624 -0.8785
16074TIP3    H169637   4.764   1.190   3.656 -1.1878 -0.1064 -1.0265
16074TIP3    H269638   4.855   1.295   3.597  0.7493 -1.1680  0.0150
16075TIP3   OH269639   3.763   2.368   1.601 -0.9387 -0.3319 -0.2220
16075TIP3    H169640   3.791   2.370   1.509  0.7456 -1.3898  0.2450
16075TIP3    H269641   3.844   2.385   1.650 -1.8678  0.4161  1.0642
16076TIP3   OH269642   3.409   3.791   0.224 -0.1812 -0.1501  0.0792
16076TIP3    H169643   3.455   3.873   0.205 -1.8243  0.9392  0.6629
16076TIP3    H269644   3.385   3.756   0.138  0.3853  0.0699 -0.1668
16077TIP3   OH269645   5.514   3.095  12.666  0.4792 -0.2564  0.5492
16077TIP3    H169646   5.536   3.036  12.595 -0.4634  0.1914 -0.1189
16077TIP3    H269647   5.552   3.179  12.640 -0.0632 -0.0364  0.4601
16078TIP3   OH269648   0.920   2.758   4.131  0.2402 -0.2813  0.4663
16078TIP3    H169649   0.874   2.675   4.119 -0.0774 -0.3325  2.0195
16078TIP3    H269650   0.853   2.825   4.122  0.1580 -0.2808  1.0664
16079TIP3   OH269651   1.909   0.116  13.936  0.5562  0.2879 -0.3992
16079TIP3    H169652   1.875   0.060  13.866  3.2632  0.9576 -2.3523
16079TIP3    H269653   1.966   0.058  13.986  0.8071  0.4866 -0.4534
16080TIP3   OH269654   4.548   2.969   0.301  0.2863  0.1427  0.3508
16080TIP3    H169655   4.630   3.007   0.268  0.0940  1.0662  0.9318
16080TIP3    H269656   4.575   2.914   0.375  0.5648 -0.8925 -0.5028
16081TIP3   OH269657   2.191   3.517   6.300  0.1969 -0.2521 -0.0389
16081TIP3    H169658   2.165   3.606   6.323  1.1996  0.2714 -0.8525
16081TIP3    H269659   2.286   3.524   6.284  0.1553 -1.3075 -0.7930
16082TIP3   OH269660   2.150   0.084  16.828  0.0581 -0.3658  0.3919
16082TIP3    H169661   2.068   0.065  16.873 -1.5753  2.2640 -1.3580
16082TIP3    H269662   2.127   0.087  16.735  2.1482  0.3248 -0.1347
16083TIP3   OH269663   4.643   1.799   2.455 -0.3622 -0.8025 -0.3234
16083TIP3    H169664   4.702   1.857   2.502 -0.6224 -0.7440 -0.0721
16083TIP3    H269665   4.622   1.730   2.518 -0.3350 -0.9802 -0.5069
16084TIP3   OH269666   4.808   5.797  12.389 -0.6839 -0.4652  0.5715
16084TIP3    H169667   4.782   5.888  12.374 -0.1987 -0.2143  1.1945
16084TIP3    H269668   4.888   5.804  12.441  0.6557 -1.2237 -1.3403
16085TIP3   OH269669   5.623   5.610   6.102  0.5660 -0.0423  1.1366
16085TIP3    H169670   5.714   5.631   6.080  0.7654 -2.0743 -0.1382
16085TIP3    H269671   5.595   5.682   6.157  1.5672  2.9395 -2.0411
16086TIP3   OH269672   6.556   0.121  15.230  0.1523  0.4222 -0.1257
16086TIP3    H169673   6.544   0.039  15.182  1.2595 -0.0050  0.3038
16086TIP3    H269674   6.519   0.188  15.173 -1.7316 -0.4994 -0.0049
16087TIP3   OH269675   3.071   3.942  13.559 -0.3021  0.1737  0.2355
16087TIP3    H169676   3.156   3.975  13.589  0.5004 -0.2182 -1.5234
16087TIP3    H269677   3.033   4.015  13.509  0.1214 -0.4802 -1.0709
16088TIP3   OH269678   1.956   1.963  14.862 -0.1279 -0.3066  0.0895
16088TIP3    H169679   1.990   1.948  14.774  0.1087 -0.3727  0.1918
16088TIP3    H269680   1.869   1.923  14.861 -0.6709  0.8513 -0.5201
16089TIP3   OH269681   4.621   6.539   4.872  0.0793  0.6066  0.1633
16089TIP3    H169682   4.653   6.455   4.840 -1.1290  0.5122 -0.7982
16089TIP3    H269683   4.671   6.604   4.822  0.9400  0.4787  0.8368
16090TIP3   OH269684   1.747   6.142  11.384 -0.3434  0.1780  0.2088
16090TIP3    H169685   1.819   6.103  11.335 -0.1782 -1.7614  1.9133
16090TIP3    H269686   1.671   6.132  11.327  0.2961  0.0945 -0.6366
16091TIP3   OH269687   3.380   6.642   6.283  0.3697  0.5799 -0.4537
16091TIP3    H169688   3.474   6.629   6.291  0.5750  2.4619  0.4739
16091TIP3    H269689   3.352   6.672   6.369 -1.0588  0.1386 -0.7503
16092TIP3   OH269690   0.210   3.778   2.862  0.0479  0.1188 -0.7632
16092TIP3    H169691   0.222   3.819   2.776  0.5547  1.8052  0.1086
16092TIP3    H269692   0.273   3.822   2.919 -1.7860  0.4908  0.9922
16093TIP3   OH269693   5.935   1.088  17.054  0.1837 -0.1951  0.0301
16093TIP3    H169694   5.932   1.162  17.115 -1.3037 -0.5964  0.4397
16093TIP3    H269695   5.903   1.124  16.971  0.0584 -0.2324  0.0646
16094TIP3   OH269696   4.952   1.269   3.005  0.2354  0.0049 -0.5528
16094TIP3    H169697   4.975   1.179   2.982  0.0104 -0.2239  0.1184
16094TIP3    H269698   5.028   1.303   3.052 -0.7055 -0.7068  1.5417
16095TIP3   OH269699   1.772   2.933   6.278 -0.0183  0.2773 -0.3795
16095TIP3    H169700   1.864   2.920   6.254  0.7274  0.2221  2.3942
16095TIP3    H269701   1.727   2.855   6.245  1.0265 -0.0124 -1.1461
16096TIP3   OH269702   0.403   3.112  14.459  0.6134  0.3514 -0.2782
16096TIP3    H169703   0.312   3.098  14.485  0.4265 -0.4720 -1.3711
16096TIP3    H269704   0.448   3.031  14.484  1.0312  0.7184  0.1735
16097TIP3   OH269705   2.381   0.414  16.088  0.0949  0.7135  0.4219
16097TIP3    H169706   2.290   0.392  16.065  0.8489 -0.6394 -1.3679
16097TIP3    H269707   2.403   0.488  16.031  0.5976  0.0762 -0.2145
16098TIP3   OH269708   0.542   5.383   1.532  0.6177  0.0180 -0.2898
16098TIP3    H169709   0.592   5.464   1.520  0.6831 -0.3352 -2.4962
16098TIP3    H269710   0.483   5.379   1.457  0.5003 -1.8933 -0.1177
16099TIP3   OH269711   0.732   0.814  14.026  0.5401  0.1879 -0.6365
16099TIP3    H169712   0.752   0.898  14.066  1.2358 -1.6620  3.1114
16099TIP3    H269713   0.818   0.777  14.003  0.4217 -0.6065  0.1636
16100TIP3   OH269714   3.153   2.134  11.621 -0.8071  0.5195  0.3291
16100TIP3    H169715   3.079   2.075  11.632  0.3943 -0.8097  1.4262
16100TIP3    H269716   3.124   2.198  11.555 -2.9051  0.0172  0.7538
16101TIP3   OH269717   6.678   5.965  13.958  0.3860  0.2096  0.2341
16101TIP3    H169718   6.705   5.908  14.029  0.7368 -1.2697 -1.0572
16101TIP3    H269719   6.585   5.984  13.976  0.5148 -0.0094  1.1515
16102TIP3   OH269720   2.357   2.881  12.987 -0.6375  0.4714 -0.0183
16102TIP3    H169721   2.310   2.894  13.069 -1.2802  1.5267 -0.5482
16102TIP3    H269722   2.443   2.921  13.002  0.0334 -1.2332  0.8580
16103TIP3   OH269723   4.594   4.744  13.244 -0.3948 -0.4520 -0.5619
16103TIP3    H169724   4.615   4.835  13.223 -0.1368 -0.5446 -0.6996
16103TIP3    H269725   4.636   4.727  13.328 -0.2616 -0.5112 -0.6401
16104TIP3   OH269726   5.996   0.035   1.898  0.7069  0.1957  0.4883
16104TIP3    H169727   5.951   0.037   1.814  0.9930  0.8874  0.3485
16104TIP3    H269728   6.088   0.048   1.876  0.7129  1.0101  0.9475
16105TIP3   OH269729   5.371   3.181   3.601  0.1039  0.0440 -0.9115
16105TIP3    H169730   5.323   3.099   3.614 -1.7066  0.9333 -1.8171
16105TIP3    H269731   5.409   3.200   3.687 -2.1604 -0.0986  0.1719
16106TIP3   OH269732   4.472   1.430  10.576 -0.1484 -0.2102 -0.0000
16106TIP3    H169733   4.522   1.357  10.539  0.5134  0.1972  0.1024
16106TIP3    H269734   4.431   1.472  10.500 -0.3124 -0.5244 -0.0857
16107TIP3   OH269735   5.687   5.231   4.515  0.1375 -0.0144 -0.0771
16107TIP3    H169736   5.688   5.293   4.588  0.2021  0.3649 -0.4034
16107TIP3    H269737   5.618   5.168   4.538 -1.6042  1.5548 -0.9133
16108TIP3   OH269738   0.273   4.845   4.350  0.1203 -0.9973 -0.4814
16108TIP3    H169739   0.301   4.757   4.322 -1.3647 -1.5218 -0.3553
16108TIP3    H269740   0.207   4.871   4.286  0.3523 -0.0755 -0.3544
16109TIP3   OH269741   5.580   6.219   1.804  0.1839 -0.7503  0.0298
16109TIP3    H169742   5.622   6.137   1.780  0.5453 -0.0232 -1.9824
16109TIP3    H269743   5.653   6.277   1.827  0.1329 -0.2743 -0.9543
16110TIP3   OH269744   4.501   2.105   2.669 -0.0404  0.1927 -0.0335
16110TIP3    H169745   4.551   2.046   2.727  1.6684  1.5325 -0.0840
16110TIP3    H269746   4.410   2.087   2.689  0.5058  0.1204  2.6034
16111TIP3   OH269747   2.457   3.324   2.759 -0.5799 -0.5403 -0.0442
16111TIP3    H169748   2.371   3.292   2.786 -1.3298  0.5604 -1.0538
16111TIP3    H269749   2.501   3.349   2.840 -0.0903 -3.7572  0.7439
16112TIP3   OH269750   5.428   1.250  13.330 -0.1930  0.5089  0.4542
16112TIP3    H169751   5.333   1.260  13.341 -0.1983  0.0614  0.7999
16112TIP3    H269752   5.463   1.338  13.346 -0.4451  0.4373  1.4664
16113TIP3   OH269753   3.436   6.244   3.133 -0.4824  0.5805  1.1358
16113TIP3    H169754   3.458   6.277   3.220 -1.3292  3.0541  0.4329
16113TIP3    H269755   3.393   6.317   3.089 -0.4971 -0.7880 -1.2142
16114TIP3   OH269756   2.354   0.372  11.215  0.4208  0.1858  0.4347
16114TIP3    H169757   2.448   0.387  11.222  0.1339  2.1125  0.4042
16114TIP3    H269758   2.346   0.285  11.176  2.1914  0.6290 -0.9784
16115TIP3   OH269759   0.544   3.862  17.212  0.2287  0.3270  0.2795
16115TIP3    H169760   0.558   3.890  17.122  1.6796  2.9730  1.2623
16115TIP3    H269761   0.459   3.898  17.236  0.1408  0.1851  0.1825
16116TIP3   OH269762   4.952   6.164  17.051  0.1491  0.2649 -0.0422
16116TIP3    H169763   5.035   6.121  17.072  1.9097  2.5578 -1.9965
16116TIP3    H269764   4.906   6.171  17.135  2.1547 -0.6037  1.1597
16117TIP3   OH269765   4.222   6.488  10.518 -0.2971  0.0986 -0.7327
16117TIP3    H169766   4.201   6.418  10.455 -0.9464 -0.5925  0.2380
16117TIP3    H269767   4.306   6.461  10.555  0.2737  0.7021 -1.5617
16118TIP3   OH269768   4.686   1.072  15.189 -0.2847 -0.4893 -0.4103
16118TIP3    H169769   4.612   1.089  15.130 -0.2293  1.8800  0.1671
16118TIP3    H269770   4.762   1.108  15.144  0.0239 -0.1352  0.3901
16119TIP3   OH269771   3.561   2.094  10.614  0.3443 -0.5265 -0.1085
16119TIP3    H169772   3.609   2.045  10.681  0.8318  0.8010  0.5358
16119TIP3    H269773   3.564   2.038  10.536  2.4552 -0.7405  0.0795
16120TIP3   OH269774   4.251   4.166  14.140  0.1285 -0.3868 -0.8295
16120TIP3    H169775   4.233   4.095  14.202  1.6976  0.2589  0.4098
16120TIP3    H269776   4.167   4.211  14.131  0.1553  0.2908  1.8724
16121TIP3   OH269777   0.429   0.396  16.553 -0.1708  0.3279 -0.2359
16121TIP3    H169778   0.396   0.349  16.476 -0.1992 -1.3757  0.7750
16121TIP3    H269779   0.521   0.369  16.559 -0.7101 -1.2009  1.5045
16122TIP3   OH269780   5.806   0.666  13.227 -0.7923  0.3297  0.2091
16122TIP3    H169781   5.829   0.751  13.190 -2.9488  1.2365  0.8846
16122TIP3    H269782   5.845   0.667  13.315  1.5536 -0.5217 -0.7952
16123TIP3   OH269783   2.009   1.720   2.323  0.1677 -0.0572  0.3067
16123TIP3    H169784   2.063   1.673   2.260 -2.0330 -0.0735 -1.6521
16123TIP3    H269785   2.045   1.809   2.322  0.9902 -0.3805  0.0177
16124TIP3   OH269786   4.091   6.266   2.080 -0.4363 -0.8002 -0.3331
16124TIP3    H169787   4.072   6.315   2.160  1.5461 -0.4582 -0.0403
16124TIP3    H269788   4.155   6.201   2.107 -0.2987 -1.1656 -1.5049
16125TIP3   OH269789   2.881   6.598  16.936  0.0253  0.3416 -0.4622
16125TIP3    H169790   2.813   6.615  16.871  0.6966  0.1433 -1.2235
16125TIP3    H269791   2.947   6.546  16.890  1.8743  2.5948 -0.4581
16126TIP3   OH269792   1.784   5.446  11.656 -0.0662  0.2794  0.1567
16126TIP3    H169793   1.838   5.462  11.579 -0.0805 -1.9690 -0.3649
16126TIP3    H269794   1.697   5.426  11.621 -0.7468  1.8123  0.9008
16127TIP3   OH269795   6.318   1.270  11.086  0.3783  0.1864  0.5101
16127TIP3    H169796   6.387   1.212  11.052  0.4699 -0.6719  2.1381
16127TIP3    H269797   6.325   1.349  11.031  0.6494 -1.0823 -1.3251
16128TIP3   OH269798   0.848   4.616   5.214 -0.1471  0.4655 -1.0952
16128TIP3    H169799   0.783   4.558   5.174 -0.5231  0.6069 -0.6963
16128TIP3    H269800   0.818   4.627   5.304  0.3549  0.6475 -0.9490
16129TIP3   OH269801   2.078   4.785  12.982 -0.1584  0.0623 -0.0564
16129TIP3    H169802   2.119   4.865  13.015 -1.7578  0.9314 -0.1061
16129TIP3    H269803   2.074   4.798  12.887 -1.9102  0.6866  0.0755
16130TIP3   OH269804   1.757   6.571  15.428 -0.0908  0.0413 -0.5802
16130TIP3    H169805   1.770   6.490  15.378 -1.2964 -0.3390 -0.2896
16130TIP3    H269806   1.669   6.600  15.405 -1.1658 -0.7944  2.1876
16131TIP3   OH269807   3.668   5.615   0.122 -0.4111  0.2591  0.5752
16131TIP3    H169808   3.588   5.597   0.073 -0.4455 -1.4673  1.2356
16131TIP3    H269809   3.678   5.710   0.118 -1.3284  0.2996 -1.3300
16132TIP3   OH269810   2.422   2.824   2.458  0.1066  0.0767 -0.3791
16132TIP3    H169811   2.350   2.771   2.493  1.3197 -1.0731  0.3904
16132TIP3    H269812   2.410   2.819   2.363 -0.0341 -1.2576 -0.3082
16133TIP3   OH269813   0.061   6.158  15.102 -0.1261  0.2427  0.3999
16133TIP3    H169814   0.068   6.130  15.011 -1.6496 -0.3338  0.4382
16133TIP3    H269815   0.001   6.095  15.142 -2.4093  2.6573  0.8980
16134TIP3   OH269816   0.265   4.417  15.369  1.0987  0.3003  0.2921
16134TIP3    H169817   0.243   4.376  15.285 -0.2715  1.2619  0.1681
16134TIP3    H269818   0.338   4.474  15.348  0.9320  0.3421 -0.1953
16135TIP3   OH269819   5.156   4.854  13.087 -0.9080 -0.1648 -0.1882
16135TIP3    H169820   5.164   4.888  12.998  1.6862 -0.0190  0.0756
16135TIP3    H269821   5.226   4.789  13.094  1.0691  2.2006  2.8098
16136TIP3   OH269822   5.625   2.048  14.065  0.2115  0.1272 -0.6639
16136TIP3    H169823   5.558   2.068  14.130  0.8450  0.8697 -0.2250
16136TIP3    H269824   5.595   1.968  14.023 -0.5215 -0.0119  0.1139
16137TIP3   OH269825   2.933   4.693  13.767  0.1126 -0.0507  0.4913
16137TIP3    H169826   2.989   4.718  13.693  1.4793  0.3607  1.6381
16137TIP3    H269827   2.968   4.610  13.797  0.5315  0.5228  1.6225
16138TIP3   OH269828   1.652   4.378  15.378  0.2614  0.7522 -0.1836
16138TIP3    H169829   1.743   4.347  15.373  0.0021  0.0800 -0.8693
16138TIP3    H269830   1.604   4.304  15.417 -0.0587  0.9639 -0.1764
16139TIP3   OH269831   0.767   5.805  16.044  0.3592  0.1954  0.0978
16139TIP3    H169832   0.693   5.784  15.987  1.0921  2.8034 -1.8736
16139TIP3    H269833   0.793   5.721  16.081 -2.6359 -0.9824 -0.3380
16140TIP3   OH269834   2.221   0.700  11.515 -0.4977 -0.1828  0.5678
16140TIP3    H169835   2.155   0.723  11.449 -0.8810 -1.4407  0.4990
16140TIP3    H269836   2.172   0.696  11.597 -0.5180 -1.1527  0.5106
16141TIP3   OH269837   1.101   0.359   4.256 -0.2620  0.1204  0.4602
16141TIP3    H169838   1.191   0.333   4.278 -0.6757 -1.6483  0.1058
16141TIP3    H269839   1.059   0.374   4.340  0.8407  2.6627  0.5941
16142TIP3   OH269840   4.657   2.485   2.315  0.4403 -0.0163 -0.0509
16142TIP3    H169841   4.721   2.488   2.386  0.1427 -3.0619  0.3826
16142TIP3    H269842   4.573   2.476   2.359 -0.2291  2.5632 -0.6799
16143TIP3   OH269843   2.957   5.242   1.066 -0.3861  0.1492 -0.1049
16143TIP3    H169844   3.016   5.180   1.024  1.3136  1.3238  0.5040
16143TIP3    H269845   3.014   5.313   1.096 -2.2636  1.9543 -0.6972
16144TIP3   OH269846   1.811   3.450   0.730  0.5757  0.1936  0.2940
16144TIP3    H169847   1.717   3.455   0.748  0.3629  1.8414 -1.1412
16144TIP3    H269848   1.843   3.540   0.743  1.7904 -0.1748 -0.0756
16145TIP3   OH269849   6.711   6.782   1.881 -0.3041 -0.4212 -0.4110
16145TIP3    H169850   6.758   6.776   1.964 -3.5231  0.1456  1.5311
16145TIP3    H269851   6.711   6.692   1.848 -0.4366 -0.9681  1.0284
16146TIP3   OH269852   3.436   4.073  16.918 -0.0483 -0.0199 -0.2594
16146TIP3    H169853   3.397   4.160  16.922  1.1334  0.4485  2.5314
16146TIP3    H269854   3.362   4.013  16.907 -0.9921  1.2271 -0.7722
16147TIP3   OH269855   6.018   6.228  16.885 -0.3530 -0.2633 -0.5985
16147TIP3    H169856   6.086   6.167  16.911  1.5985  1.7123 -0.9440
16147TIP3    H269857   5.938   6.175  16.882  1.1283 -2.5888 -0.0935
16148TIP3   OH269858   0.548   2.067   2.769 -0.1435 -0.0443  0.7088
16148TIP3    H169859   0.591   1.989   2.735  0.0734  0.0390  0.7915
16148TIP3    H269860   0.455   2.052   2.754 -0.1866 -0.7653  1.6707
16149TIP3   OH269861   0.240   2.579  16.442  0.2451 -0.0636 -0.3888
16149TIP3    H169862   0.274   2.512  16.383  0.1777  1.7876 -2.5924
16149TIP3    H269863   0.165   2.538  16.485  1.6811 -2.2028  0.1569
16150TIP3   OH269864   6.213   0.375   1.455  0.5272 -0.3010 -0.4323
16150TIP3    H169865   6.176   0.440   1.515  0.9385 -0.4282 -0.0292
16150TIP3    H269866   6.308   0.389   1.462  0.5816 -0.4325 -0.9270
16151TIP3   OH269867   3.278   5.081   5.244 -0.2292 -0.2315  0.1091
16151TIP3    H169868   3.214   5.139   5.284 -1.0298 -0.3337 -1.0112
16151TIP3    H269869   3.271   5.098   5.150  0.7172 -0.9240 -0.0964
16152TIP3   OH269870   6.388   1.641   3.654 -0.0355 -0.4439  0.2663
16152TIP3    H169871   6.386   1.571   3.589  0.4323  1.8054 -2.2311
16152TIP3    H269872   6.390   1.722   3.603  2.5417  1.3537  3.0469
16153TIP3   OH269873   6.650   6.253  16.888  0.1912 -0.7272 -0.1753
16153TIP3    H169874   6.690   6.275  16.972  0.5824 -1.4152 -0.1810
16153TIP3    H269875   6.556   6.266  16.902  0.3780  0.4857 -0.0406
16154TIP3   OH269876   0.366   3.690   1.751 -0.2216 -0.3777  0.5961
16154TIP3    H169877   0.319   3.645   1.681  0.5323 -0.4827  0.1437
16154TIP3    H269878   0.299   3.714   1.815 -1.0991  0.7378 -0.7072
16155TIP3   OH269879   0.178   6.593  16.472 -0.4337  0.0715  0.7129
16155TIP3    H169880   0.145   6.509  16.502  0.0573  0.0356  1.1490
16155TIP3    H269881   0.273   6.582  16.466 -0.4832  0.2057 -0.4418
16156TIP3   OH269882   1.678   2.526  13.384  0.1396 -0.3544  0.2340
16156TIP3    H169883   1.606   2.537  13.321  1.3589  0.1800 -1.0831
16156TIP3    H269884   1.665   2.598  13.446 -0.2907 -0.0764 -0.1678
16157TIP3   OH269885   1.967   5.495   3.712 -0.1374 -0.1760  0.4692
16157TIP3    H169886   2.053   5.505   3.753  0.7030  1.6705 -1.5897
16157TIP3    H269887   1.925   5.424   3.760  1.3216  0.9591  3.5147
16158TIP3   OH269888   0.721   1.934   0.086 -0.3904  0.2966  0.3714
16158TIP3    H169889   0.781   1.990   0.037 -1.2126  0.9703  0.1188
16158TIP3    H269890   0.772   1.904   0.162  0.4183  0.4388 -0.1168
16159TIP3   OH269891   3.742   0.633  16.733 -0.6088  0.1236  0.0325
16159TIP3    H169892   3.762   0.664  16.645 -2.0811 -1.3712 -0.8502
16159TIP3    H269893   3.816   0.577  16.755 -0.5401  0.0004 -0.5003
16160TIP3   OH269894   4.708   5.746   2.140 -0.0510  0.2328 -0.3676
16160TIP3    H169895   4.730   5.839   2.133  1.5793 -0.1436 -0.5454
16160TIP3    H269896   4.752   5.717   2.220  0.6163 -0.6956 -1.0624
16161TIP3   OH269897   4.343   6.650   4.902 -0.3815  0.1286 -0.1281
16161TIP3    H169898   4.422   6.601   4.879 -0.9856 -0.9767  0.1228
16161TIP3    H269899   4.294   6.656   4.820 -0.5011 -0.0654 -0.0731
16162TIP3   OH269900   5.307   3.226   1.191  0.2572  0.8477 -0.4075
16162TIP3    H169901   5.334   3.266   1.274 -3.2884  5.0080 -1.0895
16162TIP3    H269902   5.342   3.284   1.124  0.4806 -0.7791 -1.7298
16163TIP3   OH269903   3.079   5.158  13.119 -0.1903  0.0334  0.4677
16163TIP3    H169904   3.172   5.136  13.123  0.0398  0.9504  0.3437
16163TIP3    H269905   3.072   5.241  13.167 -1.1989 -0.8337  1.8304
16164TIP3   OH269906   5.886   6.026  12.710 -0.1611  0.2091 -0.5371
16164TIP3    H169907   5.919   6.112  12.683 -0.2785  0.4429  0.0457
16164TIP3    H269908   5.944   5.964  12.668  2.1863  0.6504  1.9271
16165TIP3   OH269909   2.792   2.132   5.804  0.7791 -0.6973  0.3776
16165TIP3    H169910   2.858   2.193   5.836 -0.7170  0.3029  1.6347
16165TIP3    H269911   2.715   2.186   5.786  0.2612 -1.8478 -1.0063
16166TIP3   OH269912   2.753   3.594  16.653 -0.4691 -0.0097  0.4001
16166TIP3    H169913   2.667   3.628  16.679 -0.3787 -0.7474  1.7022
16166TIP3    H269914   2.753   3.503  16.684 -0.2430 -0.8638 -1.9804
16167TIP3   OH269915   1.970   4.415   3.780  0.1997  0.1979 -0.2776
16167TIP3    H169916   1.897   4.353   3.784 -0.2828  0.6322 -2.0887
16167TIP3    H269917   2.037   4.370   3.728  0.8138  0.2435  0.4584
16168TIP3   OH269918   3.655   5.362   4.448  0.5003 -0.2991  0.6849
16168TIP3    H169919   3.574   5.314   4.432 -1.0130  2.0064  1.3363
16168TIP3    H269920   3.724   5.301   4.420 -1.5444 -0.8782 -3.5301
16169TIP3   OH269921   0.025   4.925  12.988  0.1571  0.3794 -0.0690
16169TIP3    H169922  -0.008   4.836  12.992  1.5002 -0.2997 -2.7168
16169TIP3    H269923  -0.039   4.973  12.934  0.6032  0.4195 -0.5759
16170TIP3   OH269924   2.676   3.293   5.144  0.2472 -0.1461 -0.6970
16170TIP3    H169925   2.608   3.232   5.115 -0.6559  0.7151 -0.4201
16170TIP3    H269926   2.702   3.340   5.065  0.0316  0.0125 -0.6716
16171TIP3   OH269927   5.751   3.673   0.678 -0.7033  0.0791 -0.5740
16171TIP3    H169928   5.697   3.752   0.674 -1.7279 -0.5395  0.6484
16171TIP3    H269929   5.833   3.701   0.718 -0.4754  0.8310 -1.5512
16172TIP3   OH269930   0.383   5.812   4.129  0.9463 -0.2695  0.0695
16172TIP3    H169931   0.448   5.753   4.091 -0.6967 -1.3308 -1.1712
16172TIP3    H269932   0.371   5.780   4.218  0.3000 -1.6328 -0.4949
16173TIP3   OH269933   2.131   2.061   2.926 -0.1465  0.3444 -0.3491
16173TIP3    H169934   2.058   2.123   2.936 -1.6821 -1.7510  1.9523
16173TIP3    H269935   2.144   2.025   3.013  1.9860 -1.1833 -1.2725
16174TIP3   OH269936   4.529   3.161  12.158  0.4476  0.0284 -0.4010
16174TIP3    H169937   4.623   3.169  12.139  0.1897  0.8917 -1.3632
16174TIP3    H269938   4.487   3.218  12.093 -0.8874 -1.9225 -1.2769
16175TIP3   OH269939   1.863   6.155  14.901 -0.2152 -0.1255  0.1977
16175TIP3    H169940   1.901   6.129  14.818 -2.2928  1.2429 -1.2490
16175TIP3    H269941   1.793   6.091  14.917 -0.5518  0.2691  0.3168
16176TIP3   OH269942   5.862   0.011   4.980 -0.0109 -0.4457  0.0337
16176TIP3    H169943   5.827  -0.035   5.057  0.1243  0.7772  0.8451
16176TIP3    H269944   5.949  -0.027   4.967 -0.0103 -0.6221  0.5246
16177TIP3   OH269945   1.858   0.025   2.914  0.0698 -0.1430  0.1873
16177TIP3    H169946   1.853  -0.057   2.864 -1.4893  0.6809 -1.0577
16177TIP3    H269947   1.779   0.024   2.968 -0.7917  1.2524 -1.0035
16178TIP3   OH269948   1.128   3.330   5.754 -0.0099 -0.2429  0.6682
16178TIP3    H169949   1.161   3.250   5.714  0.3103 -0.1325  0.7137
16178TIP3    H269950   1.204   3.388   5.759 -0.8180  1.1898 -2.1539
16179TIP3   OH269951   1.265   2.333   2.804 -0.4837 -0.3022  0.6836
16179TIP3    H169952   1.273   2.294   2.891  0.9421 -1.4612  0.0480
16179TIP3    H269953   1.351   2.370   2.786 -0.9937  0.6097  0.0697
16180TIP3   OH269954   6.041   3.959   5.238 -0.1850 -0.5935 -0.2651
16180TIP3    H169955   5.985   3.914   5.302  1.8139 -2.4127  0.2723
16180TIP3    H269956   6.000   3.943   5.154 -1.8230  0.2322  0.3487
16181TIP3   OH269957   2.798   2.864   3.377 -0.1406 -0.2819  0.0674
16181TIP3    H169958   2.784   2.792   3.438 -0.7457  1.7420  2.4043
16181TIP3    H269959   2.837   2.934   3.430 -1.3136  1.7784 -1.6674
16182TIP3   OH269960   6.713   6.539  10.480  0.1291 -0.2834 -0.1947
16182TIP3    H169961   6.732   6.624  10.440 -0.5935 -1.0206 -2.1881
16182TIP3    H269962   6.628   6.550  10.522  0.2744  0.1300 -0.0134
16183TIP3   OH269963   4.344   4.653   1.660 -0.4613  0.0829 -0.5517
16183TIP3    H169964   4.346   4.560   1.683  5.0996  0.0987 -0.3135
16183TIP3    H269965   4.397   4.659   1.581 -0.5664  3.1203 -0.4412
16184TIP3   OH269966   4.594   2.703   5.900 -0.4266 -0.1431  0.6141
16184TIP3    H169967   4.651   2.715   5.975 -1.3047 -3.2327  1.8482
16184TIP3    H269968   4.511   2.672   5.937 -1.1725 -0.8269 -1.5455
16185TIP3   OH269969   2.646   1.311   6.509  0.3086 -0.7929  0.1468
16185TIP3    H169970   2.738   1.295   6.488  0.8346 -0.6655  2.2430
16185TIP3    H269971   2.633   1.405   6.493  0.8233 -0.6059  0.8004
16186TIP3   OH269972   1.780   4.692   6.472  0.4106 -0.5656 -0.4727
16186TIP3    H169973   1.725   4.673   6.396  2.2334  0.9120 -2.2220
16186TIP3    H269974   1.821   4.776   6.452  0.8303 -0.0818  2.2267
16187TIP3   OH269975   5.355   0.493   0.106  0.2969 -0.0290 -0.2765
16187TIP3    H169976   5.447   0.470   0.093  0.7957  1.8358 -0.2315
16187TIP3    H269977   5.336   0.555   0.036 -1.1238 -0.9147 -0.6811
16188TIP3   OH269978   6.751   5.708  15.086  0.4684 -0.1024 -0.3707
16188TIP3    H169979   6.736   5.678  14.996  1.1549 -2.6077  0.3279
16188TIP3    H269980   6.842   5.738  15.086  0.4580 -0.0699 -0.5205
16189TIP3   OH269981   6.376   4.030  12.492 -0.0858  0.1797 -0.4244
16189TIP3    H169982   6.327   3.990  12.563  0.2676  0.4174 -0.0432
16189TIP3    H269983   6.462   3.987  12.495  0.2484  0.8572 -0.1001
16190TIP3   OH269984   2.835   5.654   5.197  0.4988 -0.1834  0.8302
16190TIP3    H169985   2.928   5.654   5.221  0.8587  1.0503 -0.5428
16190TIP3    H269986   2.832   5.697   5.112 -1.4192  0.3991  1.1773
16191TIP3   OH269987   5.093   0.661  16.504 -0.3649  0.6273 -0.7529
16191TIP3    H169988   4.998   0.672  16.502 -0.6712 -1.6413 -0.0008
16191TIP3    H269989   5.108   0.576  16.463  1.1640  0.0044  1.0422
16192TIP3   OH269990   5.083   2.612  16.927 -0.2550 -0.4267 -0.3881
16192TIP3    H169991   5.160   2.613  16.983 -0.2681  0.8791 -0.3746
16192TIP3    H269992   5.113   2.574  16.844  0.5431  0.5898 -0.5731
16193TIP3   OH269993   4.103   5.095  14.968 -0.0145 -0.1959  0.2329
16193TIP3    H169994   4.049   5.074  15.044 -0.2074  0.4888  0.2923
16193TIP3    H269995   4.174   5.149  15.003  0.1753 -0.2998  0.0102
16194TIP3   OH269996   1.945   0.974   6.171 -0.1535 -0.2588  0.5553
16194TIP3    H169997   1.908   0.968   6.259 -3.1250 -2.0531 -0.7281
16194TIP3    H269998   1.974   1.065   6.162 -2.8909  0.8166  2.2027
16195TIP3   OH269999   6.549   0.564  12.685 -0.3936 -0.1068 -0.1119
16195TIP3    H170000   6.518   0.480  12.649 -0.3204  0.4891 -1.5932
16195TIP3    H270001   6.500   0.630  12.636  0.6824  0.7629 -0.0155
16196TIP3   OH270002   1.821   6.514  16.899  0.3882 -0.2698 -0.0831
16196TIP3    H170003   1.873   6.588  16.869 -0.1175 -0.4569 -1.4473
16196TIP3    H270004   1.834   6.446  16.833 -0.6786 -0.7198  0.1484
16197TIP3   OH270005   3.579   1.190   4.255 -0.5802 -0.3959 -0.8132
16197TIP3    H170006   3.639   1.248   4.302 -0.9518 -0.2546 -0.5139
16197TIP3    H270007   3.609   1.102   4.277 -1.5492 -0.3568  0.7393
16198TIP3   OH270008   3.095   0.228  12.582  0.0145  0.2390 -0.4206
16198TIP3    H170009   3.100   0.136  12.558 -1.1753  0.0218  0.1604
16198TIP3    H270010   3.018   0.235  12.638  2.4972  0.7769  3.1055
16199TIP3   OH270011   1.193   4.366  11.249 -0.3222 -0.3213 -0.0388
16199TIP3    H170012   1.278   4.355  11.290 -0.8692  0.7323  1.4488
16199TIP3    H270013   1.138   4.299  11.289 -0.2397 -0.8827 -0.8609
16200TIP3   OH270014   0.826   0.984   4.182 -0.2510 -0.0160  0.4493
16200TIP3    H170015   0.839   0.891   4.200  0.5359  0.6638  3.7908
16200TIP3    H270016   0.741   0.988   4.137 -0.1237 -2.3712 -0.0531
16201TIP3   OH270017   6.399   5.767   3.131 -0.4005  0.2356 -0.5191
16201TIP3    H170018   6.327   5.734   3.183  1.5196 -0.4114  1.8192
16201TIP3    H270019   6.390   5.723   3.046 -0.0180 -3.5521  1.2962
16202TIP3   OH270020   6.473   5.743  14.881 -0.3956  0.0215 -0.5824
16202TIP3    H170021   6.551   5.688  14.873 -0.4233 -0.1330  0.1533
16202TIP3    H270022   6.501   5.817  14.935 -1.0492 -0.6287  0.6897
16203TIP3   OH270023   3.324   3.093   3.548 -0.8467  0.0265 -0.0484
16203TIP3    H170024   3.410   3.051   3.541 -0.8536  0.2907 -2.2527
16203TIP3    H270025   3.288   3.062   3.631 -0.2994 -3.2623 -0.9749
16204TIP3   OH270026   1.136   2.538   4.230  0.0485 -0.3540 -1.2076
16204TIP3    H170027   1.201   2.556   4.162  1.0464  0.2901 -0.1010
16204TIP3    H270028   1.054   2.575   4.195  1.2099  2.9040 -0.7191
16205TIP3   OH270029   0.641   1.391  10.834  0.4075  0.6374  0.0144
16205TIP3    H170030   0.668   1.447  10.907  0.4416 -0.3057  0.7318
16205TIP3    H270031   0.723   1.364  10.793  0.5379 -1.3549  1.5376
16206TIP3   OH270032   4.544   2.099  13.861  0.1257  0.0643 -0.4599
16206TIP3    H170033   4.450   2.090  13.845  0.0881 -0.8015  0.2077
16206TIP3    H270034   4.584   2.025  13.816  0.3068 -0.6099  0.7716
16207TIP3   OH270035   1.704   3.539  15.074 -0.3684 -0.1124 -0.5790
16207TIP3    H170036   1.762   3.466  15.053  1.1166  0.6493  0.8181
16207TIP3    H270037   1.637   3.501  15.131  0.9984 -0.2020  1.0153
16208TIP3   OH270038   4.285   2.128   3.033 -0.2568  0.4283 -0.2706
16208TIP3    H170039   4.211   2.128   3.095 -0.5700  1.9887 -0.5972
16208TIP3    H270040   4.298   2.036   3.011 -1.2502  0.0041  0.8124
16209TIP3   OH270041   5.018   3.210  14.996 -0.4063  0.5116 -0.7491
16209TIP3    H170042   4.923   3.209  14.988 -0.4434 -0.8696 -0.2466
16209TIP3    H270043   5.037   3.144  15.062  0.8672  1.2059 -0.4075
16210TIP3   OH270044   0.965   4.203   4.452 -0.3699 -0.6945 -0.3804
16210TIP3    H170045   1.011   4.221   4.534 -0.7984 -1.9117  0.1404
16210TIP3    H270046   0.887   4.154   4.479 -0.1617 -1.7069 -1.5854
16211TIP3   OH270047   6.150   1.431  13.695  0.3297 -0.4953  0.2187
16211TIP3    H170048   6.089   1.473  13.756  0.2049  0.4258 -0.5394
16211TIP3    H270049   6.183   1.503  13.641  3.3306 -0.7183  1.6648
16212TIP3   OH270050   5.593   6.500   6.455 -0.0848  0.6015  0.2192
16212TIP3    H170051   5.601   6.575   6.514 -0.2973 -0.1213  1.1749
16212TIP3    H270052   5.603   6.424   6.512 -0.6604 -0.1085 -0.6245
16213TIP3   OH270053   3.867   2.314   3.185 -0.3075  0.4184 -0.4982
16213TIP3    H170054   3.788   2.265   3.205 -0.4536  1.2977  1.1039
16213TIP3    H270055   3.938   2.261   3.222 -0.2007  0.0186 -1.2561
16214TIP3   OH270056   2.130   4.219   1.549 -0.5591  0.5703  0.0420
16214TIP3    H170057   2.097   4.292   1.497 -0.0576 -0.2827 -1.5178
16214TIP3    H270058   2.102   4.238   1.639 -0.2650  2.7566 -0.3099
16215TIP3   OH270059   2.099   1.077   4.924  0.2419 -0.2128  0.3238
16215TIP3    H170060   2.183   1.086   4.970  0.6491  0.2753 -0.4957
16215TIP3    H270061   2.119   1.023   4.848 -0.7373 -2.2454  1.4629
16216TIP3   OH270062   4.204   3.065   5.472  0.8044  0.0539 -1.2596
16216TIP3    H170063   4.200   2.971   5.488  1.2623  0.0355 -1.2454
16216TIP3    H270064   4.296   3.087   5.480  1.0668  0.0553 -3.7904
16217TIP3   OH270065   3.759   1.510   5.050  0.5260 -0.3121  0.2522
16217TIP3    H170066   3.726   1.428   5.087 -1.6663  0.3293 -0.2017
16217TIP3    H270067   3.769   1.567   5.126 -1.5257  0.1739  0.1958
16218TIP3   OH270068   2.794   5.960   2.337 -0.2002  0.5056  0.4086
16218TIP3    H170069   2.782   6.046   2.298  1.9036  1.5984  2.0886
16218TIP3    H270070   2.871   5.924   2.293 -1.0072 -0.4987 -0.2140
16219TIP3   OH270071   3.314   1.911  15.446 -0.5005  0.3982  0.5102
16219TIP3    H170072   3.352   1.840  15.394  0.0321  2.0746 -1.4329
16219TIP3    H270073   3.239   1.870  15.489  0.0393 -1.4596 -0.2465
16220TIP3   OH270074   3.992   1.702  11.678  0.2822  0.5400 -0.4032
16220TIP3    H170075   3.936   1.772  11.710 -1.3488 -0.8956 -0.0835
16220TIP3    H270076   4.061   1.747  11.629 -0.4721  2.3834  0.1973
16221TIP3   OH270077   1.570   2.736   3.858  0.4746 -0.7080  0.0988
16221TIP3    H170078   1.587   2.742   3.764  2.4031 -0.7179  0.4245
16221TIP3    H270079   1.619   2.659   3.887  0.3841 -0.3604  1.2169
16222TIP3   OH270080   2.148   5.444  13.902 -0.1544  0.5604  0.0475
16222TIP3    H170081   2.224   5.483  13.858 -0.4556  0.2232 -0.7802
16222TIP3    H270082   2.172   5.443  13.995  1.2148 -0.3518 -0.3059
16223TIP3   OH270083   0.655   6.698  13.560  0.1636 -0.1628 -0.0004
16223TIP3    H170084   0.747   6.716  13.545 -0.1002  0.9880 -0.2815
16223TIP3    H270085   0.618   6.686  13.473 -0.3209  1.2570  0.0008
16224TIP3   OH270086   1.380   0.888  13.373  0.3428  0.0274 -0.1453
16224TIP3    H170087   1.430   0.966  13.396 -1.1173  0.1682  2.8037
16224TIP3    H270088   1.399   0.873  13.280  0.4592  4.0149 -0.8469
16225TIP3   OH270089   2.229   1.965  12.514 -0.5119  0.8588  0.6398
16225TIP3    H170090   2.187   1.911  12.581  1.4566  0.4518  1.5816
16225TIP3    H270091   2.275   2.033  12.564 -1.0726  2.0670 -0.4288
16226TIP3   OH270092   0.659   1.555   1.688  0.0897 -0.4636  0.3372
16226TIP3    H170093   0.662   1.470   1.732  1.8899  0.1599  1.4702
16226TIP3    H270094   0.722   1.609   1.736  0.5966  0.8524 -1.7506
16227TIP3   OH270095   2.986   0.566  14.134 -0.2618 -0.6283  0.3914
16227TIP3    H170096   2.977   0.534  14.044  0.7130  0.8575 -0.2444
16227TIP3    H270097   3.070   0.612  14.135 -0.9712  0.6745  1.6501
16228TIP3   OH270098   3.501   5.784   2.384 -0.0257  0.3441 -0.9134
16228TIP3    H170099   3.544   5.776   2.469  0.9513 -1.3091 -1.5345
16228TIP3    H270100   3.419   5.735   2.393  0.5086 -0.6168 -1.1848
16229TIP3   OH270101   4.418   6.753   1.737 -0.1948 -0.2358  0.1200
16229TIP3    H170102   4.353   6.766   1.668 -1.0087  1.0589  1.1068
16229TIP3    H270103   4.395   6.670   1.778 -1.1579  0.1545  0.3736
16230TIP3   OH270104   5.908   3.950  16.870  0.1210 -0.1351  0.1436
16230TIP3    H170105   5.831   3.972  16.923  0.8317  0.8412  0.7807
16230TIP3    H270106   5.872   3.935  16.782 -0.6801  1.3094  0.2096
16231TIP3   OH270107   6.685   0.492  15.990 -0.1175 -0.2301  0.0429
16231TIP3    H170108   6.612   0.487  16.052  0.0300  0.8189  0.3080
16231TIP3    H270109   6.693   0.585  15.970  2.2786 -0.1269  1.3561
16232TIP3   OH270110   3.670   6.342   5.897  0.0139  0.0185 -0.3383
16232TIP3    H170111   3.729   6.268   5.917 -0.7754 -0.7257 -0.7426
16232TIP3    H270112   3.726   6.419   5.907  0.6826 -0.5784  0.7663
16233TIP3   OH270113   1.367   6.089  11.867  0.1168  0.1247  0.4788
16233TIP3    H170114   1.283   6.114  11.906 -1.1568 -1.9075 -0.8905
16233TIP3    H270115   1.356   5.997  11.844  2.2959  0.1767 -0.8694
16234TIP3   OH270116   6.021   0.015   1.084 -0.2494 -0.4743 -0.0585
16234TIP3    H170117   6.013  -0.062   1.141  1.0826 -0.8611 -0.3718
16234TIP3    H270118   6.052   0.085   1.141  0.1371 -0.6096 -0.0966
16235TIP3   OH270119   4.114   4.048   0.445  0.5245 -0.7770 -0.3005
16235TIP3    H170120   4.181   4.113   0.464 -0.6866  0.0677  1.1767
16235TIP3    H270121   4.044   4.066   0.509 -0.5388 -2.4537 -0.9629
16236TIP3   OH270122   4.874   5.141   1.240  0.6216 -0.1849  0.1303
16236TIP3    H170123   4.926   5.126   1.319  0.8373 -0.8523 -0.1356
16236TIP3    H270124   4.839   5.230   1.251  1.7096  0.2223  0.3839
16237TIP3   OH270125   4.229   1.963  12.689 -0.1135 -0.0147  0.4409
16237TIP3    H170126   4.195   1.895  12.747  1.0412 -0.4691  0.6071
16237TIP3    H270127   4.297   1.919  12.638  0.7513  1.0605  0.6628
16238TIP3   OH270128   5.472   0.464   4.225 -0.4830  0.2118  0.1674
16238TIP3    H170129   5.476   0.533   4.158  2.1976 -0.1158 -0.0457
16238TIP3    H270130   5.500   0.385   4.180 -2.5990 -0.8882  0.6739
16239TIP3   OH270131   0.411   2.940  16.153  0.2205 -0.1526 -0.3439
16239TIP3    H170132   0.473   2.936  16.226 -0.7603 -3.9479  0.4255
16239TIP3    H270133   0.327   2.914  16.192 -0.4940 -1.3972 -2.6359
16240TIP3   OH270134   6.179   2.997  13.866 -1.0949  0.0360 -0.3378
16240TIP3    H170135   6.204   2.940  13.939 -0.0590  0.7568 -0.1117
16240TIP3    H270136   6.225   2.960  13.790 -0.7556  0.3273 -0.2736
16241TIP3   OH270137   4.039   0.072  14.795  0.7119 -0.0000 -0.5841
16241TIP3    H170138   4.033   0.127  14.874  0.8490 -0.2766 -0.3790
16241TIP3    H270139   4.071  -0.012  14.827  2.8641  0.5477 -1.2490
16242TIP3   OH270140   1.785   3.506   6.248 -0.1413  0.3906  0.4913
16242TIP3    H170141   1.806   3.415   6.270  0.0558  0.4753  0.6548
16242TIP3    H270142   1.862   3.556   6.276 -0.4791  0.6784  0.9145
16243TIP3   OH270143   5.051   2.188   0.504  0.2179  0.1866  0.3236
16243TIP3    H170144   5.135   2.144   0.488  0.4108  0.5274  0.3820
16243TIP3    H270145   5.033   2.236   0.423 -0.0012 -0.0185  0.2518
16244TIP3   OH270146   4.764   2.598   4.131  0.2236 -0.6508 -0.0179
16244TIP3    H170147   4.789   2.550   4.210  1.5375  0.4528  0.2640
16244TIP3    H270148   4.668   2.599   4.133  0.2422 -0.7752  1.4693
16245TIP3   OH270149   1.419   5.535  10.860  0.4396 -0.5244 -0.2717
16245TIP3    H170150   1.445   5.465  10.800  0.2136  0.4837 -1.5615
16245TIP3    H270151   1.356   5.587  10.811  1.0944  0.9704  0.4212
16246TIP3   OH270152   4.893   3.340   3.931 -0.0995  0.2284  0.4498
16246TIP3    H170153   4.971   3.391   3.951  0.7113 -0.9181  0.2788
16246TIP3    H270154   4.891   3.336   3.835 -0.0100 -0.2809  0.4690
16247TIP3   OH270155   3.324   0.922  13.023 -0.4783  0.4201  0.2439
16247TIP3    H170156   3.416   0.936  13.046 -1.0263 -0.0695  2.9602
16247TIP3    H270157   3.282   1.007  13.039 -0.9540 -0.0547  1.6476
16248TIP3   OH270158   4.595   0.907  15.841  0.1758  0.1344 -0.2294
16248TIP3    H170159   4.619   0.848  15.770  1.8716  0.5496 -0.0233
16248TIP3    H270160   4.583   0.992  15.799  1.0133  0.3452 -0.0322
16249TIP3   OH270161   2.008   5.585   0.987 -0.2020  0.2348  0.1281
16249TIP3    H170162   2.028   5.566   1.079 -0.5042  0.8875  0.3301
16249TIP3    H270163   1.924   5.541   0.972 -0.5285  0.7545  0.3856
16250TIP3   OH270164   3.638   4.023   4.111 -0.2612 -0.2448 -1.0759
16250TIP3    H170165   3.646   4.087   4.040  0.9714  3.7943  2.4992
16250TIP3    H270166   3.725   4.020   4.150 -0.9349 -2.3397  0.2961
16251TIP3   OH270167   0.145   5.439   3.369  0.2259 -0.0616 -0.1565
16251TIP3    H170168   0.159   5.374   3.438  1.2384 -0.2943 -0.5637
16251TIP3    H270169   0.209   5.508   3.387 -0.8733  0.8552  0.2970
16252TIP3   OH270170   2.677   0.001  16.216  0.1522 -1.1782 -0.3814
16252TIP3    H170171   2.772   0.010  16.213  0.1516 -0.5026  1.2886
16252TIP3    H270172   2.644   0.073  16.163  0.5685 -1.4097 -0.9611
16253TIP3   OH270173   2.019   4.093  15.541 -0.2891  0.2338 -0.2616
16253TIP3    H170174   2.023   4.005  15.579  1.1525  0.6002  0.4988
16253TIP3    H270175   2.085   4.142  15.589 -1.0316  1.7214 -0.7349
16254TIP3   OH270176   3.181   3.004   2.852 -0.8052  0.0910  0.7381
16254TIP3    H170177   3.242   2.994   2.779  0.9569 -3.1536  2.5518
16254TIP3    H270178   3.216   3.077   2.903 -0.7666  0.8860 -0.4023
16255TIP3   OH270179   4.709   4.476   4.438 -0.4597  0.5359  0.1609
16255TIP3    H170180   4.794   4.497   4.476  0.2578 -1.9659  0.0010
16255TIP3    H270181   4.663   4.430   4.508 -1.4491  1.3014  0.0244
16256TIP3   OH270182   4.310   1.746   2.624  0.1660 -0.2521 -0.0179
16256TIP3    H170183   4.335   1.837   2.609 -1.8932  0.5490  1.0914
16256TIP3    H270184   4.228   1.736   2.575 -0.0596 -1.2617  0.5507
16257TIP3   OH270185   2.506   5.329   3.799 -0.0064 -0.4489 -0.2015
16257TIP3    H170186   2.481   5.391   3.731  1.0220 -0.6865 -0.8055
16257TIP3    H270187   2.494   5.377   3.881 -0.6714  0.0380 -0.5793
16258TIP3   OH270188   5.623   1.626   1.278 -0.2126 -0.0659  0.0343
16258TIP3    H170189   5.695   1.595   1.333 -0.6852  0.3356  0.8896
16258TIP3    H270190   5.614   1.558   1.211  1.2378  0.0859 -0.3375
16259TIP3   OH270191   5.626   6.392  14.708 -0.2316 -0.2573 -0.2766
16259TIP3    H170192   5.710   6.370  14.748  0.3598  0.2913 -1.1997
16259TIP3    H270193   5.596   6.310  14.668 -0.0519 -0.4118 -0.0945
16260TIP3   OH270194   3.274   0.217   3.757  0.4482 -0.6485 -0.2229
16260TIP3    H170195   3.367   0.206   3.737  0.3274 -0.6577 -0.8037
16260TIP3    H270196   3.273   0.270   3.837  0.9649 -1.8047  0.5701
16261TIP3   OH270197   1.934   0.552  12.373  0.1589  0.0314  0.0776
16261TIP3    H170198   1.931   0.462  12.406 -0.7771  0.1219  0.2703
16261TIP3    H270199   1.868   0.598  12.425  1.8250  1.2412  1.1642
16262TIP3   OH270200   5.678   4.519   0.452  0.1454 -0.0608  0.2364
16262TIP3    H170201   5.751   4.542   0.394 -1.1352  0.7420 -1.1156
16262TIP3    H270202   5.659   4.601   0.498  0.1744 -0.3006  0.6703
16263TIP3   OH270203   5.130   0.574   2.746  0.6974 -0.6731 -0.2640
16263TIP3    H170204   5.097   0.484   2.749  1.0871 -0.8240 -0.5043
16263TIP3    H270205   5.219   0.568   2.780  1.2267 -0.6083 -1.6071
16264TIP3   OH270206   5.094   6.278  10.822  0.7387 -0.3191 -0.5279
16264TIP3    H170207   5.143   6.350  10.782 -1.6533  1.4246 -0.4703
16264TIP3    H270208   5.016   6.320  10.859  0.8633 -2.5080  2.3590
16265TIP3   OH270209   1.797   3.125  13.164  0.2422  0.2573 -0.1182
16265TIP3    H170210   1.762   3.049  13.118  0.3477  1.1152 -1.6515
16265TIP3    H270211   1.823   3.092  13.250  0.4446 -1.4666 -0.8318
16266TIP3   OH270212   2.842   2.438  15.573  0.3844 -0.6481 -0.0677
16266TIP3    H170213   2.857   2.496  15.498  1.5782 -1.2265 -0.2786
16266TIP3    H270214   2.747   2.422  15.572  0.3100 -0.1817 -1.1015
16267TIP3   OH270215   6.105   5.241   1.378  0.1940  0.0687 -0.6403
16267TIP3    H170216   6.124   5.151   1.351  1.6268  0.1321  0.0983
16267TIP3    H270217   6.045   5.274   1.311  0.3656 -1.1410 -1.4116
16268TIP3   OH270218   0.288   6.685  12.745 -0.7182  1.0259  0.1109
16268TIP3    H170219   0.340   6.610  12.773 -0.8242 -0.2387 -2.9247
16268TIP3    H270220   0.277   6.737  12.825  1.2381 -1.0253  1.8000
16269TIP3   OH270221   5.298   0.253   4.014  0.2421 -0.4721  0.7000
16269TIP3    H170222   5.274   0.221   4.101  1.7124  0.6627  1.5549
16269TIP3    H270223   5.393   0.263   4.018  0.1235  1.3342 -0.4232
16270TIP3   OH270224   2.122   4.413  15.828 -0.7965  0.3902  0.1038
16270TIP3    H170225   2.173   4.335  15.845 -0.5444  0.4780 -0.2589
16270TIP3    H270226   2.054   4.385  15.767 -0.7918  0.4248  0.0829
16271TIP3   OH270227   4.599   0.135  11.727  0.3030  0.1987  0.0131
16271TIP3    H170228   4.572   0.079  11.654 -1.8541 -0.0490  0.9672
16271TIP3    H270229   4.694   0.132  11.726  0.2672 -0.7281 -2.0785
16272TIP3   OH270230   3.227   4.009   2.201  0.2005  0.5143 -0.2696
16272TIP3    H170231   3.269   4.023   2.116  1.5412  1.2422  0.5011
16272TIP3    H270232   3.134   4.029   2.185  0.1420 -0.9342 -1.9361
16273TIP3   OH270233   4.651   0.194  13.942  0.0865  0.1630 -0.0437
16273TIP3    H170234   4.739   0.200  13.979 -0.0103  0.2785  0.1656
16273TIP3    H270235   4.650   0.260  13.873  0.1157  0.2620  0.0495
16274TIP3   OH270236   4.020   3.723   0.678  0.2922  0.0175 -0.3669
16274TIP3    H170237   3.982   3.747   0.763  1.1524 -0.0031  0.0355
16274TIP3    H270238   4.105   3.684   0.701  1.0248  1.0294 -1.2919
16275TIP3   OH270239   4.685   1.679  12.055  0.1400 -0.2031 -0.0183
16275TIP3    H170240   4.617   1.698  12.119  0.2387 -0.3981  0.1431
16275TIP3    H270241   4.685   1.755  11.997 -0.4316 -0.3511 -0.2127
16276TIP3   OH270242   5.293   6.300   3.864  0.1957  0.0217 -0.1979
16276TIP3    H170243   5.303   6.209   3.891  2.6180 -0.0140 -1.0981
16276TIP3    H270244   5.306   6.351   3.944  1.4472 -0.3279 -0.1748
16277TIP3   OH270245   3.535   1.782   1.016  0.1246  0.7288 -0.1135
16277TIP3    H170246   3.619   1.827   1.017 -0.3003  1.5388  1.1250
16277TIP3    H270247   3.549   1.703   1.067  0.8820 -0.5749 -2.3193
16278TIP3   OH270248   2.118   1.337  15.799  0.0067  0.1474  0.5628
16278TIP3    H170249   2.211   1.344  15.822  0.6254  0.3334 -1.7814
16278TIP3    H270250   2.087   1.427  15.798 -0.1749  0.0893  1.2978
16279TIP3   OH270251   5.847   6.687   5.957  0.1674  0.5042 -0.1609
16279TIP3    H170252   5.917   6.651   6.011  0.4734  0.6460 -0.4585
16279TIP3    H270253   5.788   6.729   6.019 -1.1574 -2.0679  0.3873
16280TIP3   OH270254   4.750   1.882   3.829 -0.1651  0.0277  0.8209
16280TIP3    H170255   4.723   1.914   3.742 -0.6107  1.0458  1.3236
16280TIP3    H270256   4.830   1.833   3.812 -0.2829  0.1631 -0.1809
16281TIP3   OH270257   6.141   4.288  12.936  0.3505  0.1450  0.4013
16281TIP3    H170258   6.165   4.208  12.984 -1.7483 -1.1895 -0.6932
16281TIP3    H270259   6.049   4.302  12.958 -0.3738  0.0785 -2.4188
16282TIP3   OH270260   4.198   0.067  16.614 -0.2847  0.7562 -0.7552
16282TIP3    H170261   4.181  -0.004  16.676  0.6693  1.1192 -0.0739
16282TIP3    H270262   4.191   0.025  16.528 -0.0948 -0.0831 -0.3700
16283TIP3   OH270263   6.033   1.439   4.840  0.1012 -0.0876  0.0391
16283TIP3    H170264   5.955   1.468   4.887 -0.0716  0.6428 -0.6977
16283TIP3    H270265   6.041   1.499   4.766  0.0149 -1.6023 -1.2358
16284TIP3   OH270266   6.499   6.623   4.464  0.3529  0.2540 -0.3311
16284TIP3    H170267   6.440   6.672   4.408 -1.4389 -2.7249 -1.1706
16284TIP3    H270268   6.564   6.585   4.404 -0.6605 -1.6720 -0.2421
16285TIP3   OH270269   2.176   6.294  15.050  0.0919  0.4265 -0.1935
16285TIP3    H170270   2.146   6.207  15.078 -1.7938  1.8424  2.4384
16285TIP3    H270271   2.265   6.301  15.085  0.3919 -0.5524 -0.7344
16286TIP3   OH270272   2.939   3.471  15.527 -0.2308 -0.2043 -0.4691
16286TIP3    H170273   2.953   3.541  15.462 -0.8339  0.4618  0.1160
16286TIP3    H270274   3.027   3.451  15.559  0.1070 -0.7479 -1.7140
16287TIP3   OH270275   6.277   5.933  15.637 -0.3378  0.0822 -0.9365
16287TIP3    H170276   6.242   5.948  15.549 -0.1604  0.0370 -1.0160
16287TIP3    H270277   6.219   5.982  15.695 -1.6067 -1.4731 -0.8762
16288TIP3   OH270278   5.613   4.470  11.070 -0.1110 -0.0634 -0.2048
16288TIP3    H170279   5.692   4.457  11.018  0.0009  1.5225 -0.4519
16288TIP3    H270280   5.620   4.560  11.103 -0.7928 -0.6152  1.5029
16289TIP3   OH270281   2.450   1.927   1.113  0.0056 -0.5667  0.3685
16289TIP3    H170282   2.441   2.022   1.112 -0.0107 -0.5560  0.9973
16289TIP3    H270283   2.367   1.894   1.077  0.5854 -0.3157 -1.1918
16290TIP3   OH270284   4.882   4.984  16.371 -0.2099 -0.3115 -0.1093
16290TIP3    H170285   4.811   5.001  16.310 -0.7466 -1.5021  0.1745
16290TIP3    H270286   4.917   4.899  16.345  2.3170  1.0657 -1.3981
16291TIP3   OH270287   6.211   5.185   3.617 -0.0873  0.1937  0.1785
16291TIP3    H170288   6.214   5.255   3.682  0.0378  0.0192  0.3600
16291TIP3    H270289   6.164   5.223   3.543  1.2886  0.9721 -0.3193
16292TIP3   OH270290   5.508   4.035  16.772  0.2968  0.1674 -0.1600
16292TIP3    H170291   5.569   4.059  16.702  0.7480 -0.6006 -0.0346
16292TIP3    H270292   5.467   3.954  16.742 -0.6962  0.6964 -0.2590
16293TIP3   OH270293   5.214   0.325  16.460  0.4929 -0.3954  0.2794
16293TIP3    H170294   5.200   0.244  16.411 -1.6964 -1.2325  2.2295
16293TIP3    H270295   5.154   0.320  16.534 -0.7642  3.6949 -0.3437
16294TIP3   OH270296   5.838   1.317   5.360 -0.1455  0.6710  0.4927
16294TIP3    H170297   5.875   1.278   5.280 -0.0629 -0.0625  0.8807
16294TIP3    H270298   5.744   1.319   5.344  0.0045  2.0114 -0.2654
16295TIP3   OH270299   5.723   6.130  16.239  0.4133 -0.1020  0.3895
16295TIP3    H170300   5.718   6.149  16.145  0.9734  2.0260  0.7573
16295TIP3    H270301   5.634   6.148  16.271  0.5329  0.3623  0.4649
16296TIP3   OH270302   4.441   2.127  16.943 -0.7919  0.9663 -0.0673
16296TIP3    H170303   4.506   2.058  16.933 -1.3647  0.5119 -0.7038
16296TIP3    H270304   4.383   2.095  17.012 -0.8299  0.9890 -0.0873
16297TIP3   OH270305   6.014   5.860   4.297 -0.2455 -0.2995  0.6024
16297TIP3    H170306   6.064   5.786   4.263  1.0603  0.6395  0.4570
16297TIP3    H270307   5.922   5.835   4.285  0.1609 -2.5786  2.0127
16298TIP3   OH270308   3.406   2.870   2.352 -0.5231 -0.0526 -0.1823
16298TIP3    H170309   3.488   2.884   2.304  0.4238 -1.7705  0.8685
16298TIP3    H270310   3.397   2.949   2.406  0.1248  0.4025 -0.7197
16299TIP3   OH270311   3.945   0.742  13.511  0.4251 -0.8322  0.4451
16299TIP3    H170312   3.972   0.818  13.563 -0.4530  0.6010 -1.1250
16299TIP3    H270313   3.992   0.668  13.549 -0.1078  0.1810  3.1796
16300TIP3   OH270314   2.021   5.841  16.359 -0.5133  0.0137 -0.0514
16300TIP3    H170315   2.056   5.878  16.440  0.4603  0.5537 -0.7061
16300TIP3    H270316   1.938   5.801  16.384  0.3498 -0.8668  1.4376
16301TIP3   OH270317   3.565   2.079  13.210 -0.1500 -0.2406  0.0723
16301TIP3    H170318   3.489   2.021  13.211  0.1355 -0.5940  1.9462
16301TIP3    H270319   3.528   2.167  13.217 -0.3778 -0.4331  1.3846
16302TIP3   OH270320   3.206   1.878  13.461  0.0878 -0.5529  0.7723
16302TIP3    H170321   3.261   1.811  13.502  2.2339  0.4164 -0.4244
16302TIP3    H270322   3.198   1.946  13.529 -0.5859 -1.2013  1.3488
16303TIP3   OH270323   6.296   3.973  16.107 -0.0810  0.3893 -0.7753
16303TIP3    H170324   6.231   3.992  16.039  0.7255 -0.2255 -1.7346
16303TIP3    H270325   6.246   3.930  16.177 -0.7358  0.0305 -1.4498
16304TIP3   OH270326   1.690   6.556   4.699 -0.5963 -0.1565  0.5140
16304TIP3    H170327   1.601   6.548   4.665 -0.1512  0.2401 -0.7698
16304TIP3    H270328   1.680   6.599   4.784 -1.7295 -1.1810  0.9091
16305TIP3   OH270329   1.107   4.879  11.427 -0.0864 -0.0829 -0.7079
16305TIP3    H170330   1.107   4.783  11.428 -0.2648 -0.0775 -0.3380
16305TIP3    H270331   1.028   4.902  11.378  0.9152 -0.1447 -2.4089
16306TIP3   OH270332   6.138   3.136  12.009 -0.4060 -0.2473  0.2723
16306TIP3    H170333   6.053   3.112  12.046 -0.5443  0.2888  0.3098
16306TIP3    H270334   6.126   3.126  11.914 -0.4892 -0.2374  0.2814
16307TIP3   OH270335   0.461   6.255  14.552  0.9470 -0.4009 -0.0041
16307TIP3    H170336   0.420   6.334  14.516  0.5697 -0.0885  1.0766
16307TIP3    H270337   0.401   6.184  14.530 -0.4740  0.1323  2.0305
16308TIP3   OH270338   2.100   6.554  15.655  0.1490  0.4366 -0.1331
16308TIP3    H170339   2.056   6.564  15.740 -1.7942 -2.1340 -0.7452
16308TIP3    H270340   2.029   6.531  15.595  1.8357 -0.0845 -1.9534
16309TIP3   OH270341   0.996   2.033  16.724  0.6236  0.4312  0.2727
16309TIP3    H170342   0.951   2.061  16.645 -0.1001 -0.9794  0.1770
16309TIP3    H270343   1.088   2.052  16.707  0.3702  0.9791 -0.5382
16310TIP3   OH270344   5.438   6.162  16.348  0.2412 -0.1126 -0.0585
16310TIP3    H170345   5.382   6.227  16.305  0.6526 -0.1220 -0.6181
16310TIP3    H270346   5.386   6.082  16.347 -0.6681  0.4320  1.5199
16311TIP3   OH270347   5.832   6.272   0.896 -0.1399 -0.1231 -0.1224
16311TIP3    H170348   5.866   6.293   0.809  0.5839 -0.2509  0.1282
16311TIP3    H270349   5.765   6.206   0.880 -0.1176 -0.0268 -0.6030
16312TIP3   OH270350   4.287   6.317   5.838  0.0840 -0.1934 -0.2239
16312TIP3    H170351   4.238   6.368   5.903 -1.2466 -0.3666 -1.0817
16312TIP3    H270352   4.340   6.257   5.890 -0.9987 -0.3502  0.7083
16313TIP3   OH270353   3.829   2.828  11.768  0.3576  0.2475  0.6327
16313TIP3    H170354   3.802   2.911  11.807  1.1003  0.3306  0.9679
16313TIP3    H270355   3.847   2.771  11.842  0.4337 -0.0260  0.4044
16314TIP3   OH270356   1.178   0.272   4.653  0.1887 -0.4266 -0.0935
16314TIP3    H170357   1.147   0.234   4.736 -3.0117  0.5904 -0.7455
16314TIP3    H270358   1.272   0.282   4.665  0.0712 -2.1291  2.6925
16315TIP3   OH270359   1.865   2.314   4.774 -0.6120  0.3749 -0.3005
16315TIP3    H170360   1.850   2.272   4.689 -0.7396  0.6582 -0.4176
16315TIP3    H270361   1.835   2.404   4.762  0.2125  0.6578 -0.2192
16316TIP3   OH270362   5.234   1.171   1.299 -0.4755 -0.1453 -0.2175
16316TIP3    H170363   5.155   1.152   1.248 -0.5402 -0.0932 -0.1367
16316TIP3    H270364   5.248   1.265   1.287  1.3821 -0.6830 -2.8413
16317TIP3   OH270365   6.123   6.183  10.575 -0.6901  0.2839  0.8159
16317TIP3    H170366   6.128   6.088  10.562 -0.8438  0.2289  1.1766
16317TIP3    H270367   6.214   6.213  10.569 -0.4966 -0.0491  1.9819
16318TIP3   OH270368   5.646   2.397   6.287 -0.2865  0.4504  0.1080
16318TIP3    H170369   5.628   2.346   6.366  1.0820 -0.6147 -0.2440
16318TIP3    H270370   5.712   2.345   6.240 -1.3370  0.8917 -1.9008
16319TIP3   OH270371   3.646   3.181   2.915  0.0027 -0.8226 -0.0777
16319TIP3    H170372   3.582   3.203   2.847 -0.0004  0.6573  0.3895
16319TIP3    H270373   3.593   3.167   2.994  0.1278 -1.1421 -0.0493
16320TIP3   OH270374   0.627   6.543   1.443  0.1074  0.4110 -0.3275
16320TIP3    H170375   0.547   6.542   1.494  0.1088 -1.4241 -0.3308
16320TIP3    H270376   0.648   6.636   1.432 -1.2965  0.8634  0.7758
16321TIP3   OH270377   1.774   3.793  13.827 -0.1926  0.3785 -0.1101
16321TIP3    H170378   1.754   3.868  13.883 -1.0862  0.9234 -1.1662
16321TIP3    H270379   1.847   3.822  13.773 -0.0142  0.2086  0.0380
16322TIP3   OH270380   2.720   1.893  11.325 -0.0498 -0.4576 -1.0274
16322TIP3    H170381   2.663   1.929  11.257 -0.5540  0.0477 -0.3369
16322TIP3    H270382   2.704   1.948  11.402 -0.3924 -1.7819 -0.1383
16323TIP3   OH270383   4.034   0.800  15.437  0.7675 -0.2927 -0.0606
16323TIP3    H170384   3.971   0.834  15.501 -0.1089 -1.6874 -0.1600
16323TIP3    H270385   3.996   0.717  15.408 -0.1678  1.5019 -4.2773
16324TIP3   OH270386   0.805   3.707   5.592 -0.0387 -0.0986 -0.3777
16324TIP3    H170387   0.825   3.761   5.668  2.1876 -0.3982 -0.7315
16324TIP3    H270388   0.775   3.623   5.629 -1.7152  0.7047  0.1520
16325TIP3   OH270389   5.726   6.142  16.995 -0.5524 -0.3089  0.0912
16325TIP3    H170390   5.713   6.144  17.090 -0.6522 -1.0971  0.0940
16325TIP3    H270391   5.693   6.057  16.968  1.0660 -0.7821 -0.4244
16326TIP3   OH270392   4.856   1.742  12.752 -0.0431 -0.7784 -0.1724
16326TIP3    H170393   4.932   1.798  12.772 -0.2626 -0.2114 -0.9114
16326TIP3    H270394   4.864   1.723  12.659 -0.4875 -1.2071 -0.1241
16327TIP3   OH270395   2.616   4.134  13.164  0.4210 -0.2958  0.1683
16327TIP3    H170396   2.649   4.103  13.249  1.1501 -1.3259 -0.4879
16327TIP3    H270397   2.521   4.125  13.170  0.6589 -3.7001 -0.3910
16328TIP3   OH270398   4.417   0.047  14.835  0.0302 -0.3994  0.2031
16328TIP3    H170399   4.417   0.001  14.752 -1.3703  1.6095 -0.9647
16328TIP3    H270400   4.345   0.007  14.885 -3.4088  2.5755 -2.0895
16329TIP3   OH270401   0.847   2.596   1.564  0.0722  0.1252  0.2709
16329TIP3    H170402   0.908   2.524   1.580 -1.7461 -1.8988 -1.4421
16329TIP3    H270403   0.792   2.600   1.642 -1.0688 -1.6872 -0.4128
16330TIP3   OH270404   5.432   5.127  16.799 -0.3145 -0.1853  0.1575
16330TIP3    H170405   5.375   5.203  16.783  1.0514  1.1251  1.3087
16330TIP3    H270406   5.409   5.064  16.731 -1.7982  1.0916 -0.5448
16331TIP3   OH270407   0.570   4.327   1.803  0.8701  0.2303  0.0682
16331TIP3    H170408   0.611   4.338   1.717  2.7613 -0.3334  0.8620
16331TIP3    H270409   0.634   4.276   1.853 -0.5912 -0.2064  1.5361
16332TIP3   OH270410   0.219   0.592   4.653  0.1044  0.0448  0.1627
16332TIP3    H170411   0.162   0.521   4.625  0.1824  0.6013 -1.4877
16332TIP3    H270412   0.306   0.565   4.625  0.4136 -0.0431  1.1908
16333TIP3   OH270413   4.384   4.790   2.218  0.0734  0.0137  0.1131
16333TIP3    H170414   4.323   4.719   2.202 -1.3127  1.0306  0.8192
16333TIP3    H270415   4.352   4.862   2.164  0.0793  0.8542  1.2157
16334TIP3   OH270416   5.340   4.549   2.319  0.2367  0.2262  0.4304
16334TIP3    H170417   5.291   4.583   2.394  2.0347 -0.6192  2.0465
16334TIP3    H270418   5.322   4.455   2.319 -0.4874  0.3548 -0.7852
16335TIP3   OH270419   0.347   5.562  14.052 -0.3068  0.3566 -0.5365
16335TIP3    H170420   0.423   5.545  14.108 -0.0644 -1.7382 -1.4872
16335TIP3    H270421   0.366   5.648  14.013  0.7069  0.6726  0.6038
16336TIP3   OH270422   4.194   1.506   5.392  0.1602 -0.1749 -0.5097
16336TIP3    H170423   4.236   1.552   5.465  1.8962 -0.3386 -1.3730
16336TIP3    H270424   4.169   1.576   5.331  2.5510 -0.3018 -1.6949
16337TIP3   OH270425   0.021   1.515   2.942  0.3286 -0.1940 -0.0193
16337TIP3    H170426  -0.075   1.509   2.939  0.4284 -1.4515 -2.5919
16337TIP3    H270427   0.041   1.605   2.915 -0.0998 -0.3722 -0.9455
16338TIP3   OH270428   3.390   0.046   0.063  0.8121  0.0892 -0.0244
16338TIP3    H170429   3.308   0.093   0.076  0.5379 -0.6183  0.7923
16338TIP3    H270430   3.439   0.101   0.002  0.0756  0.9303  0.1340
16339TIP3   OH270431   3.660   1.150  12.753  0.0387 -0.0495 -0.2250
16339TIP3    H170432   3.622   1.076  12.706  1.4863 -0.7388 -0.3709
16339TIP3    H270433   3.692   1.209  12.685 -0.2576  0.2406 -0.1116
16340TIP3   OH270434   0.628   1.318   3.428 -0.3845 -0.5938  0.3305
16340TIP3    H170435   0.585   1.276   3.502 -0.1739  0.2036  0.9129
16340TIP3    H270436   0.579   1.289   3.351 -2.7266  1.2484  1.0830
16341TIP3   OH270437   4.315   0.920  13.679  0.3641  0.2901 -0.0789
16341TIP3    H170438   4.343   0.860  13.610  0.0344  0.1431 -0.0873
16341TIP3    H270439   4.374   0.995  13.671  1.1193 -0.2638  0.2746
16342TIP3   OH270440   2.567   5.056   6.378 -0.1090 -0.0076 -0.3217
16342TIP3    H170441   2.521   5.140   6.372 -1.7878 -0.7446  1.6587
16342TIP3    H270442   2.632   5.070   6.447 -1.5011 -0.8174  1.1737
16343TIP3   OH270443   6.358   3.228  14.640  0.4714  0.3796 -0.6134
16343TIP3    H170444   6.285   3.289  14.646 -0.0441 -0.4219  1.9636
16343TIP3    H270445   6.332   3.165  14.574  0.2597  1.9198 -2.0414
16344TIP3   OH270446   6.471   2.490   5.629  0.1446 -0.4384  0.0794
16344TIP3    H170447   6.503   2.465   5.716  0.3209  1.2852  0.5414
16344TIP3    H270448   6.544   2.537   5.589  0.1804 -1.5126 -1.1533
16345TIP3   OH270449   1.444   0.311   2.095  0.0589  0.2184  0.0662
16345TIP3    H170450   1.410   0.393   2.131  1.7319  1.1715 -0.4927
16345TIP3    H270451   1.520   0.337   2.043  0.0282 -1.5805 -0.9248
16346TIP3   OH270452   2.094   2.273   5.196  0.2004 -0.4104  0.6572
16346TIP3    H170453   2.150   2.244   5.124  0.5419  0.1304  0.7008
16346TIP3    H270454   2.145   2.255   5.275  0.2503 -0.0642  0.7048
16347TIP3   OH270455   4.701   5.652   5.019  0.5084  0.5967  0.0767
16347TIP3    H170456   4.675   5.705   5.094  0.4776  0.4078  0.2018
16347TIP3    H270457   4.676   5.563   5.043 -0.3381  0.6612 -0.5351
16348TIP3   OH270458   1.995   2.807  12.620  0.0820 -0.1646 -0.1523
16348TIP3    H170459   2.026   2.742  12.682  1.3776 -1.7197 -2.3891
16348TIP3    H270460   2.068   2.821  12.560 -1.7078 -0.0421 -2.3917
16349TIP3   OH270461   5.363   0.941   0.173  0.3554 -0.8103 -0.6406
16349TIP3    H170462   5.400   0.857   0.201 -0.0357 -0.8087 -0.1193
16349TIP3    H270463   5.274   0.920   0.144  0.4856 -0.6833 -1.1476
16350TIP3   OH270464   5.358   1.631  16.612 -0.1151 -0.5009 -0.6472
16350TIP3    H170465   5.363   1.547  16.567 -2.1568  0.3277 -2.5489
16350TIP3    H270466   5.299   1.683  16.558  0.9876  2.1158  0.5750
16351TIP3   OH270467   0.072   1.357  13.026 -0.2713  0.2383 -0.3558
16351TIP3    H170468   0.047   1.379  13.116  0.5618 -0.0499 -0.0462
16351TIP3    H270469  -0.011   1.345  12.980 -0.7022 -0.8087  0.6714
16352TIP3   OH270470   6.367   6.642  15.739  0.4842  0.5230  0.0272
16352TIP3    H170471   6.302   6.679  15.798 -0.0993  2.2260 -1.6271
16352TIP3    H270472   6.424   6.716  15.717  0.1470  0.1590 -2.2138
16353TIP3   OH270473   3.130   2.218  13.341 -0.1035 -0.2421  0.2357
16353TIP3    H170474   3.057   2.170  13.301 -0.6529  0.8641 -0.0933
16353TIP3    H270475   3.112   2.310  13.323  1.7239  0.0069 -0.4478
16354TIP3   OH270476   0.318   0.696   0.555 -0.4117 -0.1921 -0.3296
16354TIP3    H170477   0.287   0.738   0.474  0.4102  0.3110 -0.3967
16354TIP3    H270478   0.241   0.651   0.590 -0.8288 -0.2519 -1.2901
16355TIP3   OH270479   5.077   6.710   0.230  0.1688  0.1485  0.3343
16355TIP3    H170480   5.039   6.731   0.315 -1.9744 -3.6785  0.4605
16355TIP3    H270481   5.172   6.711   0.245 -0.0688  2.1059  2.0361
16356TIP3   OH270482   1.720   0.235  12.075  0.1778  0.2029 -0.1902
16356TIP3    H170483   1.816   0.241  12.077  0.0964  2.1207 -1.1181
16356TIP3    H270484   1.692   0.309  12.022 -1.9138  0.5241  1.2889
16357TIP3   OH270485   2.921   4.061   1.653 -0.1255 -0.4828  0.4174
16357TIP3    H170486   2.985   4.073   1.724  0.1934  0.8208 -0.0734
16357TIP3    H270487   2.942   4.130   1.590 -2.0836  0.0606  0.3035
16358TIP3   OH270488   5.225   5.345  14.637  0.9702  0.4552  0.1300
16358TIP3    H170489   5.180   5.353  14.553  1.5843 -1.2892 -0.3898
16358TIP3    H270490   5.156   5.324  14.700  0.7242  0.1870 -0.2294
16359TIP3   OH270491   2.933   1.144   1.334 -0.4675 -0.4150 -0.3087
16359TIP3    H170492   2.969   1.210   1.276 -0.7173  0.4280  0.4878
16359TIP3    H270493   2.987   1.066   1.319  2.4585  1.1464  1.7038
16360TIP3   OH270494   4.776   0.197  12.029 -0.4672 -0.3069  0.4124
16360TIP3    H170495   4.831   0.207  11.952 -0.4326 -0.1755  0.4546
16360TIP3    H270496   4.838   0.184  12.101 -0.5039 -0.6522  0.3851
16361TIP3   OH270497   6.069   5.633  13.354  0.6649  0.1284  0.6407
16361TIP3    H170498   5.978   5.605  13.341  0.2494  1.2387  1.1882
16361TIP3    H270499   6.093   5.676  13.271  0.3576  0.7602  0.8815
16362TIP3   OH270500   4.080   4.284  16.235 -0.2106  0.8994 -0.0300
16362TIP3    H170501   4.085   4.246  16.322  0.2034 -0.1079 -0.4856
16362TIP3    H270502   4.171   4.285  16.204 -0.8122 -2.9996 -2.2368
16363TIP3   OH270503   1.157   5.773  14.386  0.1255  0.0520  0.5640
16363TIP3    H170504   1.199   5.726  14.313 -1.0967  0.3279 -0.3324
16363TIP3    H270505   1.156   5.864  14.358 -1.0375  0.0535  0.5887
16364TIP3   OH270506   3.529   0.513  15.356 -0.2460 -0.0134  0.3838
16364TIP3    H170507   3.443   0.487  15.388  0.1282  0.6888  2.0533
16364TIP3    H270508   3.574   0.547  15.434  1.6744 -0.7204 -0.3826
16365TIP3   OH270509   5.323   0.839   1.184 -0.4797  0.3795 -0.7206
16365TIP3    H170510   5.332   0.754   1.141 -0.0573  0.5983 -1.0727
16365TIP3    H270511   5.297   0.819   1.273  0.2384 -0.1448 -0.6289
16366TIP3   OH270512   3.512   4.057  15.099  0.2480  0.4013 -0.2057
16366TIP3    H170513   3.586   4.044  15.159 -1.4109 -0.7520  1.6625
16366TIP3    H270514   3.438   4.078  15.156 -1.3867 -0.7066 -1.8490
16367TIP3   OH270515   4.778   5.310  14.125  0.0760  0.0204 -0.1285
16367TIP3    H170516   4.741   5.369  14.059  1.5082  1.4673  0.3202
16367TIP3    H270517   4.844   5.363  14.170  0.7829 -1.6768  0.8804
16368TIP3   OH270518   2.718   5.401  12.569 -0.0646 -0.2466 -0.2698
16368TIP3    H170519   2.792   5.457  12.591 -1.4831  0.8641  1.9396
16368TIP3    H270520   2.664   5.401  12.648 -1.4041 -2.6814 -1.1104
16369TIP3   OH270521   6.187   0.850  13.728  1.3011 -0.2739  0.7854
16369TIP3    H170522   6.123   0.915  13.761  1.1617  0.9795 -1.8551
16369TIP3    H270523   6.133   0.779  13.693  1.3619  0.1563 -0.1963
16370TIP3   OH270524   0.372   5.301   3.730 -0.0388 -0.0423 -0.0451
16370TIP3    H170525   0.300   5.357   3.759  1.4798  2.9955 -1.9200
16370TIP3    H270526   0.434   5.302   3.803 -0.4787 -0.0852  0.3281
16371TIP3   OH270527   5.734   4.133  11.968  0.8478 -0.2544  0.2233
16371TIP3    H170528   5.757   4.173  12.052  1.2804  0.5215 -0.2558
16371TIP3    H270529   5.810   4.149  11.913  0.2768 -0.1318 -0.5320
16372TIP3   OH270530   6.787   4.995  11.855  0.1862  0.2248  0.6382
16372TIP3    H170531   6.767   4.978  11.947 -1.7788 -1.6676 -0.0765
16372TIP3    H270532   6.713   5.048  11.825  0.3014 -0.0255 -0.0833
16373TIP3   OH270533   5.463   1.445  14.048  0.1193  0.1063  0.1802
16373TIP3    H170534   5.388   1.503  14.031  0.7588  2.1144  3.7480
16373TIP3    H270535   5.424   1.359  14.062 -1.7966  1.4627  3.7706
16374TIP3   OH270536   0.503   6.673  16.959 -0.4242  0.0757  0.2344
16374TIP3    H170537   0.454   6.592  16.947  0.5499 -0.2572 -1.6001
16374TIP3    H270538   0.436   6.740  16.969 -1.2396 -0.7922  0.7775
16375TIP3   OH270539   2.041   5.652  13.691  0.2498  0.4674  0.1503
16375TIP3    H170540   2.022   5.727  13.634  1.2161 -0.5795 -1.5902
16375TIP3    H270541   2.129   5.624  13.666  1.1609  0.6433  2.9486
16376TIP3   OH270542   3.419   5.646  14.345  0.2189 -0.6844 -0.1659
16376TIP3    H170543   3.407   5.677  14.435 -0.6174  0.5458 -0.6847
16376TIP3    H270544   3.507   5.675  14.321  0.1666 -0.3878  0.0050
16377TIP3   OH270545   0.220   4.101   5.572  0.1331 -0.1880 -0.0114
16377TIP3    H170546   0.133   4.065   5.559  0.4922 -1.2395  0.4491
16377TIP3    H270547   0.215   4.190   5.536 -0.8581 -0.5651 -0.8242
16378TIP3   OH270548   2.055   5.342  13.624  0.0925  0.2434  0.1167
16378TIP3    H170549   2.142   5.378  13.609  0.7549 -1.4614 -0.2265
16378TIP3    H270550   2.014   5.341  13.537  0.3106 -0.3985  0.0153
16379TIP3   OH270551   1.772   5.211   5.375  0.4495 -0.2325 -0.3148
16379TIP3    H170552   1.866   5.200   5.365  0.5051  0.9837 -1.2744
16379TIP3    H270553   1.735   5.176   5.294  0.0769 -0.7870  0.0974
16380TIP3   OH270554   5.689   6.757  11.871 -0.0816 -0.7261  0.1578
16380TIP3    H170555   5.750   6.700  11.917  0.2622  0.2651  0.9533
16380TIP3    H270556   5.683   6.835  11.926 -0.4980  0.0294 -0.9446
16381TIP3   OH270557   1.315   2.926  15.537  0.3606  0.3896  0.3807
16381TIP3    H170558   1.245   2.964  15.483  0.0018  1.2363  1.4235
16381TIP3    H270559   1.279   2.926  15.626  0.4002 -2.2893  0.4364
16382TIP3   OH270560   3.357   3.910  12.110 -0.0506 -0.2014 -0.1246
16382TIP3    H170561   3.363   3.922  12.015 -0.2127 -1.9854 -0.3809
16382TIP3    H270562   3.448   3.906  12.139 -0.0003  0.7349 -0.1531
16383TIP3   OH270563   0.931   2.910   0.775 -0.3085 -0.2252  0.5419
16383TIP3    H170564   0.876   2.980   0.811 -0.7950 -0.1683 -0.2994
16383TIP3    H270565   0.882   2.830   0.794 -1.5900 -0.0380 -1.8040
16384TIP3   OH270566   6.477   0.593  11.449  0.1028  0.2152 -0.5292
16384TIP3    H170567   6.439   0.507  11.435 -2.3221  1.1663 -0.0396
16384TIP3    H270568   6.402   0.650  11.466  1.6457  2.4362 -0.9303
16385TIP3   OH270569   4.261   2.991   1.314 -0.3009 -0.3825 -0.3203
16385TIP3    H170570   4.347   2.987   1.355 -0.3750  1.3020  0.0350
16385TIP3    H270571   4.203   2.944   1.374  0.5326 -2.4872 -1.0947
16386TIP3   OH270572   3.011   3.734  15.796 -0.9236  0.6319 -0.6401
16386TIP3    H170573   3.042   3.820  15.824 -1.1856  0.2529  0.8704
16386TIP3    H270574   2.918   3.734  15.819 -1.1173  0.2572 -1.4179
16387TIP3   OH270575   5.811   5.564  13.455  0.5582  0.0436  0.0765
16387TIP3    H170576   5.726   5.527  13.480  0.9883 -1.7189 -0.9321
16387TIP3    H270577   5.874   5.519  13.511  1.2399 -1.9155 -2.1244
16388TIP3   OH270578   0.222   1.418  14.554 -0.0397  0.5809 -0.3703
16388TIP3    H170579   0.193   1.338  14.511 -1.8390 -0.0027  1.8819
16388TIP3    H270580   0.295   1.390  14.609 -0.5898  0.4969  0.3233
16389TIP3   OH270581   6.166   0.708   6.482  0.4232 -0.0067 -0.5736
16389TIP3    H170582   6.168   0.706   6.387  1.3387 -2.4164 -0.5290
16389TIP3    H270583   6.255   0.686   6.509  0.2608  0.9698  0.8542
16390TIP3   OH270584   4.327   2.189  15.017  0.3189 -0.3150 -0.0281
16390TIP3    H170585   4.309   2.257  15.082 -0.4295  0.0507 -0.6028
16390TIP3    H270586   4.290   2.109  15.055 -0.7050  0.0285 -0.2840
16391TIP3   OH270587   4.416   1.500   0.948  0.1852 -0.3231 -0.4395
16391TIP3    H170588   4.370   1.567   0.998  0.1668 -0.9580  0.4167
16391TIP3    H270589   4.347   1.452   0.902 -0.0860 -1.6380  1.2909
16392TIP3   OH270590   6.718   5.117  13.242 -0.1378  0.3627  0.0588
16392TIP3    H170591   6.681   5.205  13.250 -2.8496 -0.5702 -1.4964
16392TIP3    H270592   6.656   5.070  13.185  0.6855 -2.8351  1.6684
16393TIP3   OH270593   2.525   3.726  16.792  0.1241  0.3938 -0.0839
16393TIP3    H170594   2.460   3.787  16.827 -1.2867 -1.1401  0.0569
16393TIP3    H270595   2.581   3.779  16.736 -1.3760  1.7301 -0.3448
16394TIP3   OH270596   6.198   6.178   1.794 -0.0010  0.3779  0.4485
16394TIP3    H170597   6.250   6.179   1.714  0.0126  0.7869  0.4640
16394TIP3    H270598   6.127   6.117   1.776  0.1117  0.3232  0.1957
16395TIP3   OH270599   5.342   4.443  16.962  0.5035 -0.6499 -0.7865
16395TIP3    H170600   5.255   4.405  16.975  0.7366 -0.7214  0.6513
16395TIP3    H270601   5.331   4.536  16.980  1.4095 -1.1763  2.8841
16396TIP3   OH270602   3.353   3.494   0.263  0.4392 -0.0031  0.2892
16396TIP3    H170603   3.410   3.568   0.285  1.6143 -1.3008  1.6818
16396TIP3    H270604   3.340   3.501   0.168  0.2774  2.1559  0.4455
16397TIP3   OH270605   0.724   3.409   3.381 -0.4865 -0.2609 -0.8015
16397TIP3    H170606   0.757   3.391   3.469  1.4650 -2.9617 -1.9951
16397TIP3    H270607   0.803   3.426   3.329 -1.4064 -1.0682 -2.5124
16398TIP3   OH270608   6.605   0.864  12.355  0.4466  0.0347 -0.3019
16398TIP3    H170609   6.593   0.866  12.449 -2.0491  0.1629 -0.6036
16398TIP3    H270610   6.618   0.955  12.330  2.8684 -0.1625  0.0933
16399TIP3   OH270611   0.174   3.038  11.188  0.4587 -0.2350 -0.3664
16399TIP3    H170612   0.224   2.957  11.185 -0.0027 -0.5011 -0.8316
16399TIP3    H270613   0.175   3.064  11.281  2.6806  0.5199 -0.5671
16400TIP3   OH270614   1.120   4.897   3.563  0.1335 -0.4527 -0.5371
16400TIP3    H170615   1.043   4.852   3.599  0.6345 -0.7906  0.1387
16400TIP3    H270616   1.096   4.920   3.474 -1.1798  0.4981  0.0609
16401TIP3   OH270617   3.381   6.124  15.526 -0.3292 -0.2097  0.0088
16401TIP3    H170618   3.373   6.086  15.439 -0.9273 -0.0119 -0.0247
16401TIP3    H270619   3.444   6.068  15.571 -1.4695 -1.4791  0.0801
16402TIP3   OH270620   2.175   3.150   5.832 -0.3680 -0.4232  0.0524
16402TIP3    H170621   2.102   3.141   5.894 -1.4750 -0.2061 -1.1928
16402TIP3    H270622   2.201   3.060   5.812 -2.4788 -0.6233 -2.0014
16403TIP3   OH270623   5.498   5.112  15.559 -0.4029  0.0006  0.2721
16403TIP3    H170624   5.479   5.141  15.649  1.9909  0.5238  0.6483
16403TIP3    H270625   5.488   5.017  15.562 -3.0205  0.2430  0.3779
16404TIP3   OH270626   5.108   1.701   1.864 -0.4892 -0.5286 -0.0242
16404TIP3    H170627   5.201   1.717   1.879 -0.2283 -1.1921 -0.9391
16404TIP3    H270628   5.071   1.788   1.850  0.5580 -0.4826 -2.8462
16405TIP3   OH270629   4.037   4.226  14.777 -0.4228 -0.6652 -0.3151
16405TIP3    H170630   4.102   4.216  14.706  1.0738  0.0330  0.9188
16405TIP3    H270631   4.007   4.316  14.769  1.0450 -0.0303  0.9760
16406TIP3   OH270632   6.450   1.190  15.182 -0.5737  0.8899  0.7677
16406TIP3    H170633   6.544   1.176  15.176 -0.4599  0.8941  2.2823
16406TIP3    H270634   6.414   1.104  15.206 -0.6508  1.4494  2.7996
16407TIP3   OH270635   4.559   2.662  13.038 -0.2423  0.4193  0.3824
16407TIP3    H170636   4.576   2.756  13.047 -0.5637  0.5108  0.0219
16407TIP3    H270637   4.515   2.653  12.954 -0.2892 -0.0464  0.4543
16408TIP3   OH270638   4.547   2.624  14.191  0.3407  0.6109  0.0038
16408TIP3    H170639   4.583   2.554  14.246 -0.3086 -0.4012 -0.8468
16408TIP3    H270640   4.480   2.665  14.245  1.7036  1.5281  1.0413
16409TIP3   OH270641   2.459   5.329  16.135  0.7166 -0.7948  0.3863
16409TIP3    H170642   2.533   5.305  16.191  0.0295 -0.1636  1.5681
16409TIP3    H270643   2.439   5.420  16.157 -1.8213 -1.6064  1.7143
16410TIP3   OH270644   5.850   1.834  12.706  0.2851  0.3856  0.2851
16410TIP3    H170645   5.825   1.866  12.619 -0.1086  0.1253  0.2966
16410TIP3    H270646   5.799   1.888  12.767  1.3786  1.3022  0.4073
16411TIP3   OH270647   3.798   4.958   6.255  0.2272 -0.6531  0.0029
16411TIP3    H170648   3.707   4.964   6.224  0.5200 -0.4832 -0.8467
16411TIP3    H270649   3.793   4.906   6.335 -0.4660 -1.7606 -0.7369
16412TIP3   OH270650   4.809   2.551   0.031  0.3413  0.2194  0.5510
16412TIP3    H170651   4.823   2.552  -0.064 -1.9260 -0.4010  0.1748
16412TIP3    H270652   4.884   2.599   0.067  0.6771  1.3716 -1.6191
16413TIP3   OH270653   2.243   0.688   0.594 -0.3275 -0.1637  0.0247
16413TIP3    H170654   2.157   0.667   0.632 -0.1239 -0.9521  0.0561
16413TIP3    H270655   2.241   0.646   0.508 -0.8967  1.8392 -0.9913
16414TIP3   OH270656   3.359   3.936   2.753  0.4066  0.3545 -0.0320
16414TIP3    H170657   3.433   3.893   2.797 -0.1559 -0.4633  0.1134
16414TIP3    H270658   3.367   4.028   2.778  0.7582  0.0900  0.8579
16415TIP3   OH270659   4.029   0.937  13.698 -0.2258  0.0755 -0.3437
16415TIP3    H170660   4.044   1.026  13.665  1.3739  0.0964  0.4291
16415TIP3    H270661   4.116   0.898  13.703 -0.5476 -0.3833  2.5832
16416TIP3   OH270662   3.825   5.853  15.507 -0.4496 -0.4387 -0.4514
16416TIP3    H170663   3.835   5.845  15.412 -3.3626  0.4557 -0.8793
16416TIP3    H270664   3.896   5.800  15.543  2.0577  0.9854 -3.1041
16417TIP3   OH270665   5.939   4.396  13.343  0.3166 -0.9914 -0.2152
16417TIP3    H170666   5.941   4.469  13.405  3.0959 -1.9261  0.8505
16417TIP3    H270667   5.852   4.402  13.303 -0.1534  1.8519  1.0808
16418TIP3   OH270668   5.087   6.599  15.700  0.3268 -0.0373 -0.2024
16418TIP3    H170669   5.174   6.564  15.683  1.1297  0.9930  1.7516
16418TIP3    H270670   5.058   6.555  15.780 -0.5781  0.3106 -0.3284
16419TIP3   OH270671   2.679   1.321  14.434  0.1438  0.0581  0.2617
16419TIP3    H170672   2.637   1.270  14.364 -1.9353  1.7949  0.1908
16419TIP3    H270673   2.757   1.359  14.393 -0.6525  0.4471 -0.9182
16420TIP3   OH270674   3.401   1.037   5.782  0.0569  0.2997 -0.5734
16420TIP3    H170675   3.356   1.015   5.864  1.7529 -0.5973  0.1462
16420TIP3    H270676   3.436   0.954   5.750  0.7980  0.8909 -1.3501
16421TIP3   OH270677   4.125   0.273  12.166 -0.1967  0.5849  0.0951
16421TIP3    H170678   4.066   0.250  12.094 -1.9729  0.3670  1.6152
16421TIP3    H270679   4.068   0.292  12.240  1.5674  1.9918  1.1430
16422TIP3   OH270680   1.424   2.086   5.896  0.1790  0.2256  0.7879
16422TIP3    H170681   1.508   2.130   5.905 -0.4939  1.8457 -0.4718
16422TIP3    H270682   1.411   2.079   5.801 -2.2281  2.3133  0.8898
16423TIP3   OH270683   6.199   4.962   0.061 -0.3934 -0.3121 -0.2531
16423TIP3    H170684   6.232   5.032   0.118 -0.9516 -0.4853  0.2952
16423TIP3    H270685   6.275   4.906   0.045  0.0414  0.3752 -0.6383
16424TIP3   OH270686   3.395   4.556  16.234  0.3563  0.3783  0.0711
16424TIP3    H170687   3.455   4.618  16.193 -0.9270  1.4972 -0.1488
16424TIP3    H270688   3.384   4.588  16.323 -0.3218  0.4760 -0.0478
16425TIP3   OH270689   3.954   1.070  15.646 -0.4393 -0.1601  0.3541
16425TIP3    H170690   3.994   0.985  15.629  0.1068  0.1254  0.1855
16425TIP3    H270691   4.018   1.133  15.612 -0.0037  0.3816  2.1306
16426TIP3   OH270692   2.896   6.049  14.972 -0.3984  0.7888 -0.2146
16426TIP3    H170693   2.938   6.050  15.059 -2.7501 -2.3298  1.0568
16426TIP3    H270694   2.804   6.065  14.990 -0.7377  1.2585 -2.3106
16427TIP3   OH270695   5.283   6.317  10.298 -0.0736 -0.1158  0.5382
16427TIP3    H170696   5.205   6.362  10.267 -0.3817 -0.5807  0.6399
16427TIP3    H270697   5.275   6.319  10.393 -0.5917 -1.2689  0.5240
16428TIP3   OH270698   3.528   6.475  13.358  0.2273  0.0214  0.0440
16428TIP3    H170699   3.504   6.488  13.450 -2.4468 -1.0226 -0.4515
16428TIP3    H270700   3.482   6.395  13.333  1.4734 -0.0734 -2.0359
16429TIP3   OH270701   0.512   2.603  10.976 -0.2876 -0.3647  0.4212
16429TIP3    H170702   0.480   2.516  11.000 -1.3034 -0.1726 -0.1990
16429TIP3    H270703   0.462   2.626  10.898  1.5950 -0.1528 -0.7340
16430TIP3   OH270704   4.395   6.229   5.408  0.4044  0.1137  0.0242
16430TIP3    H170705   4.485   6.215   5.379  0.9963  2.8792  0.4595
16430TIP3    H270706   4.403   6.269   5.495 -1.2914 -1.4672  0.9809
16431TIP3   OH270707   3.180   6.698   0.661 -0.2668 -0.1041 -0.6929
16431TIP3    H170708   3.094   6.737   0.673 -0.2124 -0.4920  1.0696
16431TIP3    H270709   3.238   6.771   0.639 -0.5761  0.5122  0.5193
16432TIP3   OH270710   2.333   2.137   3.917  0.3645  0.2912  0.1193
16432TIP3    H170711   2.266   2.068   3.919  0.3349  0.3460  1.3007
16432TIP3    H270712   2.416   2.090   3.926  0.2845  0.4861  1.9086
16433TIP3   OH270713   2.467   2.575  15.852 -0.3131  0.3320 -0.4463
16433TIP3    H170714   2.488   2.567  15.945  1.1354 -0.1148 -0.7967
16433TIP3    H270715   2.467   2.669  15.835 -2.4825  0.5066  0.4129
16434TIP3   OH270716   0.384   1.200   4.434 -0.2570 -0.2980 -0.1713
16434TIP3    H170717   0.310   1.184   4.492 -0.0865  0.8987  0.3945
16434TIP3    H270718   0.457   1.218   4.494  1.1103 -3.9203 -0.6452
16435TIP3   OH270719   4.682   2.874  12.169  0.3285 -0.0958  0.3621
16435TIP3    H170720   4.623   2.803  12.194  1.5290 -1.1342  0.2951
16435TIP3    H270721   4.624   2.948  12.151 -0.9585 -1.1447  0.1238
16436TIP3   OH270722   3.391   2.151   0.763  0.0767  0.2643 -0.4339
16436TIP3    H170723   3.344   2.234   0.766 -0.4570 -0.0368 -0.5421
16436TIP3    H270724   3.327   2.088   0.732 -0.0062 -0.5216  1.2720
16437TIP3   OH270725   4.714   4.345  15.089 -0.0291  0.2142 -0.2359
16437TIP3    H170726   4.717   4.362  15.183 -2.6256  0.1490 -0.1150
16437TIP3    H270727   4.775   4.408  15.052  1.8121 -0.4477  1.5740
16438TIP3   OH270728   6.331   1.593   0.172 -0.1671  0.3883  0.0475
16438TIP3    H170729   6.246   1.549   0.177  0.9757 -2.0275 -0.8546
16438TIP3    H270730   6.313   1.682   0.202 -2.7737 -0.3875  1.0108
16439TIP3   OH270731   0.009   2.115  13.932  0.0176 -0.6210 -0.5519
16439TIP3    H170732   0.014   2.176  14.005 -1.1360 -0.5316 -0.5308
16439TIP3    H270733   0.071   2.150  13.867  0.1709 -0.0404 -0.1014
16440TIP3   OH270734   0.685   4.960   5.027 -0.5860  0.0378  0.0143
16440TIP3    H170735   0.646   4.874   5.042 -0.2267 -0.0941  0.2168
16440TIP3    H270736   0.759   4.964   5.088 -0.1900  0.2230 -0.4675
16441TIP3   OH270737   3.489   0.135   4.162  0.2946  0.0708  0.5123
16441TIP3    H170738   3.402   0.097   4.152  0.4733 -0.1936 -0.0561
16441TIP3    H270739   3.506   0.178   4.078  0.1639  1.2633  1.0928
16442TIP3   OH270740   2.125   5.168   0.205 -0.1349  0.0149  0.0372
16442TIP3    H170741   2.204   5.122   0.176  0.5419  1.1699  0.0189
16442TIP3    H270742   2.076   5.185   0.125  0.6010  1.1128 -0.2032
16443TIP3   OH270743   0.938   3.051  15.167 -0.2648 -0.0863 -0.0308
16443TIP3    H170744   0.890   2.978  15.127  0.9041  0.7659 -3.1601
16443TIP3    H270745   0.927   3.124  15.106  1.3801  1.3742  1.3503
16444TIP3   OH270746   3.836   3.030   4.121 -0.7374  0.1665  0.0660
16444TIP3    H170747   3.826   3.126   4.118 -2.2820  0.0329  0.2370
16444TIP3    H270748   3.786   3.000   4.045 -0.3907 -0.5150  0.1127
16445TIP3   OH270749   2.287   4.000   1.615  0.7467  0.0606 -0.4024
16445TIP3    H170750   2.255   4.073   1.563 -0.6852 -0.2924 -0.0472
16445TIP3    H270751   2.209   3.947   1.632  1.7183 -1.4346 -0.4704
16446TIP3   OH270752   2.960   1.199  17.093 -0.7646  0.1383 -0.1292
16446TIP3    H170753   2.888   1.257  17.117 -1.9240 -1.7850  1.0895
16446TIP3    H270754   3.016   1.197  17.171 -0.7444 -0.4174 -0.1594
16447TIP3   OH270755   6.659   2.579  15.912 -0.1269  0.9561  0.2232
16447TIP3    H170756   6.610   2.508  15.870 -1.9976  2.2855  0.1016
16447TIP3    H270757   6.722   2.607  15.845 -2.0919  2.0724 -1.1971
16448TIP3   OH270758   1.146   6.310   2.392 -0.1821  0.3822 -0.6696
16448TIP3    H170759   1.231   6.292   2.352  0.6854 -0.0361  1.3013
16448TIP3    H270760   1.096   6.355   2.324  1.6192  0.6387 -1.8456
16449TIP3   OH270761   4.891   3.949  12.136  0.2555  0.1431 -0.0275
16449TIP3    H170762   4.919   4.010  12.204 -1.5320  0.0828  0.7929
16449TIP3    H270763   4.797   3.939  12.150 -0.2738  0.6075 -2.8741
16450TIP3   OH270764   1.445   0.834   0.225  0.0858 -0.8582 -0.1029
16450TIP3    H170765   1.456   0.825   0.320  0.0206  1.4686  0.1497
16450TIP3    H270766   1.535   0.834   0.191  0.1404 -0.9142  0.0381
16451TIP3   OH270767   4.690   3.623   1.371  0.1709  0.0727  0.1925
16451TIP3    H170768   4.691   3.670   1.454 -2.3077  0.2702  0.1426
16451TIP3    H270769   4.663   3.534   1.394 -0.5526  0.1346 -0.3926
16452TIP3   OH270770   1.905   5.759  10.650  0.7123  0.8591  0.6058
16452TIP3    H170771   1.871   5.825  10.710 -0.0677 -0.5925  1.7846
16452TIP3    H270772   1.894   5.676  10.696  2.5298 -0.0221 -0.4607
16453TIP3   OH270773   3.156   3.525   3.003  0.1275  0.7824 -0.1639
16453TIP3    H170774   3.135   3.617   2.988  1.7844  1.5452  1.9092
16453TIP3    H270775   3.099   3.499   3.076 -0.4352  0.0883 -0.8278
16454TIP3   OH270776   0.882   3.483   4.219  0.2709  0.1054  0.4652
16454TIP3    H170777   0.956   3.537   4.193 -0.8821  1.4011 -0.1737
16454TIP3    H270778   0.826   3.542   4.269 -2.2941  0.2906 -2.4677
16455TIP3   OH270779   4.915   1.552  11.233  0.2485 -0.1513  0.4463
16455TIP3    H170780   4.923   1.469  11.186 -0.5464 -0.0900  0.1958
16455TIP3    H270781   5.005   1.575  11.258  0.6724 -0.2425 -0.9442
16456TIP3   OH270782   4.658   0.613  13.678  0.3039 -0.0148  0.2487
16456TIP3    H170783   4.728   0.653  13.627  1.9531  0.3575  2.7262
16456TIP3    H270784   4.655   0.522  13.648  0.9350  0.3122 -0.8169
16457TIP3   OH270785   3.365   6.050   4.584  0.6267 -0.4256  0.5573
16457TIP3    H170786   3.372   6.142   4.558  0.8621 -1.1387 -2.0187
16457TIP3    H270787   3.367   6.052   4.680 -0.1734  2.3110  0.5675
16458TIP3   OH270788   4.244   1.411   0.650  0.2497  0.3620 -0.3734
16458TIP3    H170789   4.270   1.321   0.667  1.8907  1.1184  1.2304
16458TIP3    H270790   4.311   1.445   0.589  2.5313  1.9621  2.8770
16459TIP3   OH270791   3.453   1.537   3.990 -0.4594 -0.0179  0.0328
16459TIP3    H170792   3.517   1.466   3.992 -0.9229 -0.4101  2.3333
16459TIP3    H270793   3.385   1.509   4.052 -0.8734  2.2334  0.6161
16460TIP3   OH270794   2.017   4.809   1.438  0.3881  0.5037  0.1415
16460TIP3    H170795   1.982   4.747   1.374 -0.4983 -0.1406  1.2266
16460TIP3    H270796   2.004   4.766   1.523  3.4646  0.3956  0.6415
16461TIP3   OH270797   0.332   1.157   5.831  0.7245  0.0485  0.1835
16461TIP3    H170798   0.420   1.194   5.822  0.5506  0.1764 -1.0074
16461TIP3    H270799   0.279   1.206   5.768  0.1797 -1.2515 -0.3724
16462TIP3   OH270800   3.185   3.252   5.383 -0.1219  0.4604  0.1404
16462TIP3    H170801   3.175   3.158   5.394 -0.2260  0.3856 -0.5657
16462TIP3    H270802   3.280   3.265   5.374 -0.0682  0.4789  0.7074
16463TIP3   OH270803   0.571   2.673   0.870 -0.1380  0.2166  0.4572
16463TIP3    H170804   0.539   2.754   0.911 -0.5489 -0.0048  0.5770
16463TIP3    H270805   0.503   2.649   0.808 -0.0993 -0.1313  0.5461
16464TIP3   OH270806   1.551   1.955  11.891  0.0097  0.2652  0.1785
16464TIP3    H170807   1.488   1.949  11.819  0.9503 -2.4758 -0.4814
16464TIP3    H270808   1.502   1.925  11.968  0.4513 -1.9086 -0.3434
16465TIP3   OH270809   5.119   2.628  13.379  0.3389  0.2987  0.3091
16465TIP3    H170810   5.064   2.696  13.420 -0.1894 -0.7888  1.4490
16465TIP3    H270811   5.056   2.562  13.348  0.9504 -0.5416  0.8447
16466TIP3   OH270812   3.001   5.111  16.369  0.5971 -0.0784  0.1421
16466TIP3    H170813   3.070   5.099  16.303  0.5645  2.0430 -0.3130
16466TIP3    H270814   3.039   5.173  16.431  0.1528 -1.1143  1.4701
16467TIP3   OH270815   6.305   5.737  14.185 -0.1287  0.2030 -0.2781
16467TIP3    H170816   6.215   5.723  14.156  0.5018  0.0819 -2.2399
16467TIP3    H270817   6.343   5.649  14.190  0.1928  0.3269 -0.4983
16468TIP3   OH270818   2.661   3.372  11.252  0.1410  0.0958  0.2927
16468TIP3    H170819   2.728   3.337  11.194 -0.5943 -2.5042  0.9166
16468TIP3    H270820   2.622   3.294  11.292 -1.0605  1.7209  2.3573
16469TIP3   OH270821   0.052   3.035  11.979  0.4184 -0.3024 -0.5001
16469TIP3    H170822   0.079   3.035  11.887 -2.7982 -0.1999 -1.4971
16469TIP3    H270823  -0.020   2.972  11.983 -0.4147  0.7388  1.6629
16470TIP3   OH270824   3.574   3.698   4.510 -0.3694  0.6093  0.4679
16470TIP3    H170825   3.636   3.629   4.531 -1.7602 -0.7388  0.1809
16470TIP3    H270826   3.564   3.695   4.415  0.2439  1.7976  0.3569
16471TIP3   OH270827   2.539   0.745   5.845  0.1045  0.0352  0.2637
16471TIP3    H170828   2.511   0.798   5.920 -1.9109  3.3341 -2.6570
16471TIP3    H270829   2.458   0.707   5.811  0.2898  2.2093 -2.8253
16472TIP3   OH270830   6.598   0.112  16.902 -0.3919  0.0561 -0.0435
16472TIP3    H170831   6.639   0.197  16.887  0.3479 -0.0971  1.0575
16472TIP3    H270832   6.529   0.107  16.836  0.2960  1.0220 -0.8574
16473TIP3   OH270833   3.515   6.373   4.193  0.3417 -0.3055 -0.1384
16473TIP3    H170834   3.537   6.445   4.252 -0.0565 -0.1006 -0.2385
16473TIP3    H270835   3.427   6.346   4.219  0.5463 -0.8613  0.0019
16474TIP3   OH270836   0.558   6.395  13.583 -0.4117 -0.3659 -0.2527
16474TIP3    H170837   0.509   6.477  13.588 -0.2083 -0.1830 -1.0817
16474TIP3    H270838   0.492   6.327  13.593 -0.6087 -0.0978  0.2533
16475TIP3   OH270839   1.559   3.638  11.604  1.0099 -0.3411 -0.0991
16475TIP3    H170840   1.563   3.636  11.699  2.6555  1.6916 -0.0975
16475TIP3    H270841   1.511   3.558  11.580 -1.0607  0.0759  2.4840
16476TIP3   OH270842   5.406   2.088  17.065  0.2074 -0.3036 -0.1687
16476TIP3    H170843   5.429   2.178  17.086 -1.5239 -0.0018  0.5259
16476TIP3    H270844   5.409   2.083  16.970 -0.8560  0.7968 -0.2541
16477TIP3   OH270845   2.895   2.811  11.632 -0.3317  0.0763  0.0466
16477TIP3    H170846   2.959   2.837  11.565 -1.3415  1.3163 -0.4500
16477TIP3    H270847   2.936   2.836  11.715  0.4665 -0.5001 -0.1649
16478TIP3   OH270848   0.910   1.855  13.537  0.3082 -0.6417 -0.1349
16478TIP3    H170849   0.849   1.910  13.587  0.0922 -2.1601  1.3232
16478TIP3    H270850   0.986   1.846  13.594  0.0216 -2.4901 -0.0346
16479TIP3   OH270851   5.719   1.755  15.814  0.1026 -0.4031  0.1521
16479TIP3    H170852   5.787   1.794  15.868 -0.8167  1.0978  0.2352
16479TIP3    H270853   5.639   1.801  15.838 -0.3859  0.0613 -2.2571
16480TIP3   OH270854   6.113   3.040   4.430 -0.6183 -0.3348  0.4921
16480TIP3    H170855   6.095   3.131   4.452 -3.9329 -0.7782 -0.0261
16480TIP3    H270856   6.039   3.014   4.374 -1.2459 -4.0940  2.8133
16481TIP3   OH270857   5.461   3.556   6.661 -0.5162 -0.0525 -0.2725
16481TIP3    H170858   5.484   3.608   6.585 -0.5922  0.8527  0.3171
16481TIP3    H270859   5.374   3.588   6.687  0.6672  1.5645  1.8292
16482TIP3   OH270860   4.457   2.352   3.108  0.2058  0.2057 -0.1134
16482TIP3    H170861   4.433   2.394   3.025 -2.7181  0.2994  0.7037
16482TIP3    H270862   4.414   2.266   3.104 -0.4044  0.4163  1.4847
16483TIP3   OH270863   1.516   0.628   1.565 -0.1377 -0.4208 -0.2851
16483TIP3    H170864   1.553   0.666   1.485  1.6470 -1.2351  0.1254
16483TIP3    H270865   1.421   0.633   1.552  0.1158 -0.0048 -2.2059
16484TIP3   OH270866   5.170   5.197  13.673 -0.2446  0.5158  0.2827
16484TIP3    H170867   5.187   5.167  13.762 -2.9064 -0.9763  0.3360
16484TIP3    H270868   5.247   5.249  13.650  1.5192 -0.9586  2.6080
16485TIP3   OH270869   5.127   5.225  16.417 -0.5638 -0.0271  0.4072
16485TIP3    H170870   5.209   5.274  16.419 -0.7975  0.3443  1.0912
16485TIP3    H270871   5.061   5.289  16.390 -0.5615 -0.4344 -0.5974
16486TIP3   OH270872   3.450   3.850   4.841 -0.0023 -0.3136 -0.6595
16486TIP3    H170873   3.397   3.780   4.803  1.9908 -0.7915 -2.6805
16486TIP3    H270874   3.491   3.893   4.766  1.9891  0.4386  0.8014
16487TIP3   OH270875   3.291   5.793  17.158 -0.6188 -0.3846 -0.3998
16487TIP3    H170876   3.202   5.776  17.190 -0.3220 -2.3697 -0.5706
16487TIP3    H270877   3.279   5.812  17.065 -0.7507 -1.9644 -0.7199
16488TIP3   OH270878   6.517   4.132  11.485 -0.3257 -0.0858 -0.1223
16488TIP3    H170879   6.423   4.120  11.468 -0.3825 -0.4869  0.4866
16488TIP3    H270880   6.539   4.064  11.548  0.7506 -1.0959 -1.5378
16489TIP3   OH270881   3.120   6.083   4.481  0.4247 -0.3344  0.0523
16489TIP3    H170882   3.101   6.023   4.409 -2.3407 -1.0938  1.3456
16489TIP3    H270883   3.210   6.063   4.505  0.7757 -1.3382 -2.0027
16490TIP3   OH270884   2.378   6.113  13.703 -0.3255  1.0655 -0.2262
16490TIP3    H170885   2.455   6.170  13.712 -0.0306  0.9661 -1.9353
16490TIP3    H270886   2.384   6.079  13.614 -2.6046  1.4048 -0.5312
16491TIP3   OH270887   4.262   0.162  13.668  0.5649 -0.1893 -0.5494
16491TIP3    H170888   4.303   0.228  13.725 -0.3403  0.7108 -0.9236
16491TIP3    H270889   4.336   0.115  13.629  1.2121 -2.1892  2.8878
16492TIP3   OH270890   3.606   4.924  15.647  0.1102 -0.1201  0.3408
16492TIP3    H170891   3.620   4.957  15.736 -0.2823 -1.2035  0.8232
16492TIP3    H270892   3.605   5.002  15.592  0.3842  0.5637  1.2891
16493TIP3   OH270893   6.259   1.075   1.474 -0.5734 -0.1215 -0.1823
16493TIP3    H170894   6.328   1.018   1.438  0.5158  0.9129  0.2369
16493TIP3    H270895   6.248   1.143   1.407  0.2344  0.8327  0.6355
16494TIP3   OH270896   3.359   1.164  13.290  0.1719  0.4245 -0.1015
16494TIP3    H170897   3.455   1.159  13.299  0.1666 -0.5105 -0.5519
16494TIP3    H270898   3.326   1.115  13.365  0.0854 -2.3821 -1.9166
16495TIP3   OH270899   3.256   2.206   2.327  0.2313 -0.0674  0.0920
16495TIP3    H170900   3.194   2.179   2.395  0.9432 -0.5572  0.5489
16495TIP3    H270901   3.201   2.251   2.262 -0.8178 -1.6168 -0.1423
16496TIP3   OH270902   6.627   1.843  15.739  0.3990 -0.0543  0.2343
16496TIP3    H170903   6.652   1.768  15.684 -1.6381 -0.6183  0.0628
16496TIP3    H270904   6.677   1.916  15.703  0.0869 -0.6853 -1.5600
16497TIP3   OH270905   1.152   1.548   3.485 -0.2628  0.0438 -0.8129
16497TIP3    H170906   1.069   1.507   3.460 -0.8011  1.1056 -0.7748
16497TIP3    H270907   1.127   1.627   3.533  0.7722 -0.4328  0.5344
16498TIP3   OH270908   5.606   0.734  11.759  0.0287  0.1156  0.0895
16498TIP3    H170909   5.601   0.685  11.841  0.2189  0.2906  0.2050
16498TIP3    H270910   5.587   0.669  11.691 -0.7270  0.0989  0.3072
16499TIP3   OH270911   4.003   0.303  13.145  0.8462  0.0990  0.3458
16499TIP3    H170912   4.014   0.284  13.052 -1.2659 -1.6657  0.4437
16499TIP3    H270913   3.930   0.365  13.149  1.3415  0.6646  0.7926
16500TIP3   OH270914   6.708   0.454   0.356  0.2501 -0.3492  0.9441
16500TIP3    H170915   6.700   0.383   0.292  0.8955  0.4097 -0.0128
16500TIP3    H270916   6.769   0.420   0.422 -1.0461 -1.4385  1.5988
16501TIP3   OH270917   3.928   0.321  14.139 -0.2449 -0.2251 -0.2879
16501TIP3    H170918   3.956   0.230  14.139 -0.3783 -0.2678 -0.1009
16501TIP3    H270919   3.835   0.317  14.163 -0.5034 -0.1157 -1.2610
16502TIP3   OH270920   2.512   6.387   5.574  0.5899  0.2229 -0.0297
16502TIP3    H170921   2.525   6.463   5.631 -3.8951  0.0017  1.5259
16502TIP3    H270922   2.463   6.421   5.499 -0.4548 -0.8848  0.1359
16503TIP3   OH270923   2.166   4.346  16.785 -0.7480 -0.2203 -0.2702
16503TIP3    H170924   2.071   4.341  16.781 -0.8693  0.4440  1.3948
16503TIP3    H270925   2.189   4.303  16.868  0.4343 -0.6412 -0.7956
16504TIP3   OH270926   5.849   1.511  10.693 -0.3327  0.0849 -0.0247
16504TIP3    H170927   5.933   1.495  10.736 -0.9091 -0.2790  0.9811
16504TIP3    H270928   5.834   1.604  10.705 -0.5430 -0.0330  0.6817
16505TIP3   OH270929   3.591   3.698   4.217  0.2190  0.1351 -0.0160
16505TIP3    H170930   3.626   3.754   4.148 -1.7785  0.6296 -0.6410
16505TIP3    H270931   3.550   3.625   4.170 -0.1266 -0.1268  0.6833
16506TIP3   OH270932   3.552   0.533  14.965  0.6611 -0.0387 -0.0104
16506TIP3    H170933   3.485   0.553  14.900 -0.2549 -3.2363 -0.1386
16506TIP3    H270934   3.632   0.519  14.914  0.1951 -1.4293 -0.3954
16507TIP3   OH270935   2.289   2.367  15.459  0.4377 -0.1680  0.5224
16507TIP3    H170936   2.323   2.279  15.443 -3.2930 -1.5352 -0.3534
16507TIP3    H270937   2.279   2.405  15.371  0.2660  0.4458  0.8034
16508TIP3   OH270938   0.385   5.702  17.203 -0.2740  0.0171 -0.0844
16508TIP3    H170939   0.330   5.713  17.125 -0.6322 -1.0052  0.0106
16508TIP3    H270940   0.464   5.658  17.170 -0.5152 -0.6034  0.1605
16509TIP3   OH270941   2.903   1.326   3.466 -0.5534 -0.3871 -0.1692
16509TIP3    H170942   2.938   1.390   3.528  0.4128  0.1517 -1.2445
16509TIP3    H270943   2.878   1.251   3.520  0.6652 -0.0901  0.8206
16510TIP3   OH270944   5.422   6.456   3.664 -0.5146  0.3712 -0.0583
16510TIP3    H170945   5.368   6.516   3.716  0.2503  0.5572  0.5274
16510TIP3    H270946   5.422   6.374   3.713 -0.1679  0.4048 -0.0049
16511TIP3   OH270947   3.038   3.459   3.230 -0.0192  0.6869  0.0007
16511TIP3    H170948   3.077   3.423   3.309  0.6723 -0.1514 -0.7110
16511TIP3    H270949   2.954   3.495   3.258  0.5928  1.1371  1.2636
16512TIP3   OH270950   5.453   2.395  15.960 -0.0306 -0.1030  0.2761
16512TIP3    H170951   5.480   2.449  16.034  0.1842 -2.2716  1.8176
16512TIP3    H270952   5.447   2.457  15.886  1.0540  1.8444  1.7741
16513TIP3   OH270953   2.217   4.051  13.291 -0.5150  0.3248  0.5988
16513TIP3    H170954   2.297   4.013  13.254 -1.6236  0.5030 -2.0588
16513TIP3    H270955   2.159   3.977  13.304 -1.0464  0.5655 -0.3859
16514TIP3   OH270956   2.628   5.215  11.731  0.3238 -0.5295  0.2119
16514TIP3    H170957   2.619   5.304  11.699 -0.1098 -0.2702  1.0681
16514TIP3    H270958   2.715   5.212  11.770 -0.0013 -0.2431  0.9552
16515TIP3   OH270959   3.875   5.584  15.116  0.0099  0.3365  0.1985
16515TIP3    H170960   3.829   5.598  15.033  1.0984 -0.0907 -0.4880
16515TIP3    H270961   3.849   5.497  15.144 -0.2266  0.4139  0.2183
16516TIP3   OH270962   5.247   2.536  12.929 -0.5277  0.1460  0.0187
16516TIP3    H170963   5.235   2.519  12.836 -1.9640  0.9826  0.0332
16516TIP3    H270964   5.279   2.627  12.933 -1.2859  0.3995  0.3841
16517TIP3   OH270965   1.899   2.273  15.784  0.0358  0.3248 -0.4489
16517TIP3    H170966   1.857   2.264  15.870  0.5725 -1.7642 -0.3688
16517TIP3    H270967   1.835   2.318  15.730 -1.6204 -1.2322  0.1729
16518TIP3   OH270968   5.576   1.615  13.741 -0.4307  0.3877  0.7607
16518TIP3    H170969   5.501   1.581  13.693  0.5720 -1.1369  0.2168
16518TIP3    H270970   5.630   1.538  13.757  1.0837  1.4891  1.0244
16519TIP3   OH270971   1.457   1.987  12.998 -0.2323 -0.2099 -0.3735
16519TIP3    H170972   1.495   1.903  12.972  1.9540  1.1964 -1.9195
16519TIP3    H270973   1.378   1.995  12.945  1.0940 -0.0211 -2.4006
16520TIP3   OH270974   3.882   4.819   2.120 -0.1041 -0.5495 -0.2911
16520TIP3    H170975   3.909   4.881   2.188  0.7901  0.0118 -1.1673
16520TIP3    H270976   3.810   4.770   2.161 -0.6532  0.8896  0.4903
16521TIP3   OH270977   2.592   4.880  13.202  0.4982  0.3108  0.0837
16521TIP3    H170978   2.664   4.941  13.188  0.1273  0.2704 -2.2784
16521TIP3    H270979   2.618   4.801  13.153 -0.9049  0.1238 -0.3862
16522TIP3   OH270980   6.663   5.750   0.178  0.7233 -0.1229  0.2753
16522TIP3    H170981   6.714   5.670   0.169  1.8219  0.4257  1.4903
16522TIP3    H270982   6.702   5.811   0.115  1.0426  0.0372  0.6294
16523TIP3   OH270983   2.684   6.577   0.474  0.3638  0.2423  0.5597
16523TIP3    H170984   2.746   6.529   0.419  1.8818  1.7903  0.8485
16523TIP3    H270985   2.598   6.546   0.446  1.2376 -1.5466 -0.2493
16524TIP3   OH270986   2.580   5.601  13.161 -0.2453 -0.6156  0.2810
16524TIP3    H170987   2.620   5.671  13.110  0.2943 -1.6257 -0.6913
16524TIP3    H270988   2.491   5.594  13.127  0.0318 -1.1119 -0.3522
16525TIP3   OH270989   1.406   0.318   3.359 -0.1046  0.2561  0.0420
16525TIP3    H170990   1.346   0.245   3.374  0.9250 -0.5914  0.0721
16525TIP3    H270991   1.492   0.284   3.384  0.5157  1.1989 -0.7890
16526TIP3   OH270992   1.801   0.399   5.107 -0.9214 -0.0469  0.6972
16526TIP3    H170993   1.753   0.318   5.116  0.2655 -1.4129 -3.9231
16526TIP3    H270994   1.744   0.456   5.055 -0.9077  1.3532  2.1800
16527TIP3   OH270995   0.097   2.394  12.495 -0.8371 -0.5157  0.4179
16527TIP3    H170996   0.127   2.485  12.489 -2.1152 -0.0985  0.0925
16527TIP3    H270997   0.173   2.346  12.527  0.3240  0.4145 -0.8685
16528TIP3   OH270998   0.085   1.070  15.704  0.1653 -0.0666 -0.2680
16528TIP3    H170999   0.005   1.032  15.740 -0.7608  2.7720  0.8249
16528TIP3    H271000   0.110   1.010  15.634 -1.8536 -2.0223  0.5965
16529TIP3   OH271001   1.652   4.796  17.003 -0.1204  0.4240 -0.2453
16529TIP3    H171002   1.592   4.752  16.944  0.3049  1.5118 -1.5195
16529TIP3    H271003   1.619   4.885  17.009  1.3763  1.0429 -0.9964
16530TIP3   OH271004   5.661   1.063  14.664  0.6115  0.3477  0.1659
16530TIP3    H171005   5.681   1.088  14.573 -2.5401  1.5127 -0.2655
16530TIP3    H271006   5.617   0.979  14.656  1.5496 -0.2030  0.7507
16531TIP3   OH271007   1.782   6.099   3.788  0.3633  0.0056 -0.2192
16531TIP3    H171008   1.735   6.021   3.817 -0.9893  1.3836  1.4623
16531TIP3    H271009   1.767   6.163   3.858  0.4889  2.1179 -2.0574
16532TIP3   OH271010   1.868   4.197  15.283  0.7409 -0.2711  0.0633
16532TIP3    H171011   1.891   4.167  15.370  0.7648  0.4823  0.3234
16532TIP3    H271012   1.865   4.118  15.230  0.6020 -0.7429  0.7757
16533TIP3   OH271013   5.153   6.639  17.040  0.1727  0.1957 -0.0078
16533TIP3    H171014   5.090   6.582  16.995  0.5135  1.1675 -1.7752
16533TIP3    H271015   5.157   6.718  16.985  1.0949  1.1491  1.4103
16534TIP3   OH271016   0.397   3.512   4.656  0.2336 -0.1454 -0.4027
16534TIP3    H171017   0.305   3.489   4.669 -0.0145  1.5067  0.9808
16534TIP3    H271018   0.427   3.541   4.742  1.9218 -0.2385 -0.9423
16535TIP3   OH271019   3.114   5.580   1.436  0.2230  0.8511  0.0967
16535TIP3    H171020   3.171   5.657   1.437 -1.2194  1.9096  2.1088
16535TIP3    H271021   3.026   5.614   1.447 -0.2594 -1.2013  3.1998
16536TIP3   OH271022   6.640   4.819   1.300  0.0617 -0.0605 -0.0120
16536TIP3    H171023   6.571   4.847   1.361  1.3426 -0.7864  1.8093
16536TIP3    H271024   6.612   4.732   1.272 -0.1268 -0.0563  0.1563
16537TIP3   OH271025   6.463   2.086  15.167  0.4968  0.3661  0.0524
16537TIP3    H171026   6.520   2.154  15.203  0.9347  1.0685 -1.9112
16537TIP3    H271027   6.474   2.093  15.072 -1.5940 -0.5857 -0.2953
16538TIP3   OH271028   5.759   4.183   4.104  0.0275  0.3799  0.0223
16538TIP3    H171029   5.750   4.164   4.197 -0.8241 -0.5743 -0.2424
16538TIP3    H271030   5.687   4.134   4.063  0.2936  0.9301 -1.1109
16539TIP3   OH271031   2.528   1.927   5.622  0.1120 -0.4982 -0.0582
16539TIP3    H171032   2.512   1.853   5.680 -1.2906 -2.1724 -2.4710
16539TIP3    H271033   2.617   1.913   5.590 -0.4762 -1.6984 -1.2243
16540TIP3   OH271034   6.672   1.492   4.723 -0.2133  0.2147 -0.4265
16540TIP3    H171035   6.659   1.417   4.782  1.5450  0.8002  0.7298
16540TIP3    H271036   6.654   1.457   4.636 -1.1638 -1.0962  0.2719
16541TIP3   OH271037   6.671   4.088   2.870  0.3054 -0.9649  0.4137
16541TIP3    H171038   6.577   4.071   2.870 -0.1908  1.4556  3.3566
16541TIP3    H271039   6.690   4.115   2.780 -2.3147  0.9605  0.3967
16542TIP3   OH271040   4.076   0.885   5.749 -0.2535 -0.4664  0.5788
16542TIP3    H171041   4.056   0.883   5.843  2.1986  1.4441  1.1667
16542TIP3    H271042   4.030   0.962   5.717  2.4689  1.4443  1.1087
16543TIP3   OH271043   0.949   4.158   2.803 -0.3290  0.5796  0.3190
16543TIP3    H171044   0.980   4.233   2.854 -0.2551 -0.0580  1.2315
16543TIP3    H271045   0.871   4.190   2.758 -0.3729  1.1750  0.8140
16544TIP3   OH271046   2.000   1.545   1.249  0.2768 -0.3249 -0.1532
16544TIP3    H171047   2.081   1.570   1.292  0.6684 -1.1567 -0.3984
16544TIP3    H271048   2.027   1.519   1.160 -0.4625  0.9988 -0.7782
16545TIP3   OH271049   2.904   5.838  14.428  0.1963  0.2519 -0.1322
16545TIP3    H171050   2.950   5.793  14.499 -1.0814  1.3854  1.4446
16545TIP3    H271051   2.942   5.925  14.426  1.1800 -0.2099 -1.7656
16546TIP3   OH271052   3.800   6.704  13.605  0.1533 -0.3209  0.4657
16546TIP3    H171053   3.732   6.764  13.575 -1.7157 -1.5578  2.1251
16546TIP3    H271054   3.881   6.755  13.598 -1.1969  1.8858  0.4292
16547TIP3   OH271055   6.445   2.054  12.550 -0.3838 -0.7994 -0.2625
16547TIP3    H171056   6.421   1.993  12.620  0.2710 -1.2167 -0.3896
16547TIP3    H271057   6.535   2.080  12.572 -1.1657  1.2344  0.5722
16548TIP3   OH271058   1.565   2.353  17.217  0.2185 -0.2714  0.7990
16548TIP3    H171059   1.521   2.435  17.196  1.3123  0.2724  0.6143
16548TIP3    H271060   1.625   2.338  17.144  0.1541 -1.1555  0.9126
16549TIP3   OH271061   2.512   5.136   2.849  0.1760  0.4891  0.0957
16549TIP3    H171062   2.531   5.043   2.844 -0.0988  0.5341 -2.2155
16549TIP3    H271063   2.471   5.148   2.935  0.2120 -1.4940  0.4080
16550TIP3   OH271064   2.302   4.798   2.728 -0.1150 -0.0952  0.1279
16550TIP3    H171065   2.237   4.788   2.658 -1.6577  1.7039  1.2504
16550TIP3    H271066   2.273   4.738   2.797 -0.4916  0.5823  0.5612
16551TIP3   OH271067   3.380   0.241   1.167 -0.1948  0.1448 -0.5298
16551TIP3    H171068   3.310   0.218   1.106 -1.3403  0.3162  0.6937
16551TIP3    H271069   3.335   0.277   1.243  1.3019  1.6084 -0.2946
16552TIP3   OH271070   1.497   5.556   0.304 -0.2540  0.0755 -0.2153
16552TIP3    H171071   1.430   5.528   0.242 -1.8936  1.9274  0.6675
16552TIP3    H271072   1.564   5.597   0.249 -0.6976 -0.1484 -0.9340
16553TIP3   OH271073   6.717   4.152  16.330  0.5051 -0.1222  0.0698
16553TIP3    H171074   6.668   4.220  16.377 -0.1970 -0.1395 -0.6250
16553TIP3    H271075   6.745   4.091  16.397 -1.1095 -0.5271  0.3772
16554TIP3   OH271076   5.414   2.146  14.303 -0.6607  0.3803 -0.3446
16554TIP3    H171077   5.459   2.217  14.348 -0.7424 -0.2484  0.7435
16554TIP3    H271078   5.321   2.170  14.309 -0.5860  0.8995 -1.2358
16555TIP3   OH271079   0.819   3.563   4.665  0.7842  0.2816 -0.3121
16555TIP3    H171080   0.796   3.472   4.682  1.3054  0.5262  1.8349
16555TIP3    H271081   0.905   3.559   4.622  0.2903 -0.2764 -1.2560
16556TIP3   OH271082   2.667   4.654  13.056 -0.6632 -0.7851 -0.4268
16556TIP3    H171083   2.613   4.575  13.064 -0.1448 -0.9157  1.9662
16556TIP3    H271084   2.680   4.663  12.961 -1.7278 -2.8850 -0.8214
16557TIP3   OH271085   5.121   1.689   1.014  0.1341 -0.4480 -0.5190
16557TIP3    H171086   5.193   1.637   1.050  0.9431  0.4825 -0.7953
16557TIP3    H271087   5.159   1.774   0.995 -1.5600  0.7681  1.3880
16558TIP3   OH271088   3.414   6.625   1.660 -0.8156 -0.2898 -0.3243
16558TIP3    H171089   3.482   6.690   1.676 -0.7499 -0.3562 -0.3296
16558TIP3    H271090   3.338   6.676   1.630 -1.5610  0.0494  2.0530
16559TIP3   OH271091   5.676   5.073  10.743  0.1408  0.0394 -0.0745
16559TIP3    H171092   5.691   5.166  10.762 -1.0915  0.0778  0.7928
16559TIP3    H271093   5.696   5.063  10.650  3.7467  0.4254  0.5955
16560TIP3   OH271094   2.767   0.183  11.909 -0.3837 -0.4519 -0.2595
16560TIP3    H171095   2.716   0.128  11.968 -0.4027 -0.3655 -0.1960
16560TIP3    H271096   2.816   0.241  11.966 -1.4783  0.6016 -0.3596
16561TIP3   OH271097   5.592   2.608  16.117 -0.0436 -0.1698  0.3002
16561TIP3    H171098   5.551   2.692  16.095  0.2070 -0.5917 -1.9221
16561TIP3    H271099   5.683   2.618  16.088 -0.4526 -1.8054 -1.6802
16562TIP3   OH271100   5.568   2.548  14.803  0.4427 -0.1448  0.3173
16562TIP3    H171101   5.473   2.537  14.802  0.3667  0.2966  1.6268
16562TIP3    H271102   5.602   2.461  14.781 -0.2638  0.2802 -2.6332
16563TIP3   OH271103   3.108   5.708  13.218 -0.4055  0.4496 -0.0145
16563TIP3    H171104   3.071   5.747  13.297 -1.4532 -1.5637  0.5374
16563TIP3    H271105   3.032   5.674  13.170  0.2058  1.7101 -1.9434
16564TIP3   OH271106   4.715   2.579   5.045 -0.4796  0.2154 -0.2209
16564TIP3    H171107   4.663   2.504   5.016 -1.4876  0.1864  1.5873
16564TIP3    H271108   4.734   2.561   5.137  0.9376  1.2499 -0.2889
16565TIP3   OH271109   4.303   4.881  16.830 -0.3032  0.3078  0.4773
16565TIP3    H171110   4.268   4.794  16.849 -0.2054 -0.0933 -1.0810
16565TIP3    H271111   4.226   4.934  16.810 -0.2371  0.1365 -0.2405
16566TIP3   OH271112   0.497   5.796  16.503 -0.2013 -0.2055  0.6145
16566TIP3    H171113   0.441   5.860  16.459 -0.4152 -0.3386  0.6899
16566TIP3    H271114   0.571   5.847  16.536  0.3545 -0.2214 -0.5584
16567TIP3   OH271115   3.843   2.512  11.059 -0.3423  0.1841 -0.2489
16567TIP3    H171116   3.822   2.605  11.054  1.2992  0.6131  0.3104
16567TIP3    H271117   3.782   2.477  11.124  0.0672  1.2043  0.7038
16568TIP3   OH271118   0.009   2.141  15.036 -0.2356 -0.5184 -0.3641
16568TIP3    H171119  -0.024   2.225  15.003  0.2610 -0.4015 -0.5646
16568TIP3    H271120  -0.053   2.076  15.003  0.1922 -0.3900 -1.4304
16569TIP3   OH271121   0.824   1.042   6.505  0.8094 -0.5141 -0.0887
16569TIP3    H171122   0.806   1.126   6.547 -3.2882 -1.3948  0.1531
16569TIP3    H271123   0.865   1.065   6.422 -0.5810  1.7919 -0.1801
16570TIP3   OH271124   0.244   1.171   1.446  0.7265  0.3708  0.6622
16570TIP3    H171125   0.263   1.082   1.476  2.8589 -0.1157 -1.9687
16570TIP3    H271126   0.300   1.183   1.369 -2.5078  2.5478 -1.4507
16571TIP3   OH271127   6.035   5.300  14.019 -0.0570  0.9987 -0.1606
16571TIP3    H171128   5.996   5.388  14.028 -0.2633  0.8993 -0.0572
16571TIP3    H271129   6.126   5.316  13.998  0.0231  1.2436  0.3592
16572TIP3   OH271130   1.519   1.428   5.842 -0.0289  0.2195 -0.1924
16572TIP3    H171131   1.505   1.350   5.788  0.0072 -0.3882  0.6584
16572TIP3    H271132   1.433   1.470   5.846  0.2224  0.9046 -1.6756
16573TIP3   OH271133   4.549   3.191   4.317  0.3529 -0.1946  0.0277
16573TIP3    H171134   4.468   3.148   4.289  0.5086  0.6813 -1.8503
16573TIP3    H271135   4.597   3.207   4.236  3.2884 -2.3293  1.2126
16574TIP3   OH271136   6.455   5.352  12.110  0.6742  0.2280 -0.4354
16574TIP3    H171137   6.429   5.364  12.018  0.8388  0.4485 -0.4560
16574TIP3    H271138   6.379   5.311  12.151 -0.7911  3.2683  0.1034
16575TIP3   OH271139   3.140   6.682  16.741 -0.4511  0.3758  0.3249
16575TIP3    H171140   3.077   6.612  16.722  0.4005 -0.1201 -0.6779
16575TIP3    H271141   3.200   6.681  16.667 -0.2160  1.9353  0.4933
16576TIP3   OH271142   3.261   1.789   0.335 -0.2173  0.3858 -0.5990
16576TIP3    H171143   3.270   1.835   0.252 -0.1862 -2.9642 -2.5319
16576TIP3    H271144   3.166   1.782   0.349 -0.2245  1.7066  0.1403
16577TIP3   OH271145   5.610   1.796  13.929 -0.0783 -0.6368 -0.4896
16577TIP3    H171146   5.638   1.729  13.992  0.2446 -0.4619 -0.4480
16577TIP3    H271147   5.580   1.746  13.853 -3.2906 -0.9692  0.9218
16578TIP3   OH271148   4.510   1.047  10.685 -0.1822  0.1242 -0.1935
16578TIP3    H171149   4.477   1.065  10.597 -0.0077 -1.9848 -0.7294
16578TIP3    H271150   4.476   0.960  10.705  1.4678 -0.2688  0.9928
16579TIP3   OH271151   2.830   0.245   1.998  0.8484  0.5997  0.0875
16579TIP3    H171152   2.887   0.205   1.932  2.5132 -0.3559  2.0397
16579TIP3    H271153   2.841   0.339   1.985  2.2629  0.4188 -0.0879
16580TIP3   OH271154   5.243   3.104  13.477  0.6282 -0.4445  0.5934
16580TIP3    H171155   5.227   3.163  13.551  0.5987 -1.1542  1.1566
16580TIP3    H271156   5.296   3.033  13.514  1.6631 -0.1715 -0.3481
16581TIP3   OH271157   5.095   0.083   3.056 -0.1363  0.7073  0.3413
16581TIP3    H171158   5.099  -0.000   3.103 -1.6441  1.0134  1.0417
16581TIP3    H271159   5.022   0.072   2.995 -0.2854  1.4745  0.3749
16582TIP3   OH271160   6.102   3.121  11.751 -0.9104  0.3262  0.2437
16582TIP3    H171161   6.116   3.026  11.751  0.6865  0.5369  0.8462
16582TIP3    H271162   6.008   3.132  11.742 -1.1311 -1.3232  0.3982
16583TIP3   OH271163   5.776   2.767   2.713  0.0179  0.0761 -0.4253
16583TIP3    H171164   5.714   2.696   2.697  0.8226 -0.7762  0.1804
16583TIP3    H271165   5.773   2.820   2.633  0.0900 -1.1666 -1.2675
16584TIP3   OH271166   2.414   3.919   5.758  0.2905  0.4024 -0.6314
16584TIP3    H171167   2.399   3.941   5.850 -0.1391  1.3647 -0.9207
16584TIP3    H271168   2.502   3.951   5.740 -0.1285  1.4334 -0.9045
16585TIP3   OH271169   3.431   6.732  12.884 -0.3097 -0.0669 -0.1322
16585TIP3    H171170   3.395   6.643  12.891  1.0949 -0.7610 -1.4252
16585TIP3    H271171   3.355   6.789  12.882 -1.2671 -1.3426 -0.4371
16586TIP3   OH271172   2.227   3.573   0.698  0.0396  0.1091  0.2252
16586TIP3    H171173   2.230   3.493   0.750 -0.4260  0.5737  0.9704
16586TIP3    H271174   2.146   3.567   0.648  0.5110 -0.3602 -0.4916
16587TIP3   OH271175   1.202   6.749   3.193 -0.3768  0.3029  0.2459
16587TIP3    H171176   1.131   6.685   3.192 -1.0089  0.9972 -0.0665
16587TIP3    H271177   1.262   6.719   3.124 -0.3843 -0.2639  0.4835
16588TIP3   OH271178   4.069   5.850   2.220  0.3523 -0.0268  0.3050
16588TIP3    H171179   4.063   5.786   2.291  1.4876 -1.5893 -0.9701
16588TIP3    H271180   4.023   5.810   2.147 -1.4468  1.8877  0.3450
16589TIP3   OH271181   5.706   4.309  11.363 -0.0735  0.3478  0.7354
16589TIP3    H171182   5.636   4.360  11.322 -1.1869 -1.2727  0.5891
16589TIP3    H271183   5.688   4.315  11.457 -1.7918 -1.9584  0.5997
16590TIP3   OH271184   0.919   5.495  12.159  0.2594  0.1064 -0.2209
16590TIP3    H171185   0.841   5.507  12.105 -0.2565  2.3735  0.9695
16590TIP3    H271186   0.887   5.450  12.238  0.4446 -0.4068 -0.4385
16591TIP3   OH271187   0.756   3.854   5.221 -0.5408 -0.5132  0.4511
16591TIP3    H171188   0.770   3.762   5.199 -0.7433 -0.5672  0.5480
16591TIP3    H271189   0.843   3.887   5.245 -0.2846 -0.4169 -0.5754
16592TIP3   OH271190   4.407   1.913   2.339  0.1534  0.1315 -0.8566
16592TIP3    H171191   4.410   2.007   2.354 -2.2152  0.1217 -0.1833
16592TIP3    H271192   4.478   1.878   2.394  0.2244  1.3925 -0.1233
16593TIP3   OH271193   5.429   5.491   1.031  0.1699  0.2625  0.3196
16593TIP3    H171194   5.442   5.530   0.945  0.3693  1.9229  1.0702
16593TIP3    H271195   5.334   5.494   1.045  0.3145  2.4115  1.1901
16594TIP3   OH271196   4.671   4.708  13.506  0.2039  0.1144 -0.6464
16594TIP3    H171197   4.765   4.696  13.496  0.2979 -1.0924  1.5202
16594TIP3    H271198   4.662   4.765  13.582 -0.8531 -0.7092 -0.1438
16595TIP3   OH271199   2.599   1.791   1.322  0.2980 -0.2876 -0.0450
16595TIP3    H171200   2.694   1.803   1.318  0.2999  0.0384  0.9366
16595TIP3    H271201   2.564   1.852   1.258  0.6651  0.7178  0.7011
16596TIP3   OH271202   3.759   5.068   2.362  0.2563 -0.0823 -0.1470
16596TIP3    H171203   3.721   4.993   2.407  1.4336 -0.9713 -0.6216
16596TIP3    H271204   3.816   5.108   2.427 -0.8272  0.7687  0.2986
16597TIP3   OH271205   3.642   1.950   2.695  0.3554  0.3250 -0.2949
16597TIP3    H171206   3.726   1.995   2.685  1.2713 -1.3486 -0.4230
16597TIP3    H271207   3.633   1.937   2.789  0.1661  0.6448 -0.2694
16598TIP3   OH271208   4.647   4.037   6.523  0.2396 -0.2236  0.0477
16598TIP3    H171209   4.596   4.115   6.541 -0.8105 -0.9935  0.4615
16598TIP3    H271210   4.623   4.012   6.434 -1.4243 -1.5618  0.8541
16599TIP3   OH271211   1.426   5.997  12.834  0.0401  0.1792  0.0230
16599TIP3    H171212   1.388   5.923  12.880 -0.0372  0.3342  0.2097
16599TIP3    H271213   1.352   6.041  12.792  0.0464  0.3289  0.1666
16600TIP3   OH271214   2.383   5.496  14.801 -0.1632  0.0900 -0.2519
16600TIP3    H171215   2.324   5.426  14.772  0.6673  0.2446 -2.3675
16600TIP3    H271216   2.347   5.576  14.762  1.4032  0.1962 -1.5141
16601TIP3   OH271217   4.753   4.604  15.695  0.0848 -0.7856  0.1468
16601TIP3    H171218   4.708   4.657  15.761 -0.7444  0.6130 -1.5013
16601TIP3    H271219   4.776   4.666  15.626 -0.6748 -2.5236 -1.7129
16602TIP3   OH271220   1.710   1.097   3.965 -0.2961  0.0037  0.4208
16602TIP3    H171221   1.794   1.057   3.983 -0.4746  0.0665  1.4028
16602TIP3    H271222   1.708   1.176   4.019 -0.7236  0.3377 -0.0709
16603TIP3   OH271223   3.380   0.942   0.085  0.0440 -0.5831  0.6865
16603TIP3    H171224   3.404   0.873   0.147  1.9524 -1.6559 -1.2334
16603TIP3    H271225   3.454   1.002   0.085 -0.4883  0.0849  0.3603
16604TIP3   OH271226   6.706   2.395  11.900  0.4568  0.5103  0.3092
16604TIP3    H171227   6.650   2.327  11.937  1.3404 -0.2720  0.2050
16604TIP3    H271228   6.772   2.348  11.850  0.5309  1.4826 -0.5249
16605TIP3   OH271229   3.972   1.085  11.524  0.5214 -0.2618 -0.3676
16605TIP3    H171230   4.004   0.996  11.539  1.0025  0.1243  0.8977
16605TIP3    H271231   3.879   1.073  11.503  0.3848 -0.9972  0.6326
16606TIP3   OH271232   1.150   1.302   4.839 -0.0559  0.5041  0.4316
16606TIP3    H171233   1.071   1.261   4.876 -1.7693  2.0617 -1.3991
16606TIP3    H271234   1.182   1.238   4.775 -0.4215  0.2750  0.4752
16607TIP3   OH271235   6.624   4.497  13.957  0.5616 -0.0646  0.3141
16607TIP3    H171236   6.636   4.588  13.986  0.1679 -0.0157  0.3242
16607TIP3    H271237   6.713   4.462  13.952  0.8186  0.7192 -0.9283
16608TIP3   OH271238   4.613   4.680   6.322  0.2984  0.9850  0.1271
16608TIP3    H171239   4.634   4.630   6.243  1.7123 -0.1633  1.1936
16608TIP3    H271240   4.583   4.613   6.384  2.1057  1.4507  1.5433
16609TIP3   OH271241   1.504   5.097  11.719  0.3671  0.1082  0.3512
16609TIP3    H171242   1.499   5.147  11.638 -2.5447  1.0598  1.0931
16609TIP3    H271243   1.492   5.161  11.789 -2.1081 -1.3927  1.3577
16610TIP3   OH271244   5.351   6.672   5.560  0.6061 -0.8120 -0.2210
16610TIP3    H171245   5.277   6.672   5.499  0.4302 -1.5833 -0.0051
16610TIP3    H271246   5.415   6.731   5.520  0.1083 -0.5885 -0.6887
16611TIP3   OH271247   2.335   0.802  16.739  0.3279 -0.6256  0.5511
16611TIP3    H171248   2.318   0.734  16.674  2.1480  0.2457 -0.8928
16611TIP3    H271249   2.329   0.884  16.690  1.8063  0.0407  1.4436
16612TIP3   OH271250   4.510   2.975  11.112  0.2878  0.5451 -0.1443
16612TIP3    H171251   4.579   2.922  11.073 -0.1029 -0.2407  0.2265
16612TIP3    H271252   4.509   3.055  11.059  0.5210 -0.0382 -1.0497
16613TIP3   OH271253   0.917   4.085  10.623  0.0637  0.3834  0.0362
16613TIP3    H171254   0.823   4.099  10.616  0.0706 -0.0453 -0.9802
16613TIP3    H271255   0.943   4.054  10.537  1.4999  2.4578 -0.2988
16614TIP3   OH271256   4.274   1.142  11.412 -0.4364  0.4366 -0.4211
16614TIP3    H171257   4.216   1.148  11.337 -0.8452 -1.7492 -0.3108
16614TIP3    H271258   4.362   1.142  11.374 -0.6558 -1.5055 -1.0099
16615TIP3   OH271259   2.748   6.014   0.218 -0.2038 -0.3118 -0.2584
16615TIP3    H171260   2.704   6.009   0.303 -0.8197  0.2126 -0.5444
16615TIP3    H271261   2.770   5.923   0.197  0.4143 -0.3886  0.7021
16616TIP3   OH271262   0.928   5.344  12.842  0.3785  0.1830  0.0939
16616TIP3    H171263   0.902   5.319  12.931  0.8796 -3.5646 -0.7232
16616TIP3    H271264   0.845   5.358  12.796 -0.0944 -3.1658 -0.2049
16617TIP3   OH271265   3.926   1.554  12.338 -0.1014  0.2180  0.1789
16617TIP3    H171266   3.875   1.634  12.330  0.5323  0.4565 -1.8073
16617TIP3    H271267   3.933   1.539  12.432 -2.2491  1.1721  0.5324
16618TIP3   OH271268   1.690   4.878  16.004 -0.0135  0.6929 -0.2130
16618TIP3    H171269   1.619   4.931  15.967 -1.1947  0.9891  2.3645
16618TIP3    H271270   1.672   4.877  16.098  1.2372 -2.4893  0.0331
16619TIP3   OH271271   5.271   3.327   1.649 -0.1589  0.4312 -0.1723
16619TIP3    H171272   5.310   3.389   1.711  0.2958 -0.6277  0.6340
16619TIP3    H271273   5.179   3.321   1.676  0.2901 -0.8947  1.1708
16620TIP3   OH271274   0.082   6.241  12.627 -0.1899  0.1980  0.4030
16620TIP3    H171275   0.133   6.279  12.699  0.2279 -0.7255  0.5982
16620TIP3    H271276   0.010   6.195  12.670  0.8883 -1.6095  0.3272
16621TIP3   OH271277   1.372   6.248  12.125  0.3397  0.1372  1.0182
16621TIP3    H171278   1.436   6.319  12.122 -1.3028  1.5776 -1.6078
16621TIP3    H271279   1.388   6.199  12.044 -1.7217  0.3987  0.4295
16622TIP3   OH271280   1.372   4.722   5.844 -0.1943 -0.2125 -0.0350
16622TIP3    H171281   1.345   4.801   5.891 -0.4662 -0.2722 -0.0863
16622TIP3    H271282   1.437   4.682   5.901 -2.7907 -1.9460  1.8406
16623TIP3   OH271283   3.103   5.921   0.513  0.2781 -0.5667  0.0912
16623TIP3    H171284   3.148   5.971   0.581  1.3931 -1.1146 -0.2255
16623TIP3    H271285   3.128   5.964   0.431 -0.4060 -0.3994 -0.0309
16624TIP3   OH271286   0.136   2.040   6.101 -0.5349 -0.4490  0.5949
16624TIP3    H171287   0.084   2.010   6.175 -0.7643 -3.5024 -0.7417
16624TIP3    H271288   0.073   2.084   6.044 -0.4597  1.3961  1.8826
16625TIP3   OH271289   4.417   1.474   5.633  0.5596 -0.1794 -0.4814
16625TIP3    H171290   4.481   1.529   5.588  0.4642  0.6333  0.3703
16625TIP3    H271291   4.435   1.385   5.600  1.5951  0.1534 -0.8476
16626TIP3   OH271292   3.906   4.055   0.647 -0.0602  0.1862 -0.3802
16626TIP3    H171293   3.905   4.007   0.730 -0.7556 -0.3418 -0.6948
16626TIP3    H271294   3.835   4.119   0.656  1.7862  2.1682  0.6215
16627TIP3   OH271295   6.032   1.835  11.987 -0.2206 -0.5423  0.4616
16627TIP3    H171296   6.010   1.760  12.042 -0.9465 -0.6936 -0.0216
16627TIP3    H271297   6.127   1.830  11.976 -0.3745 -1.9247 -0.3285
16628TIP3   OH271298   3.793   3.056   5.209  0.2646 -0.9751 -0.2064
16628TIP3    H171299   3.838   3.032   5.290  1.2988  0.6648 -0.2789
16628TIP3    H271300   3.703   3.073   5.236  0.6385 -0.2947  0.6314
16629TIP3   OH271301   0.926   3.208   0.858 -0.3258  0.3545 -0.3946
16629TIP3    H171302   0.931   3.262   0.779  0.8568 -0.5045 -0.9231
16629TIP3    H271303   0.834   3.213   0.884 -0.8821  0.1429 -2.1973
16630TIP3   OH271304   3.600   5.432   5.176 -0.0346 -0.6569  0.4748
16630TIP3    H171305   3.667   5.476   5.125 -0.6793  1.1373  1.1333
16630TIP3    H271306   3.648   5.373   5.234  0.8968 -0.0548  0.3085
16631TIP3   OH271307   2.592   6.596  14.923 -0.3725  0.6097  0.3979
16631TIP3    H171308   2.502   6.583  14.891  0.6532 -1.8624 -1.6513
16631TIP3    H271309   2.628   6.664  14.866 -0.5710  0.7935  0.4890
16632TIP3   OH271310   5.491   2.196   1.501  0.2210  0.1160 -0.1322
16632TIP3    H171311   5.424   2.158   1.444  1.1610 -1.8498  0.0189
16632TIP3    H271312   5.573   2.159   1.469  1.1063  1.6164  0.3875
16633TIP3   OH271313   5.092   6.196   2.322  0.1597 -0.1069  0.3108
16633TIP3    H171314   5.154   6.128   2.347  0.9640  0.8026  0.8380
16633TIP3    H271315   5.012   6.149   2.300  0.9886 -1.2814 -0.2195
16634TIP3   OH271316   6.458   2.838  13.386 -0.3551 -0.9616 -0.3439
16634TIP3    H171317   6.428   2.831  13.296 -0.8576 -0.0381 -0.2487
16634TIP3    H271318   6.537   2.783  13.389  0.5497  0.2425 -1.7292
16635TIP3   OH271319   3.913   0.311   2.511  0.2115  0.0826 -0.0085
16635TIP3    H171320   3.928   0.390   2.563 -0.2170 -1.0160  1.8372
16635TIP3    H271321   3.820   0.315   2.487  0.9575  1.8461 -2.9040
16636TIP3   OH271322   6.020   2.588  15.899 -0.3405 -0.1825  0.0162
16636TIP3    H171323   5.944   2.646  15.904 -0.1550  0.1604 -1.0122
16636TIP3    H271324   5.985   2.506  15.863 -0.0538  0.3109 -1.4301
16637TIP3   OH271325   1.419   2.293   3.694  0.9907 -0.6882  0.4363
16637TIP3    H171326   1.446   2.328   3.609 -1.8421 -2.8535 -1.4621
16637TIP3    H271327   1.475   2.217   3.707  3.3214  1.2124  1.8981
16638TIP3   OH271328   0.357   1.433  15.249 -0.4746 -0.3730 -0.0960
16638TIP3    H171329   0.394   1.421  15.162  1.3719  1.2308  0.4287
16638TIP3    H271330   0.433   1.452  15.305 -1.7354 -0.4162  1.6706
16639TIP3   OH271331   0.403   5.900  14.922  0.4983  0.3156 -0.6138
16639TIP3    H171332   0.475   5.884  14.862  0.1486  0.4865 -1.0784
16639TIP3    H271333   0.400   5.996  14.930  0.7784  0.2839 -0.0351
16640TIP3   OH271334   1.292   1.247  16.760 -0.4870 -0.2691  0.7767
16640TIP3    H171335   1.212   1.293  16.787 -0.7589 -1.0670  1.3504
16640TIP3    H271336   1.288   1.245  16.665 -0.1540  1.4609  0.6990
16641TIP3   OH271337   1.626   4.747   4.773  0.5476  0.6441 -0.0493
16641TIP3    H171338   1.578   4.770   4.853 -1.7191 -0.4039 -1.0508
16641TIP3    H271339   1.709   4.793   4.781  0.9467 -0.5428  3.5724
16642TIP3   OH271340   0.843   5.814   1.407 -0.5819  0.0664  0.2757
16642TIP3    H171341   0.805   5.884   1.461 -2.6914  0.2661 -1.4251
16642TIP3    H271342   0.811   5.831   1.319  0.4467 -1.9662 -0.5190
16643TIP3   OH271343   1.303   0.590   6.463  0.1342 -0.0521  0.5017
16643TIP3    H171344   1.385   0.548   6.435 -0.7321 -2.2008  1.1062
16643TIP3    H271345   1.326   0.683   6.472  2.2832 -0.4857 -0.1747
16644TIP3   OH271346   1.448   4.450  17.186  0.2191  0.5535  0.0806
16644TIP3    H171347   1.445   4.378  17.122 -1.0909  0.0373  0.7120
16644TIP3    H271348   1.532   4.439  17.230  0.4804  0.0321 -0.5371
16645TIP3   OH271349   2.004   1.835  14.185  0.1551  0.2466  0.4106
16645TIP3    H171350   2.004   1.895  14.259  0.5198  0.0681  0.5592
16645TIP3    H271351   2.044   1.755  14.219 -2.1214 -0.7799  0.7644
16646TIP3   OH271352   4.956   0.543  11.758  0.2171  0.3930  0.3361
16646TIP3    H171353   4.898   0.502  11.822  1.1459 -1.2578  0.1530
16646TIP3    H271354   4.897   0.590  11.698 -0.9553 -1.3764  0.0522
16647TIP3   OH271355   0.533   5.912   2.329 -0.3585 -0.1552 -0.4502
16647TIP3    H171356   0.490   5.837   2.369 -1.1171  0.2868 -0.4258
16647TIP3    H271357   0.568   5.963   2.402  0.8161 -0.8683 -0.5019
16648TIP3   OH271358   4.092   3.141   1.565  0.1618  0.4049  0.0276
16648TIP3    H171359   4.162   3.129   1.629 -0.8265  0.0701  1.0728
16648TIP3    H271360   4.053   3.054   1.555 -0.0073  0.5553 -0.6617
16649TIP3   OH271361   1.191   0.260   3.129 -0.1344 -0.4133 -0.4225
16649TIP3    H171362   1.287   0.263   3.130 -0.1655  0.3186  0.8952
16649TIP3    H271363   1.170   0.167   3.134  0.4980 -0.6321 -1.4738
16650TIP3   OH271364   5.392   5.952  13.707  0.1590  0.1221  0.2882
16650TIP3    H171365   5.472   5.942  13.655 -0.0925  3.0864 -0.7778
16650TIP3    H271366   5.343   5.871  13.692  1.7790 -0.6209 -1.1531
16651TIP3   OH271367   0.842   6.038   4.150 -0.4022  0.1147 -0.3111
16651TIP3    H171368   0.879   5.955   4.120 -0.6764 -0.3504  0.6218
16651TIP3    H271369   0.760   6.013   4.192 -1.8059  1.1250 -2.3572
16652TIP3   OH271370   5.928   1.720   0.316 -0.2154 -0.0235 -0.1849
16652TIP3    H171371   5.902   1.706   0.225 -0.8769  0.1382 -0.0227
16652TIP3    H271372   5.970   1.637   0.341 -1.7364 -0.7820 -0.0580
16653TIP3   OH271373   3.978   3.196   0.896 -0.0428 -0.1439 -0.0571
16653TIP3    H171374   3.912   3.138   0.934 -2.2480  1.4810 -1.2776
16653TIP3    H271375   3.954   3.201   0.803  1.3284  1.1027 -0.3568
16654TIP3   OH271376   0.949   2.379   2.080  0.6585 -0.3534  0.5245
16654TIP3    H171377   1.005   2.396   2.156  0.3503  1.4135  0.3683
16654TIP3    H271378   0.881   2.446   2.084 -0.9813 -1.9554  0.2301
16655TIP3   OH271379   0.435   1.761   6.937 -0.1366  0.2816 -0.3712
16655TIP3    H171380   0.506   1.814   6.901 -0.1678  2.0085  1.9822
16655TIP3    H271381   0.355   1.805   6.909 -0.2304 -0.1661 -0.8152
16656TIP3   OH271382   0.378   5.753   4.394 -0.5239 -0.5762 -0.1465
16656TIP3    H171383   0.452   5.708   4.434 -0.7539 -0.1250  0.7913
16656TIP3    H271384   0.302   5.701   4.421 -0.7377  0.0693  0.5131
16657TIP3   OH271385   0.485   0.390  13.105  0.1257  0.0985  0.6791
16657TIP3    H171386   0.400   0.361  13.137 -0.2971  0.3252 -0.2245
16657TIP3    H271387   0.548   0.334  13.149 -0.5944 -1.1422  0.1431
16658TIP3   OH271388   5.988   4.767  12.195  0.2014  0.3044  0.1430
16658TIP3    H171389   6.041   4.847  12.190 -1.4253  1.4636  1.0061
16658TIP3    H271390   5.950   4.758  12.107  0.9622  0.0699 -0.1672
16659TIP3   OH271391   1.395   5.724   5.830  0.1773 -0.0798 -0.3573
16659TIP3    H171392   1.473   5.760   5.788 -0.0897 -0.0742 -0.8513
16659TIP3    H271393   1.387   5.635   5.793 -0.8015  0.3868 -1.3173
16660TIP3   OH271394   6.281   2.117  11.847  0.1154 -0.2462  0.1342
16660TIP3    H171395   6.251   2.177  11.778 -0.4744 -1.4036 -0.6212
16660TIP3    H271396   6.270   2.030  11.810 -2.6675 -1.0285  2.6174
16661TIP3   OH271397   1.502   2.052  14.654  0.1539  0.5932 -0.3102
16661TIP3    H171398   1.570   2.088  14.710  0.7820 -1.4805  0.3159
16661TIP3    H271399   1.515   2.095  14.570  0.1251  2.6602  0.6989
16662TIP3   OH271400   6.242   5.998  11.459 -0.2021 -0.2478 -0.8468
16662TIP3    H171401   6.267   5.915  11.417 -1.6436 -0.7398 -0.7836
16662TIP3    H271402   6.323   6.049  11.463  0.3363 -0.9544 -2.4991
16663TIP3   OH271403   3.185   6.160   3.880 -0.8535 -0.6746  0.0058
16663TIP3    H171404   3.242   6.159   3.803  0.4532  2.1938  0.8575
16663TIP3    H271405   3.143   6.246   3.877 -1.8530 -1.0892  1.7486
16664TIP3   OH271406   5.807   1.929  15.606 -0.0947  0.4992  0.2789
16664TIP3    H171407   5.901   1.915  15.592 -0.0383  1.5823 -0.4985
16664TIP3    H271408   5.777   1.849  15.648  0.9775 -0.2729 -0.4029
16665TIP3   OH271409   0.970   2.937   2.597 -0.0348  0.3178  0.5671
16665TIP3    H171410   0.964   2.842   2.586 -1.3554  0.5188 -0.4403
16665TIP3    H271411   1.022   2.966   2.522 -1.0273  0.5866 -0.0120
16666TIP3   OH271412   3.364   2.625  16.038 -0.0878  0.3476 -0.7767
16666TIP3    H171413   3.356   2.609  15.944  0.2500 -0.1860 -0.7200
16666TIP3    H271414   3.455   2.650  16.050 -0.2004  0.6850 -0.6290
16667TIP3   OH271415   2.424   0.996   2.600 -0.2344  0.4687 -0.0124
16667TIP3    H171416   2.478   0.933   2.552 -0.4589  2.0115 -2.3892
16667TIP3    H271417   2.338   0.956   2.603  0.0523 -0.1439  0.0830
16668TIP3   OH271418   1.897   5.221  17.184 -0.2043  0.1538  0.1225
16668TIP3    H171419   1.818   5.172  17.160 -1.4593  2.0790  0.2089
16668TIP3    H271420   1.959   5.203  17.114 -0.0644 -2.7990  0.9377
16669TIP3   OH271421   1.698   2.078   4.983 -0.6870 -0.1027  0.6155
16669TIP3    H171422   1.763   2.040   5.043 -0.3044  1.2172  1.0566
16669TIP3    H271423   1.694   2.170   5.008 -1.1714  0.2738 -0.8198
16670TIP3   OH271424   6.398   2.453  16.971  0.0446  0.1002 -0.0772
16670TIP3    H171425   6.445   2.536  16.977  3.4394 -1.7689  0.1364
16670TIP3    H271426   6.359   2.441  17.058  1.9658  0.1363  0.8173
16671TIP3   OH271427   4.560   2.218  10.791 -0.2163 -0.3561  0.2330
16671TIP3    H171428   4.638   2.180  10.832 -1.0137 -4.4045 -1.6767
16671TIP3    H271429   4.488   2.162  10.821 -2.0772  1.9883  0.2224
16672TIP3   OH271430   0.828   0.360   2.234 -0.5560  0.3366  0.6604
16672TIP3    H171431   0.808   0.454   2.240 -0.4832  0.3056  1.3660
16672TIP3    H271432   0.755   0.324   2.182  0.2121  1.0289 -0.9231
16673TIP3   OH271433   5.330   2.529   2.799 -0.1966  0.1441  0.4067
16673TIP3    H171434   5.387   2.529   2.876  1.1947  1.0924 -0.6154
16673TIP3    H271435   5.247   2.565   2.831  0.2217  0.1049  1.5529
16674TIP3   OH271436   0.366   1.400  16.121  0.0603 -0.0434 -0.0197
16674TIP3    H171437   0.420   1.362  16.190 -0.6818  2.1227  1.8201
16674TIP3    H271438   0.420   1.470  16.083 -0.7145  0.8760  0.5466
16675TIP3   OH271439   4.888   4.710   3.197 -0.6999  0.4662  0.6209
16675TIP3    H171440   4.883   4.704   3.292 -1.4855 -1.7641  0.4743
16675TIP3    H271441   4.916   4.800   3.180  3.2473 -0.1716  3.0800
16676TIP3   OH271442   2.787   4.819  13.499 -0.1617  0.1978 -0.5028
16676TIP3    H171443   2.726   4.756  13.536 -0.1018  0.7393  0.5349
16676TIP3    H271444   2.734   4.897  13.483  0.5306  1.2249  1.8837
16677TIP3   OH271445   0.554   2.737  13.419  0.0564 -0.6631 -0.2337
16677TIP3    H171446   0.638   2.740  13.464  0.4598  0.6443 -1.0332
16677TIP3    H271447   0.567   2.790  13.340 -1.1217 -1.5583 -1.0463
16678TIP3   OH271448   3.123   2.756  11.488  0.3031  0.3488  0.2987
16678TIP3    H171449   3.178   2.688  11.448  0.0625 -0.2184  0.9306
16678TIP3    H271450   3.086   2.803  11.413 -0.7151 -1.1732 -0.1678
16679TIP3   OH271451   6.721   4.857  15.201  0.3923 -0.0296  0.0809
16679TIP3    H171452   6.793   4.801  15.230  1.2508  0.0590 -1.7942
16679TIP3    H271453   6.762   4.942  15.184  0.0902 -0.2946 -2.1202
16680TIP3   OH271454   3.740   4.484   4.071  0.4605  0.2687  0.2990
16680TIP3    H171455   3.687   4.562   4.090  0.5254  0.1062  1.1893
16680TIP3    H271456   3.827   4.519   4.053  0.3737  0.4392  0.2091
16681TIP3   OH271457   5.865   6.357  14.850  0.4965  0.1444 -0.0522
16681TIP3    H171458   5.832   6.371  14.938  0.3124  0.0940 -0.1125
16681TIP3    H271459   5.961   6.361  14.859  0.4695  0.4824  0.0902
16682TIP3   OH271460   2.688   3.513  11.998 -0.1421 -0.4127  0.0891
16682TIP3    H171461   2.752   3.513  12.069 -0.1283  0.7271  0.0874
16682TIP3    H271462   2.727   3.568  11.930 -2.0518  2.1633  0.9698
16683TIP3   OH271463   6.004   1.079  13.050 -0.3042  0.5200 -0.7809
16683TIP3    H171464   5.939   1.016  13.081  0.8029  0.3568  1.3011
16683TIP3    H271465   6.089   1.037  13.067  0.4844  2.7007  1.1174
16684TIP3   OH271466   1.047   3.435   1.038 -0.4149  0.1552  0.0509
16684TIP3    H171467   0.960   3.402   1.061 -1.4926  1.8909 -1.4261
16684TIP3    H271468   1.030   3.515   0.989  2.0321  0.4047 -0.4392
16685TIP3   OH271469   5.193   5.179  16.979 -0.2725  0.0593  0.0614
16685TIP3    H171470   5.231   5.241  16.916 -1.2922  0.0825 -0.5560
16685TIP3    H271471   5.146   5.116  16.925 -1.4600  0.2752  0.7961
16686TIP3   OH271472   6.778   3.724  13.857 -0.2180  0.1398  0.4695
16686TIP3    H171473   6.833   3.667  13.910 -2.6969 -1.8567  0.9791
16686TIP3    H271474   6.808   3.709  13.767 -0.9028 -2.0791  0.5840
16687TIP3   OH271475   3.732   5.354  11.254  0.3582 -0.0087 -0.4814
16687TIP3    H171476   3.761   5.432  11.208  0.5151  0.7144  0.8017
16687TIP3    H271477   3.687   5.388  11.332 -0.9698 -1.1653 -0.7248
16688TIP3   OH271478   4.698   1.905  10.824 -0.0337 -0.5438 -0.4608
16688TIP3    H171479   4.699   1.982  10.882  0.1740 -0.3354 -0.7386
16688TIP3    H271480   4.762   1.926  10.756 -0.6926 -0.5511 -1.0755
16689TIP3   OH271481   5.878   5.567  13.735  0.3010 -0.5822 -0.0212
16689TIP3    H171482   5.940   5.562  13.808 -0.6804  0.3482  0.8806
16689TIP3    H271483   5.792   5.554  13.775 -0.1998 -0.6373 -1.0907
16690TIP3   OH271484   0.741   6.463   5.391 -0.6260  0.3932  0.6617
16690TIP3    H171485   0.736   6.468   5.296 -1.5890 -1.2759  0.6108
16690TIP3    H271486   0.715   6.373   5.412 -2.1209  1.2318  2.6038
16691TIP3   OH271487   4.522   5.581   2.306  0.5415  0.4336  0.1428
16691TIP3    H171488   4.533   5.623   2.391  2.1077  1.4239 -0.5137
16691TIP3    H271489   4.583   5.628   2.248 -0.2300 -0.4554 -1.4335
16692TIP3   OH271490   1.250   3.201   0.474 -0.0132 -0.2365  0.4879
16692TIP3    H171491   1.178   3.218   0.414  1.9322  1.0052 -1.5207
16692TIP3    H271492   1.274   3.110   0.457 -0.0194 -0.1496  0.0295
16693TIP3   OH271493   5.013   3.653  11.293  0.1577 -0.0405  0.1122
16693TIP3    H171494   5.094   3.603  11.282  1.2970  2.0352 -1.2018
16693TIP3    H271495   4.996   3.691  11.207 -2.1665 -0.3621  0.4019
16694TIP3   OH271496   4.735   0.045  10.698  0.3142 -0.0491  0.5522
16694TIP3    H171497   4.799   0.093  10.645 -1.9222  2.2840 -0.1146
16694TIP3    H271498   4.651   0.066  10.658 -0.9677 -2.3117  2.0053
16695TIP3   OH271499   3.879   3.947  12.837 -0.4403 -0.1669  0.4633
16695TIP3    H171500   3.939   4.002  12.887 -0.1251 -0.9363  0.9409
16695TIP3    H271501   3.835   3.893  12.904  0.1390 -1.3540 -0.1013
16696TIP3   OH271502   1.914   5.229  13.055 -0.2020  0.1618 -0.3193
16696TIP3    H171503   1.821   5.243  13.039 -0.4153 -1.8624 -0.9340
16696TIP3    H271504   1.957   5.257  12.975 -0.5248 -1.4356 -1.0719
16697TIP3   OH271505   1.934   1.801   6.669 -0.0478 -0.5865  0.0330
16697TIP3    H171506   2.013   1.748   6.653  0.0360 -0.6723  0.7234
16697TIP3    H271507   1.877   1.782   6.594  1.2044  0.6521 -1.2747
16698TIP3   OH271508   4.259   0.928  16.639  0.0010 -0.3624 -0.2329
16698TIP3    H171509   4.203   0.902  16.712  1.3464  0.4617  1.1174
16698TIP3    H271510   4.204   0.985  16.585 -0.3975  0.5771  1.1683
16699TIP3   OH271511   5.451   5.293   0.019  0.1101 -0.4423  0.5483
16699TIP3    H171512   5.469   5.199   0.007  0.3404 -0.3452  0.1164
16699TIP3    H271513   5.457   5.329  -0.069 -2.0094 -0.3703  0.4172
16700TIP3   OH271514   1.000   5.577   0.310 -0.0845  0.4429  0.4019
16700TIP3    H171515   1.087   5.611   0.331  0.2074  1.3705 -2.1302
16700TIP3    H271516   0.987   5.599   0.218 -3.1631  0.6513  0.8096
16701TIP3   OH271517   1.136   0.156   4.904 -0.0296  0.2216  0.2524
16701TIP3    H171518   1.062   0.110   4.944  0.3204 -0.5389  0.0360
16701TIP3    H271519   1.213   0.107   4.932  0.2947  0.2903 -0.5105
16702TIP3   OH271520   1.165   4.937  12.181  0.2220  0.0064  0.3374
16702TIP3    H171521   1.074   4.932  12.209  0.2706 -0.0803  0.4767
16702TIP3    H271522   1.182   4.854  12.137  0.2285  0.0298  0.2957
16703TIP3   OH271523   3.045   0.891   6.141 -0.2986 -0.5388  0.6151
16703TIP3    H171524   3.027   0.843   6.222  0.1153  0.3893  1.2623
16703TIP3    H271525   3.007   0.837   6.072 -0.1800 -1.6030  1.3754
16704TIP3   OH271526   2.394   5.090  11.690 -0.0339 -0.4441 -0.2503
16704TIP3    H171527   2.355   5.138  11.616 -0.4761 -1.4990 -0.7086
16704TIP3    H271528   2.484   5.122  11.694 -0.2231  0.1744 -0.7707
16705TIP3   OH271529   6.598   4.191   1.291  0.1748  0.5570  0.3748
16705TIP3    H171530   6.639   4.237   1.364  2.4956  0.0291 -0.5409
16705TIP3    H271531   6.623   4.242   1.214  0.6084 -0.7791 -0.3843
16706TIP3   OH271532   6.509   0.575  11.902 -0.1642 -0.4468 -0.1679
16706TIP3    H171533   6.428   0.623  11.885 -0.2363 -1.1548 -1.8699
16706TIP3    H271534   6.541   0.549  11.816  1.5716 -0.6968  0.5256
16707TIP3   OH271535   4.186   3.464  15.124  0.1482 -0.1378  0.5886
16707TIP3    H171536   4.276   3.454  15.153  0.5823  1.5958 -0.0724
16707TIP3    H271537   4.153   3.540  15.172 -0.2574  0.5584 -0.7450
16708TIP3   OH271538   2.168   2.016  12.061  0.0927 -0.4593  0.9603
16708TIP3    H171539   2.261   2.038  12.055  0.3035 -1.4149  0.6879
16708TIP3    H271540   2.162   1.951  12.131 -0.4515  0.0340  1.3752
16709TIP3   OH271541   1.274   4.052  17.125 -0.3162  0.4849  0.4567
16709TIP3    H171542   1.339   4.020  17.188 -0.0720 -0.6005 -0.3465
16709TIP3    H271543   1.213   4.103  17.178  0.3469  0.2624  1.4466
16710TIP3   OH271544   4.387   5.932  17.044 -0.1181 -0.1719 -0.2071
16710TIP3    H171545   4.413   5.947  17.135  1.5779 -0.7815 -0.5610
16710TIP3    H271546   4.297   5.963  17.039 -0.2224 -0.1060  1.6765
16711TIP3   OH271547   5.390   1.962  10.960  0.0356  0.3741  0.4451
16711TIP3    H171548   5.465   1.998  10.912  0.5928  0.3252  1.2838
16711TIP3    H271549   5.339   2.039  10.985  0.6644  0.5275  1.2943
16712TIP3   OH271550   4.495   5.500  10.974 -0.0661 -0.1644 -0.2456
16712TIP3    H171551   4.431   5.469  10.909 -1.0807  1.9799 -0.3037
16712TIP3    H271552   4.461   5.585  11.003  1.9947  0.3342  0.8174
16713TIP3   OH271553   3.652   1.436  15.374 -0.3544 -0.6606  0.2398
16713TIP3    H171554   3.722   1.404  15.317 -1.3685 -0.7415 -1.0051
16713TIP3    H271555   3.658   1.383  15.453  0.3982 -1.3055 -0.2405
16714TIP3   OH271556   4.743   5.272   0.926 -0.2602  0.4365 -0.6134
16714TIP3    H171557   4.710   5.353   0.965  0.7056  1.2626 -1.4963
16714TIP3    H271558   4.837   5.272   0.946 -0.0381  0.1267 -1.6229
16715TIP3   OH271559   5.196   3.252   3.389  0.3837 -0.9669 -0.3774
16715TIP3    H171560   5.209   3.165   3.352  3.6470 -0.8326  0.3728
16715TIP3    H271561   5.238   3.250   3.474 -1.1671  0.8031  0.4828
16716TIP3   OH271562   0.848   0.554  16.005  0.2789  0.3484  0.2235
16716TIP3    H171563   0.929   0.503  16.004 -1.4230 -2.4432  0.0786
16716TIP3    H271564   0.866   0.628  15.947  2.6743 -0.3157  0.0698
16717TIP3   OH271565   0.099   3.683   3.647 -0.5071  0.1022 -0.7462
16717TIP3    H171566   0.018   3.692   3.698 -0.3289  0.6896 -0.5529
16717TIP3    H271567   0.115   3.772   3.614  0.9739  0.3624  0.6373
16718TIP3   OH271568   0.370   0.361  13.454 -0.0086 -0.1864 -0.5827
16718TIP3    H171569   0.277   0.353  13.477 -0.1580  0.0578 -1.0991
16718TIP3    H271570   0.416   0.308  13.519 -0.4407  0.4487  0.2494
16719TIP3   OH271571   2.083   2.407   3.285 -0.4098  0.2818 -0.3874
16719TIP3    H171572   2.053   2.454   3.364 -1.8416 -0.4037 -0.5108
16719TIP3    H271573   2.031   2.445   3.214 -1.1550 -1.0906 -0.5734
16720TIP3   OH271574   3.751   4.350  16.370  0.7321 -0.2184 -0.2427
16720TIP3    H171575   3.706   4.419  16.418  1.8272 -0.8641  1.7954
16720TIP3    H271576   3.688   4.277  16.367  0.7182 -0.2293  0.3618
16721TIP3   OH271577   0.496   2.442   4.402  0.1827 -0.4703 -0.1486
16721TIP3    H171578   0.418   2.495   4.385  1.7533  2.5163  1.4051
16721TIP3    H271579   0.470   2.382   4.472 -1.1741 -0.6517 -0.7973
16722TIP3   OH271580   4.149   6.289   3.881  0.0876 -0.2084  0.0450
16722TIP3    H171581   4.073   6.230   3.881 -0.9774  1.1269  1.3597
16722TIP3    H271582   4.202   6.260   3.807 -0.5833 -2.5956  0.4592
16723TIP3   OH271583   0.228   4.843   0.833  0.4107  0.0476  0.4943
16723TIP3    H171584   0.267   4.929   0.850 -0.1336  0.4197 -0.1063
16723TIP3    H271585   0.135   4.861   0.822  0.5733 -0.3052 -1.7401
16724TIP3   OH271586   6.040   3.265  14.410 -0.0732  0.2787  0.3950
16724TIP3    H171587   5.989   3.203  14.461 -0.4089 -0.0704 -0.3622
16724TIP3    H271588   6.005   3.351  14.433 -0.3447  0.1097  0.6064
16725TIP3   OH271589   6.018   4.125  14.258  0.3855  0.4053 -0.2603
16725TIP3    H171590   5.976   4.117  14.172 -1.9403  1.6337  0.7265
16725TIP3    H271591   5.952   4.093  14.320  1.5019  0.9099  1.2111
16726TIP3   OH271592   3.730   5.107   1.505  0.2074 -0.6574  0.4234
16726TIP3    H171593   3.660   5.170   1.487  0.1597 -0.2040  2.1395
16726TIP3    H271594   3.758   5.078   1.418 -1.0021  0.3649 -0.3369
16727TIP3   OH271595   2.897   3.140   2.105 -0.0717  0.8894 -0.4556
16727TIP3    H171596   2.890   3.045   2.117 -1.3358  1.1779  1.2525
16727TIP3    H271597   2.974   3.165   2.156 -0.3232  0.8950 -0.0679
16728TIP3   OH271598   4.003   2.932  12.329  0.4615  0.7362 -0.0268
16728TIP3    H171599   4.051   2.896  12.255  1.6010  3.2705 -0.5554
16728TIP3    H271600   4.065   2.928  12.402  0.2272  0.6618  0.1684
16729TIP3   OH271601   0.787   0.248   4.777  0.0404  0.4863  0.3548
16729TIP3    H171602   0.691   0.249   4.772  0.0680 -1.1170 -0.8033
16729TIP3    H271603   0.806   0.276   4.867 -1.5764 -1.1045  1.2311
16730TIP3   OH271604   2.174   5.003  15.603 -0.2509 -0.2093  0.0917
16730TIP3    H171605   2.115   5.067  15.644  0.1480  0.1838  0.0484
16730TIP3    H271606   2.120   4.963  15.534 -0.2711  0.6077 -0.3721
16731TIP3   OH271607   0.670   3.470  15.715  0.2077 -0.1197 -0.5108
16731TIP3    H171608   0.633   3.386  15.740  0.2086 -0.6382 -2.2207
16731TIP3    H271609   0.760   3.468  15.749  0.6840 -1.4128 -1.7965
16732TIP3   OH271610   6.619   2.438   1.085 -0.3428 -0.3002  0.5188
16732TIP3    H171611   6.653   2.417   1.172  0.9523  0.3997  0.1946
16732TIP3    H271612   6.689   2.487   1.043 -2.1931  2.1668  0.2255
16733TIP3   OH271613   1.368   0.152  14.579  0.3758  0.2505  0.1631
16733TIP3    H171614   1.358   0.247  14.587  2.1266  0.3952  0.8495
16733TIP3    H271615   1.448   0.140  14.528  0.2594 -0.8539  0.2242
16734TIP3   OH271616   6.760   2.555  11.316  0.0666 -0.5537 -0.2594
16734TIP3    H171617   6.816   2.534  11.241  1.7294  1.2748  0.4489
16734TIP3    H271618   6.819   2.593  11.380 -1.7874  0.2146  1.0228
16735TIP3   OH271619   6.005   0.503   1.616 -0.9473  0.2579  0.2319
16735TIP3    H171620   5.949   0.433   1.648 -1.4499  0.4062 -0.3022
16735TIP3    H271621   5.944   0.568   1.582 -0.5559  1.7376  2.2827
16736TIP3   OH271622   2.156   1.750   1.035 -0.0020  0.0101  0.5715
16736TIP3    H171623   2.070   1.742   0.993  0.0023 -1.1375  0.7734
16736TIP3    H271624   2.155   1.837   1.075 -1.1820 -0.1052  0.8089
16737TIP3   OH271625   5.300   6.768  13.788  0.1932  0.1374  0.2921
16737TIP3    H171626   5.304   6.673  13.782  1.4418 -0.0481  3.2436
16737TIP3    H271627   5.339   6.788  13.873  0.9336  3.3561 -0.7595
16738TIP3   OH271628   3.790   3.058  13.349  0.3881 -0.0015  0.0638
16738TIP3    H171629   3.764   3.087  13.436 -0.9812  0.0993 -0.3654
16738TIP3    H271630   3.764   3.130  13.291 -0.7118 -0.9822 -0.6862
16739TIP3   OH271631   2.979   4.476  16.341 -0.3433  0.2126  0.1121
16739TIP3    H171632   2.968   4.382  16.356 -0.7860  0.5498  1.9131
16739TIP3    H271633   2.923   4.518  16.405  0.2090  1.7302 -0.3741
16740TIP3   OH271634   0.678   3.568  11.136 -0.1547 -0.2433 -0.0834
16740TIP3    H171635   0.754   3.513  11.118 -0.1707  0.3062 -1.9360
16740TIP3    H271636   0.626   3.565  11.055  0.2315  3.0902 -0.5196
16741TIP3   OH271637   1.606   0.014  11.981  0.8576  0.0518 -0.4242
16741TIP3    H171638   1.635   0.098  12.016 -0.1853 -0.3358  1.4427
16741TIP3    H271639   1.536  -0.013  12.040  0.3973 -1.5822 -1.6913
16742TIP3   OH271640   4.675   6.697  11.271  0.6121 -0.4536 -0.1726
16742TIP3    H171641   4.770   6.700  11.282  0.6412  0.3020 -0.5744
16742TIP3    H271642   4.657   6.609  11.238  1.2532 -0.3312 -0.8571
16743TIP3   OH271643   0.877   1.551   0.075  0.5856 -0.3691  0.1922
16743TIP3    H171644   0.909   1.480   0.131 -1.0448  0.3496  2.0866
16743TIP3    H271645   0.856   1.622   0.136 -3.5061 -0.4003 -1.0553
16744TIP3   OH271646   4.476   5.181   4.955  0.1613  0.2635 -0.1947
16744TIP3    H171647   4.535   5.108   4.975  1.5531  1.5036  0.3541
16744TIP3    H271648   4.461   5.224   5.039  1.1568  1.8988 -0.8069
16745TIP3   OH271649   6.594   3.499  11.299 -0.0920  0.2475  0.6531
16745TIP3    H171650   6.687   3.480  11.311 -0.2865 -0.7846  0.5772
16745TIP3    H271651   6.565   3.436  11.232 -0.4080  1.8384 -0.7611
16746TIP3   OH271652   4.091   3.752  15.907 -0.3152 -0.3609  0.4524
16746TIP3    H171653   4.143   3.804  15.969  0.3409 -1.6732  1.0186
16746TIP3    H271654   4.051   3.817  15.850  2.1947  0.6958 -0.1764
16747TIP3   OH271655   5.788   1.865  16.769 -0.1051  0.2283 -0.6347
16747TIP3    H171656   5.730   1.790  16.761  2.3979 -1.6748 -1.6610
16747TIP3    H271657   5.849   1.841  16.839  0.2316  1.6655 -0.4059
16748TIP3   OH271658   2.312   3.891  15.698 -0.4333  0.4170  0.1118
16748TIP3    H171659   2.310   3.812  15.644  0.6247 -0.0457  0.7233
16748TIP3    H271660   2.288   3.862  15.785  1.1121  0.5362  0.5955
16749TIP3   OH271661   0.358   3.707  14.454  0.2882  0.1137  0.0528
16749TIP3    H171662   0.323   3.747  14.534 -0.4295  2.0209 -1.1720
16749TIP3    H271663   0.332   3.767  14.384  2.1527 -0.7621 -1.4477
16750TIP3   OH271664   4.848   4.323   5.842  0.2801 -0.2375  0.4594
16750TIP3    H171665   4.942   4.310   5.833  0.3430 -0.1472  0.9739
16750TIP3    H271666   4.813   4.234   5.856  0.0892 -0.4713 -1.4388
16751TIP3   OH271667   5.347   2.110  11.561  0.6173  0.2638  0.3571
16751TIP3    H171668   5.374   2.128  11.651  0.4197 -3.1686  1.1916
16751TIP3    H271669   5.297   2.028  11.567 -0.9111  0.9025 -2.6289
16752TIP3   OH271670   2.674   4.140  11.952 -0.2657 -0.3404  0.4825
16752TIP3    H171671   2.769   4.127  11.947  0.0413  1.6664  0.4580
16752TIP3    H271672   2.655   4.141  12.046 -0.2071 -0.4376  0.4955
16753TIP3   OH271673   6.694   6.581   2.532  0.1369 -0.1112  0.2287
16753TIP3    H171674   6.777   6.568   2.486  1.5368  0.5408  2.5067
16753TIP3    H271675   6.665   6.668   2.505  1.5358  0.7508  1.4360
16754TIP3   OH271676   5.838   5.608   2.693  0.4461  0.2418 -0.0413
16754TIP3    H171677   5.879   5.686   2.656  0.4609  0.2599  0.0150
16754TIP3    H271678   5.744   5.624   2.688  0.4033 -0.3740 -1.4432
16755TIP3   OH271679   6.184   6.267  13.873  0.2381  0.4702 -0.1415
16755TIP3    H171680   6.102   6.218  13.880  1.0181 -0.9280 -0.5842
16755TIP3    H271681   6.203   6.269  13.780  0.1329  1.7757 -0.1414
16756TIP3   OH271682   1.662   0.032  10.315 -0.3820  0.2225 -0.6353
16756TIP3    H171683   1.598   0.084  10.269 -0.4908  0.4348 -0.2469
16756TIP3    H271684   1.665   0.069  10.403 -1.4222 -1.2475  0.0451
16757TIP3   OH271685   3.742   5.884   0.143  0.1612  0.0695  1.4418
16757TIP3    H171686   3.820   5.917   0.100  0.7848  0.4593  2.8409
16757TIP3    H271687   3.669   5.923   0.095  0.8201 -0.2310  0.1869
16758TIP3   OH271688   2.611   2.634   1.414 -0.2526  0.2960  0.0709
16758TIP3    H171689   2.576   2.693   1.481 -1.0258  0.2975 -0.3275
16758TIP3    H271690   2.677   2.582   1.459  0.9184  1.9323  0.2804
16759TIP3   OH271691   0.911   5.592  15.030  0.6717 -0.0294 -0.3956
16759TIP3    H171692   0.822   5.625  15.037  0.5311 -0.0945 -1.7928
16759TIP3    H271693   0.919   5.528  15.100 -0.6162 -0.5677 -0.7499
16760TIP3   OH271694   1.725   4.959   4.417  0.4498 -0.1017  0.8822
16760TIP3    H171695   1.812   4.998   4.428  1.8384 -2.9786  0.5244
16760TIP3    H271696   1.682   4.973   4.501  1.4135  0.9404  1.2194
16761TIP3   OH271697   3.701   4.488   3.738 -0.0514 -0.1311  0.4958
16761TIP3    H171698   3.615   4.496   3.698 -0.2288 -0.1282  0.8765
16761TIP3    H271699   3.684   4.490   3.832 -0.1077 -4.7365  0.6894
16762TIP3   OH271700   2.368   2.322   0.467 -0.3684 -0.0994  0.4520
16762TIP3    H171701   2.398   2.347   0.555 -0.3490 -0.0497  0.4310
16762TIP3    H271702   2.446   2.282   0.427 -0.1729  0.5369  0.1962
16763TIP3   OH271703   4.381   5.072   0.390  0.4686 -0.3893  0.0209
16763TIP3    H171704   4.476   5.083   0.396  0.2428  1.1790  0.7816
16763TIP3    H271705   4.359   5.104   0.303  0.4815  0.4324  0.3148
16764TIP3   OH271706   3.424   3.256  12.648 -0.0335 -0.7214 -0.1220
16764TIP3    H171707   3.510   3.282  12.614  0.0803 -2.3026 -1.0996
16764TIP3    H271708   3.440   3.239  12.741  0.4337  0.1673 -0.0280
16765TIP3   OH271709   0.097   4.390  16.313 -0.4898 -0.1802  0.0710
16765TIP3    H171710   0.083   4.299  16.288 -2.0061 -0.2213  1.0146
16765TIP3    H271711   0.081   4.392  16.408  0.3026  0.9146  0.1896
16766TIP3   OH271712   3.906   1.746   1.284  0.2242 -0.8190  0.1012
16766TIP3    H171713   3.976   1.807   1.307 -0.9746 -0.1193  1.9908
16766TIP3    H271714   3.841   1.800   1.239  1.0272 -1.5344 -1.9734
16767TIP3   OH271715   3.674   6.046  15.768  0.3528  0.4521 -0.3738
16767TIP3    H171716   3.663   5.982  15.698 -0.0598 -1.5900  1.4989
16767TIP3    H271717   3.701   6.127  15.723 -2.7240  0.0384 -3.1301
16768TIP3   OH271718   5.055   5.696  12.969 -0.6970 -0.5184 -0.1939
16768TIP3    H171719   4.967   5.711  12.934  0.2463  0.5406 -2.1943
16768TIP3    H271720   5.113   5.736  12.905  1.3959 -3.4488 -0.2206
16769TIP3   OH271721   5.227   0.405   4.361  0.1053 -0.2293  0.8041
16769TIP3    H171722   5.307   0.402   4.309 -0.4471 -0.3080 -0.0509
16769TIP3    H271723   5.236   0.333   4.423  0.2101 -0.9354 -0.0210
16770TIP3   OH271724   0.470   4.141   3.747  0.1486  0.4015 -0.2693
16770TIP3    H171725   0.419   4.068   3.783  1.4775 -0.2100  0.4378
16770TIP3    H271726   0.429   4.219   3.784 -0.4539 -0.0626  0.0616
16771TIP3   OH271727   1.660   3.338   5.330  0.2919 -0.2588 -0.1182
16771TIP3    H171728   1.679   3.402   5.398  0.7798 -0.6239  0.0873
16771TIP3    H271729   1.712   3.262   5.353 -0.9203 -1.0375  0.1078
16772TIP3   OH271730   6.094   5.261   4.596  0.5093 -0.3119  0.2317
16772TIP3    H171731   6.153   5.333   4.576  0.6782 -0.3402  0.6354
16772TIP3    H271732   6.031   5.298   4.658  0.4271 -0.4326  0.2212
16773TIP3   OH271733   4.702   4.441   4.927 -0.7187 -0.2949  0.0306
16773TIP3    H171734   4.674   4.369   4.984  1.6913 -0.6182  0.8849
16773TIP3    H271735   4.798   4.437   4.930 -0.5604  2.2676 -0.7791
16774TIP3   OH271736   6.395   4.348  16.105 -0.5805 -0.3595  0.5438
16774TIP3    H171737   6.437   4.262  16.108 -0.0139 -0.0486  1.9381
16774TIP3    H271738   6.440   4.394  16.034 -0.7825 -1.1504 -0.1062
16775TIP3   OH271739   5.663   0.434   2.294  0.0354  0.3839 -0.1116
16775TIP3    H171740   5.608   0.389   2.230  0.6371 -1.1124  0.4169
16775TIP3    H271741   5.747   0.387   2.292  0.0001  0.1795  1.9160
16776TIP3   OH271742   3.767   5.027   3.500 -0.3693  0.2005  0.0010
16776TIP3    H171743   3.774   4.984   3.415  0.3499  0.5291 -0.1091
16776TIP3    H271744   3.752   4.956   3.562 -0.3759 -0.0867 -0.3294
16777TIP3   OH271745   0.969   1.753  11.053  0.1764 -0.1952  0.5733
16777TIP3    H171746   1.052   1.724  11.091  1.3455 -1.2490 -2.6653
16777TIP3    H271747   0.985   1.845  11.029  0.7369 -0.6640 -0.8880
16778TIP3   OH271748   5.207   0.207  14.943  0.3574  0.3637  0.2466
16778TIP3    H171749   5.150   0.275  14.978  0.5085 -0.9238  3.0618
16778TIP3    H271750   5.296   0.240  14.958  0.4180  0.3095  0.0177
16779TIP3   OH271751   2.268   0.623  15.233  0.5275  0.0846  0.2477
16779TIP3    H171752   2.178   0.599  15.210  0.6316 -0.7506  0.6774
16779TIP3    H271753   2.322   0.557  15.191  0.9338  0.5030  0.1095
16780TIP3   OH271754   2.607   2.236  14.171  0.3354 -0.3388 -0.1689
16780TIP3    H171755   2.565   2.301  14.114  1.5605 -1.3559 -2.3258
16780TIP3    H271756   2.686   2.279  14.203 -0.2851  0.1916  0.6442
16781TIP3   OH271757   4.830   0.417  15.473  0.1551 -0.2467  0.3813
16781TIP3    H171758   4.810   0.324  15.474  0.2011 -0.2822 -1.1971
16781TIP3    H271759   4.913   0.424  15.521  0.8589 -1.1986 -0.6698
16782TIP3   OH271760   4.472   1.103  14.275  0.2665  0.1538 -0.5491
16782TIP3    H171761   4.491   1.101  14.181  2.8941 -2.0642 -0.0378
16782TIP3    H271762   4.471   1.197  14.297 -0.8028  0.7171 -2.8403
16783TIP3   OH271763   6.496   3.087  17.052 -0.0460  0.0801 -0.8503
16783TIP3    H171764   6.575   3.068  17.103 -0.6877 -0.8496 -0.1895
16783TIP3    H271765   6.513   3.050  16.966 -0.6662 -2.1651 -0.0246
16784TIP3   OH271766   1.318   4.793  12.734 -0.3861 -0.1592  0.0753
16784TIP3    H171767   1.246   4.769  12.675 -1.0156  0.5294  0.5585
16784TIP3    H271768   1.280   4.789  12.821 -0.1452  1.2608  0.2589
16785TIP3   OH271769   2.777   1.844   2.071  0.3270  0.1584  0.1071
16785TIP3    H171770   2.859   1.797   2.084  0.3961  0.5546  1.1748
16785TIP3    H271771   2.723   1.785   2.018  1.9455  0.6448 -2.1627
16786TIP3   OH271772   5.735   2.342   7.026  1.1754  0.6528  0.5070
16786TIP3    H171773   5.813   2.340   6.971 -0.2255  1.6117 -1.5834
16786TIP3    H271774   5.689   2.260   7.007  0.7687  0.9053  0.3882
16787TIP3   OH271775   5.549   2.569  14.523  0.4175  0.0345 -0.4533
16787TIP3    H171776   5.583   2.589  14.436  0.8290  1.2929 -0.0112
16787TIP3    H271777   5.605   2.618  14.582 -0.2970 -0.2654  0.4822
16788TIP3   OH271778   2.286   0.221  15.086 -0.0666 -0.5811  0.4657
16788TIP3    H171779   2.201   0.264  15.097 -0.1049 -0.9482  1.5926
16788TIP3    H271780   2.349   0.293  15.087 -0.5222 -0.0809 -2.6131
16789TIP3   OH271781   6.357   2.990   4.549  0.0609  0.3290  0.2973
16789TIP3    H171782   6.300   2.956   4.618  0.2392  0.3196  0.4406
16789TIP3    H271783   6.298   3.041   4.492  0.3731  2.6946  2.0248
16790TIP3   OH271784   3.748   3.816  15.822  0.9781 -0.4729 -0.1108
16790TIP3    H171785   3.780   3.783  15.738 -1.4614 -1.0237 -0.8578
16790TIP3    H271786   3.761   3.911  15.817 -0.0226 -0.4027 -1.4817
16791TIP3   OH271787   2.738   0.633  16.258  0.3479  0.0107 -0.5223
16791TIP3    H171788   2.799   0.573  16.215  1.8427 -0.3426  1.9472
16791TIP3    H271789   2.667   0.578  16.289 -0.5671  0.2190 -2.1918
16792TIP3   OH271790   0.804   0.199  15.909  0.5748  0.1758 -1.3936
16792TIP3    H171791   0.751   0.278  15.896  1.4936  0.7165 -1.9077
16792TIP3    H271792   0.746   0.138  15.955 -0.1168  1.1735 -0.9357
16793TIP3   OH271793   4.345   4.955   1.079  0.2399 -0.3483  0.2723
16793TIP3    H171794   4.297   5.037   1.061  0.3799 -0.7884 -2.3870
16793TIP3    H271795   4.436   4.982   1.088  0.0162  0.0302  1.3706
16794TIP3   OH271796   2.080   1.477   4.123 -0.5100  0.0110 -0.4058
16794TIP3    H171797   2.070   1.498   4.030  1.8168  1.2401 -0.4364
16794TIP3    H271798   1.998   1.505   4.164 -0.5693  1.8306 -1.7220
16795TIP3   OH271799   2.176   4.602  16.826  0.3711 -0.0080  0.3232
16795TIP3    H171800   2.257   4.639  16.790 -0.3728  1.1929 -0.1434
16795TIP3    H271801   2.189   4.507  16.820  1.8057  0.1718  0.3981
16796TIP3   OH271802   6.055   5.111   2.568 -0.5095 -0.0280 -0.0196
16796TIP3    H171803   6.068   5.155   2.652 -1.4571 -0.2803  0.2730
16796TIP3    H271804   6.020   5.025   2.592  0.2065 -0.4896 -0.6332
16797TIP3   OH271805   4.913   0.245  14.059 -0.3792  0.0393 -0.9579
16797TIP3    H171806   4.920   0.149  14.062 -1.5187 -0.1424 -3.5802
16797TIP3    H271807   4.954   0.273  14.141  0.0663 -2.6764 -0.1752
16798TIP3   OH271808   3.718   3.292   1.015  0.8721 -0.0125  0.5863
16798TIP3    H171809   3.789   3.297   0.952 -1.4305  1.6874 -1.9804
16798TIP3    H271810   3.664   3.218   0.986 -0.4961  1.1163  0.2154
16799TIP3   OH271811   1.734   6.561  13.936  0.3758 -0.3638 -0.3325
16799TIP3    H171812   1.699   6.645  13.963 -0.6629 -0.5408 -1.0962
16799TIP3    H271813   1.820   6.581  13.900  1.5652 -0.0618  2.5827
16800TIP3   OH271814   1.805   6.005  15.240 -0.0903  0.1569  0.1546
16800TIP3    H171815   1.753   6.079  15.271  0.1351  1.3653 -2.1785
16800TIP3    H271816   1.896   6.028  15.261 -0.2227 -0.6025  1.6085
16801TIP3   OH271817   1.974   0.609  11.665  0.5293  0.1501 -0.0212
16801TIP3    H171818   2.012   0.629  11.751  0.3433 -1.0881  0.3558
16801TIP3    H271819   1.897   0.665  11.659  0.0462 -0.3988  0.9943
16802TIP3   OH271820   4.238   5.750   2.550  0.0859  0.7064 -0.3478
16802TIP3    H171821   4.209   5.841   2.544 -0.0949  0.8281  1.9406
16802TIP3    H271822   4.331   5.753   2.528  0.3114  1.6022  0.7030
16803TIP3   OH271823   6.651   6.054  16.416 -0.1915  0.1425  0.4719
16803TIP3    H171824   6.712   6.074  16.487  0.6896  0.7862 -0.4457
16803TIP3    H271825   6.583   6.001  16.457  1.1170 -0.8091  1.4766
16804TIP3   OH271826   4.736   6.582  13.375  0.4362  0.0571 -0.8465
16804TIP3    H171827   4.645   6.597  13.400  1.0692  1.4523  0.6859
16804TIP3    H271828   4.762   6.502  13.420 -0.3627 -1.0279 -2.2441
16805TIP3   OH271829   2.185   5.142  13.962 -0.1036 -0.0973  0.5766
16805TIP3    H171830   2.153   5.232  13.968  1.8516  0.5626  1.6191
16805TIP3    H271831   2.142   5.096  14.034 -2.3499 -0.4207 -0.9290
16806TIP3   OH271832   4.026   5.417   4.421  0.0278 -0.1995 -0.1037
16806TIP3    H171833   4.073   5.339   4.448  0.8749  0.0289 -0.8935
16806TIP3    H271834   4.094   5.481   4.401 -0.6118  0.1943 -1.0707
16807TIP3   OH271835   1.889   6.532   1.459  0.1504  0.4458 -0.1013
16807TIP3    H171836   1.867   6.476   1.533  1.7597 -0.7729 -0.5290
16807TIP3    H271837   1.865   6.620   1.488 -0.1587 -0.1411  1.4836
16808TIP3   OH271838   2.818   2.103   1.204 -0.1547  0.7174 -0.6188
16808TIP3    H171839   2.837   2.022   1.251  1.8820  1.3700 -0.2626
16808TIP3    H271840   2.764   2.076   1.130 -2.2836 -0.5110  1.3179
16809TIP3   OH271841   5.347   3.417   0.961 -0.7099  0.4113  0.0221
16809TIP3    H171842   5.438   3.439   0.941 -1.0625  1.1073 -0.8378
16809TIP3    H271843   5.297   3.457   0.891 -1.6681 -0.1762  0.3628
16810TIP3   OH271844   0.544   1.257   5.500 -0.0799  0.5029 -0.2196
16810TIP3    H171845   0.551   1.242   5.594  0.7131 -1.2321 -0.5303
16810TIP3    H271846   0.457   1.226   5.477  0.0334  0.1650 -0.1919
16811TIP3   OH271847   1.786   3.495  16.301  0.2470  0.3685  0.0266
16811TIP3    H171848   1.832   3.572  16.267 -0.6740  0.3516 -1.3156
16811TIP3    H271849   1.769   3.441  16.223  0.7427 -1.1221  0.9317
16812TIP3   OH271850   2.747   1.006   1.918 -0.1256  0.2029 -0.2057
16812TIP3    H171851   2.742   1.017   2.013  0.2777  0.0682 -0.1684
16812TIP3    H271852   2.719   1.090   1.882  1.2128  0.7703  0.0562
16813TIP3   OH271853   4.739   0.941   1.431  0.6913 -0.3640 -0.2270
16813TIP3    H171854   4.706   0.989   1.355  3.0592 -1.0364 -1.7253
16813TIP3    H271855   4.782   1.007   1.485 -0.4780  0.0143  0.2618
16814TIP3   OH271856   0.526   6.466  16.115  0.3857 -0.0721 -0.1440
16814TIP3    H171857   0.487   6.386  16.151 -0.8541 -0.2031 -1.7523
16814TIP3    H271858   0.525   6.528  16.188 -1.7910 -0.4403  0.1674
16815TIP3   OH271859   3.599   2.423   0.602 -0.6803  0.1357  0.1017
16815TIP3    H171860   3.687   2.419   0.564 -0.5679  0.2736  0.3435
16815TIP3    H271861   3.550   2.354   0.558 -0.1772 -0.5754  0.6510
16816TIP3   OH271862   4.803   2.192   5.308  0.7581 -0.5533  1.0642
16816TIP3    H171863   4.880   2.137   5.323  0.5811 -0.9015  0.7059
16816TIP3    H271864   4.838   2.280   5.297  1.1269 -0.7525  0.6325
16817TIP3   OH271865   2.635   0.122  16.698  0.4936 -0.4119  0.2480
16817TIP3    H171866   2.701   0.180  16.658 -1.5350  0.7258 -1.5728
16817TIP3    H271867   2.559   0.179  16.712 -0.3859 -1.8847  1.5834
16818TIP3   OH271868   2.045   1.893  11.806 -0.1638  0.2724 -0.2689
16818TIP3    H171869   2.056   1.926  11.895  0.3490  1.3578 -0.7224
16818TIP3    H271870   1.955   1.859  11.804 -0.1167  0.0701  0.7064
16819TIP3   OH271871   1.684   4.938  15.197 -0.3643 -0.2868 -0.1224
16819TIP3    H171872   1.762   4.909  15.149 -0.2004 -1.4034  0.7696
16819TIP3    H271873   1.627   4.976  15.131 -0.2723 -2.0768 -1.2835
16820TIP3   OH271874   0.165   6.416  16.756  0.6581 -0.1350 -0.0143
16820TIP3    H171875   0.127   6.342  16.803 -0.5758  0.8063  0.4952
16820TIP3    H271876   0.178   6.384  16.667 -0.2207 -0.8339  0.1080
16821TIP3   OH271877   0.682   0.778   4.014  0.0593  0.0408 -0.1156
16821TIP3    H171878   0.628   0.709   3.975 -0.8762 -1.0302  2.9606
16821TIP3    H271879   0.738   0.733   4.076  3.1772  1.4268 -1.7949
16822TIP3   OH271880   2.197   5.669  15.879  0.1615 -0.0028 -0.1836
16822TIP3    H171881   2.222   5.601  15.942  1.2733  1.7446  1.2770
16822TIP3    H271882   2.121   5.712  15.919  0.6280  0.8598 -0.2302
16823TIP3   OH271883   5.123   5.383  13.333 -0.3365 -0.6542  0.1788
16823TIP3    H171884   5.061   5.339  13.391 -1.7704 -1.7541 -2.1078
16823TIP3    H271885   5.120   5.332  13.252  1.1833  1.1835 -1.0815
16824TIP3   OH271886   2.949   3.806   0.508 -0.3476 -0.1722  0.0815
16824TIP3    H171887   2.981   3.893   0.482  2.1216 -1.4677 -1.3467
16824TIP3    H271888   2.968   3.802   0.602  0.0537  0.6391  0.0469
16825TIP3   OH271889   5.326   4.286   1.837 -0.1167  0.5740  0.5185
16825TIP3    H171890   5.289   4.276   1.925  2.1540  0.3269  1.5002
16825TIP3    H271891   5.352   4.198   1.812  1.0848  0.9351  0.4613
16826TIP3   OH271892   0.927   5.921  13.232 -0.5160 -0.0078 -0.1560
16826TIP3    H171893   0.929   5.872  13.314 -0.4109 -0.6877 -0.5544
16826TIP3    H271894   1.002   5.979  13.236 -0.1677 -0.4670 -0.0236
16827TIP3   OH271895   4.635   2.899   5.738 -0.3221  0.4483 -0.4414
16827TIP3    H171896   4.561   2.876   5.682  0.4726 -0.1908 -1.2377
16827TIP3    H271897   4.630   2.838   5.811 -1.0570  0.9401 -0.0767
16828TIP3   OH271898   1.405   1.988  17.213  0.6630  0.0447 -0.1544
16828TIP3    H171899   1.404   2.078  17.180  0.2790 -0.1811 -0.7715
16828TIP3    H271900   1.316   1.956  17.197  0.6582 -0.2777  0.5285
16829TIP3   OH271901   0.545   2.675   2.777 -0.1807 -0.4039 -0.1017
16829TIP3    H171902   0.467   2.670   2.722 -1.6413 -0.5447  1.9073
16829TIP3    H271903   0.516   2.724   2.854  2.0202  0.4762  0.2025
16830TIP3   OH271904   5.273   4.888   0.132  0.0077 -0.0434 -0.5550
16830TIP3    H171905   5.341   4.820   0.131  1.3330  1.2485  0.7500
16830TIP3    H271906   5.213   4.860   0.201 -0.2035 -0.6067 -0.9602
16831TIP3   OH271907   0.567   4.692  13.755 -0.3865 -0.1130 -0.6438
16831TIP3    H171908   0.599   4.717  13.842 -1.0388  0.2041 -0.4910
16831TIP3    H271909   0.474   4.677  13.768 -0.5962  0.5029 -1.4090
16832TIP3   OH271910   2.571   3.489  13.582  0.5841  0.2064 -0.1258
16832TIP3    H171911   2.555   3.403  13.543  1.3435 -0.3187  0.7005
16832TIP3    H271912   2.603   3.469  13.670 -0.2513  1.3591  0.4407
16833TIP3   OH271913   6.061   2.135   4.394  0.2964 -0.0408 -0.4412
16833TIP3    H171914   6.156   2.148   4.389  0.5699 -1.2443  1.4655
16833TIP3    H271915   6.033   2.191   4.466 -0.2408 -0.8534 -0.0200
16834TIP3   OH271916   2.536   1.323   4.031 -0.5688 -0.4494  0.0042
16834TIP3    H171917   2.589   1.386   4.080 -0.2981 -1.6706  1.2960
16834TIP3    H271918   2.588   1.305   3.952  0.0653 -0.2362  0.3734
16835TIP3   OH271919   3.992   4.932  12.794 -0.1382  0.0257 -0.3910
16835TIP3    H171920   4.004   4.917  12.700 -0.5797 -0.8740 -0.3128
16835TIP3    H271921   3.901   4.962  12.802 -0.4342 -0.9007 -0.1522
16836TIP3   OH271922   2.516   0.551   6.175 -0.0016  0.0840  0.6473
16836TIP3    H171923   2.459   0.606   6.230  0.7168  1.1555  0.3173
16836TIP3    H271924   2.577   0.612   6.135 -0.7156 -0.6494 -1.6196
16837TIP3   OH271925   1.810   3.282  15.028  0.1170  0.1396  0.1462
16837TIP3    H171926   1.790   3.222  14.957  0.9287 -0.9075  0.7880
16837TIP3    H271927   1.751   3.255  15.100 -0.7442  1.2290 -0.1379
16838TIP3   OH271928   4.928   5.018  12.146  0.2722 -0.0635 -0.5032
16838TIP3    H171929   4.917   5.113  12.152  0.0501 -0.1162 -0.0913
16838TIP3    H271930   4.841   4.984  12.126 -0.1789 -0.3958  1.8644
16839TIP3   OH271931   5.783   6.260  16.649 -0.4648 -0.6348 -0.1093
16839TIP3    H171932   5.862   6.275  16.597 -2.0650 -0.3500 -2.4830
16839TIP3    H271933   5.806   6.187  16.706  1.1597 -1.2292 -1.4883
16840TIP3   OH271934   2.338   4.705  13.828  0.8783  0.3904 -0.1225
16840TIP3    H171935   2.315   4.621  13.869 -2.3889 -0.1959 -2.8948
16840TIP3    H271936   2.352   4.765  13.901 -1.6286 -1.3826  1.8828
16841TIP3   OH271937   5.269   0.357  14.627 -0.9514  0.2708 -0.0084
16841TIP3    H171938   5.294   0.272  14.664  2.0427  0.5645 -1.2337
16841TIP3    H271939   5.174   0.359  14.634 -0.9275 -2.3573  1.8278
16842TIP3   OH271940   5.686   4.630   3.481  0.0137  0.4414 -0.1663
16842TIP3    H171941   5.719   4.666   3.564 -0.2186 -0.1548  0.1916
16842TIP3    H271942   5.655   4.706   3.433  1.4984  0.9647 -0.3268
16843TIP3   OH271943   5.741   3.172   5.400  0.4700  0.1959  0.3406
16843TIP3    H171944   5.835   3.160   5.392  0.4270 -0.4724  0.7850
16843TIP3    H271945   5.705   3.083   5.402 -0.1873  0.4452 -0.0405
16844TIP3   OH271946   2.017   4.016   0.277  0.4489 -0.4088 -0.4696
16844TIP3    H171947   2.112   4.018   0.263  0.3581 -0.5827 -1.1172
16844TIP3    H271948   2.004   4.062   0.360  1.0045  0.5621 -0.9162
16845TIP3   OH271949   5.863   3.896  12.226  0.0716 -0.0322  0.2814
16845TIP3    H171950   5.952   3.862  12.220  0.4535  0.7224  1.4369
16845TIP3    H271951   5.861   3.968  12.163  0.3145  0.0012  0.3112
16846TIP3   OH271952   2.417   0.744   5.104  0.1604  0.1991 -0.4872
16846TIP3    H171953   2.374   0.794   5.035  1.2599  0.1304 -1.2286
16846TIP3    H271954   2.510   0.762   5.093  0.4242 -0.5642  0.3880
16847TIP3   OH271955   6.593   4.886   2.855  0.1966  0.3135  0.5350
16847TIP3    H171956   6.502   4.913   2.839 -0.0747 -1.2860 -0.7903
16847TIP3    H271957   6.645   4.946   2.802 -0.1565  0.5082  0.4064
16848TIP3   OH271958   6.480   0.129   1.923 -1.0291 -0.2254  0.3360
16848TIP3    H171959   6.566   0.091   1.906 -0.1918  1.5377  0.5499
16848TIP3    H271960   6.461   0.105   2.014  0.2949  1.3653  1.0480
16849TIP3   OH271961   0.007   3.438   3.525 -0.4470 -0.6377  0.4203
16849TIP3    H171962   0.022   3.522   3.568 -2.0554  0.3891 -0.9408
16849TIP3    H271963   0.074   3.432   3.458  0.4916 -1.0674  1.3891
16850TIP3   OH271964   1.614   2.382  10.213  0.3683 -0.0614  0.3706
16850TIP3    H171965   1.656   2.441  10.150  0.0867 -1.2339 -0.9443
16850TIP3    H271966   1.641   2.415  10.298  1.0209  1.3662 -0.3714
16851TIP3   OH271967   6.476   1.510   2.614  0.2944 -0.2649 -0.7826
16851TIP3    H171968   6.384   1.484   2.608  0.3526 -0.4383 -0.9432
16851TIP3    H271969   6.488   1.571   2.541 -0.1768  1.2438  0.3718
16852TIP3   OH271970   2.992   4.669   3.339  0.0739  0.0757 -0.1436
16852TIP3    H171971   3.046   4.727   3.394 -0.3962  1.0225 -0.6658
16852TIP3    H271972   2.918   4.645   3.395  1.2199 -1.5402  0.7070
16853TIP3   OH271973   6.732   6.387   0.498 -0.0334 -0.1516  0.0274
16853TIP3    H171974   6.817   6.414   0.462  0.0471 -1.0389 -0.4698
16853TIP3    H271975   6.725   6.435   0.580  1.0285 -0.1947  0.1568
16854TIP3   OH271976   5.966   0.492   4.973  0.6259 -0.5440  0.2200
16854TIP3    H171977   6.034   0.549   4.937  0.0703  0.4787  0.7957
16854TIP3    H271978   5.884   0.534   4.948  0.2179 -0.7480  1.1983
16855TIP3   OH271979   3.811   5.450  14.836  0.2881  0.1093  0.4781
16855TIP3    H171980   3.809   5.384  14.767  1.0402  0.0268  0.5388
16855TIP3    H271981   3.798   5.400  14.917 -2.0820  0.3599  0.3075
16856TIP3   OH271982   3.721   2.215   1.193 -0.0168  0.1554 -0.2055
16856TIP3    H171983   3.681   2.203   1.107  0.3211 -3.6748  0.0676
16856TIP3    H271984   3.661   2.170   1.253 -0.1194  2.5486  1.5688
16857TIP3   OH271985   4.543   5.041  13.377  0.0631  0.0984 -0.4313
16857TIP3    H171986   4.460   5.053  13.422  0.2807  0.0648 -0.0162
16857TIP3    H271987   4.520   5.033  13.284 -0.2525  1.7460 -0.5046
16858TIP3   OH271988   2.446   1.747   0.046  0.1667  0.2620  0.0955
16858TIP3    H171989   2.468   1.838   0.065  0.6371  0.4072 -1.0946
16858TIP3    H271990   2.364   1.751  -0.003  0.0652  0.0244  0.2411
16859TIP3   OH271991   4.051   6.204  16.228  0.0983 -0.5745  0.7329
16859TIP3    H171992   4.119   6.138  16.243 -0.6291 -0.9900  2.3169
16859TIP3    H271993   4.015   6.222  16.315 -0.3668  1.2258  0.2060
16860TIP3   OH271994   5.158   4.099  17.071 -0.5590  0.3961 -0.0295
16860TIP3    H171995   5.096   4.039  17.029 -1.1479  0.0338  1.3378
16860TIP3    H271996   5.227   4.042  17.104 -1.2426  0.4106  1.4914
16861TIP3   OH271997   2.189   2.445   1.393 -0.3955 -0.3254  0.1687
16861TIP3    H171998   2.245   2.507   1.347 -0.1218 -1.1916 -0.6869
16861TIP3    H271999   2.247   2.402   1.456  0.2960 -2.2816 -1.7336
16862TIP3   OH272000   6.009   5.124  11.606 -0.0067  0.7191  0.0379
16862TIP3    H172001   6.019   5.118  11.511  0.6931 -0.3885  0.1800
16862TIP3    H272002   6.012   5.034  11.637  2.8170  1.2264  1.4213
16863TIP3   OH272003   5.317   0.448  13.013  0.0071 -0.0753 -0.0930
16863TIP3    H172004   5.339   0.496  12.934  0.0613 -2.0590 -1.3020
16863TIP3    H272005   5.222   0.437  13.010  0.2600 -2.2105 -1.1134
16864TIP3   OH272006   1.816   1.686   2.842 -0.1135  0.3480  0.3322
16864TIP3    H172007   1.773   1.760   2.800  0.0007  0.2191 -0.0093
16864TIP3    H272008   1.744   1.635   2.881 -0.3671 -0.4268 -1.1253
16865TIP3   OH272009   4.983   6.729   0.497  0.4633 -0.3237 -0.0483
16865TIP3    H172010   5.026   6.685   0.571  0.1832 -1.8201 -0.7429
16865TIP3    H272011   4.891   6.704   0.505  0.6047 -1.4123 -1.4930
16866TIP3   OH272012   0.788   2.402   5.120  0.1856 -0.2306  0.9806
16866TIP3    H172013   0.878   2.410   5.151  1.2639  0.8271 -2.3185
16866TIP3    H272014   0.745   2.481   5.151  0.4454 -0.5526  2.2198
16867TIP3   OH272015   5.061   0.709  12.880  0.1761 -0.1041 -0.0436
16867TIP3    H172016   5.062   0.742  12.791 -1.4022  0.4814  0.1422
16867TIP3    H272017   5.138   0.747  12.921  0.2556  0.5724 -0.8172
16868TIP3   OH272018   3.464   5.923   6.447 -0.5991 -0.8608  0.0720
16868TIP3    H172019   3.437   5.836   6.417 -1.1451 -0.7289  0.1880
16868TIP3    H272020   3.558   5.927   6.425 -0.5302 -1.5396  0.2191
16869TIP3   OH272021   5.812   5.709  15.017  0.1154 -0.1939  0.0544
16869TIP3    H172022   5.895   5.665  15.036 -2.1753 -4.7185  0.3600
16869TIP3    H272023   5.772   5.725  15.103 -0.5993 -0.7390 -0.1643
16870TIP3   OH272024   3.487   5.077  16.632 -0.1443  0.1935 -0.6486
16870TIP3    H172025   3.460   5.043  16.547  0.5077  0.6734 -1.0475
16870TIP3    H272026   3.498   4.999  16.687 -0.1956 -0.1378 -1.1071
16871TIP3   OH272027   0.621   3.479  11.715  0.3927  0.0690  0.2600
16871TIP3    H172028   0.574   3.492  11.797 -0.3136 -2.0999  0.2378
16871TIP3    H272029   0.704   3.440  11.740  1.1223  1.4771  0.0935
16872TIP3   OH272030   1.569   1.998   5.368 -0.1323 -0.0233  0.4993
16872TIP3    H172031   1.545   1.921   5.316  0.4210  0.6053 -0.7126
16872TIP3    H272032   1.663   1.988   5.383 -0.2572 -0.1077  1.2341
16873TIP3   OH272033   6.597   0.715  16.901 -0.0057 -0.1251 -0.2178
16873TIP3    H172034   6.652   0.769  16.957  0.4647  0.1501 -0.9420
16873TIP3    H272035   6.518   0.767  16.887 -0.0089 -0.0805 -0.0338
16874TIP3   OH272036   1.877   5.783   0.784  0.6163 -0.0277 -0.5443
16874TIP3    H172037   1.942   5.735   0.834  0.7189  1.3376  0.6755
16874TIP3    H272038   1.829   5.835   0.849  0.3071  1.2728 -1.7597
16875TIP3   OH272039   1.332   6.151  13.806  0.0661  0.2167 -0.1617
16875TIP3    H172040   1.386   6.188  13.736 -1.0913  0.2130 -1.0529
16875TIP3    H272041   1.362   6.198  13.885  0.4203  1.2028 -0.8667
16876TIP3   OH272042   4.494   4.648  13.839 -0.5909 -0.0084  0.3221
16876TIP3    H172043   4.573   4.702  13.845  0.0013 -0.9905  1.6675
16876TIP3    H272044   4.434   4.686  13.904 -0.6721 -0.1742  0.3430
16877TIP3   OH272045   5.289   0.248  12.487 -0.4054  0.2307  0.1396
16877TIP3    H172046   5.385   0.249  12.495 -0.4224  0.1608  0.3414
16877TIP3    H272047   5.264   0.340  12.493 -0.6125  0.0144  3.1053
16878TIP3   OH272048   1.575   5.503   3.468  0.0603  0.1875  0.2176
16878TIP3    H172049   1.533   5.439   3.411  0.3326  0.2866 -0.0969
16878TIP3    H272050   1.579   5.460   3.553 -0.7812  0.2230  0.2814
16879TIP3   OH272051   3.887   6.112   0.200 -0.0702  0.0805 -0.0004
16879TIP3    H172052   3.898   6.205   0.220  2.0537  0.3624 -2.2008
16879TIP3    H272053   3.807   6.087   0.245 -0.3051  2.8027  1.2060
16880TIP3   OH272054   2.664   4.529  12.046 -0.4787 -0.2192  0.1892
16880TIP3    H172055   2.652   4.439  12.073  0.2788 -0.5515 -0.5533
16880TIP3    H272056   2.592   4.546  11.985 -0.4209 -0.4424  0.0570
16881TIP3   OH272057   1.289   1.984   2.740 -0.3145  0.0421 -0.7478
16881TIP3    H172058   1.217   1.947   2.791  1.5541  0.0605  1.9857
16881TIP3    H272059   1.337   1.908   2.707  0.8367  0.0259  0.9595
16882TIP3   OH272060   5.889   6.284  14.112  0.1100  0.2576  0.4986
16882TIP3    H172061   5.928   6.257  14.029  0.6286  1.6505  0.2768
16882TIP3    H272062   5.799   6.251  14.107 -0.1170  1.0026 -0.9790
16883TIP3   OH272063   3.347   1.812  16.388  0.6188  0.8583  0.2634
16883TIP3    H172064   3.301   1.731  16.367 -0.6156  0.3853  4.4820
16883TIP3    H272065   3.427   1.783  16.432  0.1843  1.9069  1.7654
16884TIP3   OH272066   2.305   4.391   5.642 -0.1807 -0.2728  0.0524
16884TIP3    H172067   2.308   4.335   5.720 -0.2003 -1.0746 -0.5104
16884TIP3    H272068   2.322   4.479   5.675  0.7620 -0.7357  0.8337
16885TIP3   OH272069   0.652   0.842   1.062 -0.2443 -0.4806  0.0975
16885TIP3    H172070   0.581   0.836   0.998 -0.3191 -0.9687  0.2196
16885TIP3    H272071   0.642   0.763   1.115 -0.6571  0.2999  1.2053
16886TIP3   OH272072   4.962   2.736  13.060 -0.2395 -0.6989  0.2992
16886TIP3    H172073   5.055   2.753  13.076 -0.0920 -1.3861  0.1642
16886TIP3    H272074   4.960   2.687  12.978 -0.6728 -1.3041  0.6704
16887TIP3   OH272075   3.327   4.340   4.861 -0.4576 -0.3922  0.5239
16887TIP3    H172076   3.307   4.380   4.777  1.8901  0.2369  0.2270
16887TIP3    H272077   3.252   4.362   4.917 -1.9982 -0.7734 -1.3626
16888TIP3   OH272078   1.579   0.471  11.147 -0.2371 -0.3578  0.5243
16888TIP3    H172079   1.664   0.514  11.158  0.2408 -0.7887 -1.2562
16888TIP3    H272080   1.549   0.453  11.236  0.8379  1.1496  1.2126
16889TIP3   OH272081   0.511   4.193  13.270 -0.6513  0.1591 -0.1395
16889TIP3    H172082   0.485   4.280  13.298  0.4063 -0.0451  1.5266
16889TIP3    H272083   0.585   4.208  13.211  0.1419  0.3510  0.8932
16890TIP3   OH272084   3.294   4.788   3.274  0.5206 -0.2950  0.1444
16890TIP3    H172085   3.378   4.822   3.305  1.3177 -0.4609 -1.7509
16890TIP3    H272086   3.313   4.698   3.248 -0.4876 -0.6534  0.6283
16891TIP3   OH272087   0.392   6.032   5.470 -0.3705  0.4025 -0.0445
16891TIP3    H172088   0.328   6.080   5.419 -1.8453  0.0579  1.4224
16891TIP3    H272089   0.401   5.948   5.424  1.0231  1.4425 -1.7169
16892TIP3   OH272090   2.510   1.214   2.778 -0.4092 -0.0257  0.5222
16892TIP3    H172091   2.467   1.133   2.751  1.7787 -0.8081 -0.7608
16892TIP3    H272092   2.583   1.224   2.717  0.4662  1.9284  1.8316
16893TIP3   OH272093   4.962   6.213   5.948 -0.5116  0.1991  0.2980
16893TIP3    H172094   5.035   6.196   6.008  2.2007 -0.5159 -3.0026
16893TIP3    H272095   4.937   6.303   5.965  1.0969  0.4348  1.5595
16894TIP3   OH272096   2.763   5.403   5.342 -0.0703  0.2440 -0.5031
16894TIP3    H172097   2.849   5.390   5.302 -0.7440 -0.2076 -1.8472
16894TIP3    H272098   2.728   5.481   5.299 -0.7849 -0.2184 -0.7745
16895TIP3   OH272099   5.441   5.259  14.533  0.4633 -0.0773 -0.3269
16895TIP3    H172100   5.478   5.234  14.618  0.1760  1.9570  0.4130
16895TIP3    H272101   5.362   5.307  14.554  0.5289  0.6883 -1.7465
16896TIP3   OH272102   1.156   1.696  12.765 -0.7824 -0.5763 -0.2313
16896TIP3    H172103   1.210   1.727  12.692  1.1978 -1.2730  0.9229
16896TIP3    H272104   1.158   1.601  12.757 -1.0079 -0.6349  0.4368
16897TIP3   OH272105   0.384   6.465   4.819 -0.2928  0.0547  0.3968
16897TIP3    H172106   0.295   6.498   4.830 -0.6036 -1.2668  1.9575
16897TIP3    H272107   0.402   6.478   4.726 -1.5442  1.7181  0.3565
16898TIP3   OH272108   4.053   1.615  11.989 -0.1094  0.6292  0.0543
16898TIP3    H172109   3.986   1.680  12.005 -1.2253 -0.1009 -1.5608
16898TIP3    H272110   4.005   1.534  11.970  1.2038  0.1699 -1.4241
16899TIP3   OH272111   1.030   6.280  15.186  0.0633  0.3469 -0.3030
16899TIP3    H172112   1.042   6.231  15.105  1.5789  1.9784 -1.0934
16899TIP3    H272113   0.937   6.305  15.185  0.1043  0.5002 -1.6254
16900TIP3   OH272114   0.400   5.978   5.753 -0.6399  0.2978  0.4330
16900TIP3    H172115   0.441   6.036   5.816 -3.1713  0.3334  2.1334
16900TIP3    H272116   0.433   6.007   5.668  2.7896  0.2745  1.6917
16901TIP3   OH272117   6.073   4.766   5.564  0.0322  0.4284  0.1172
16901TIP3    H172118   6.157   4.760   5.519 -0.7386 -2.0896 -1.0778
16901TIP3    H272119   6.095   4.757   5.657  0.9361 -2.7959 -0.3294
16902TIP3   OH272120   0.781   2.794   5.036 -0.3045 -0.0351 -0.5478
16902TIP3    H172121   0.832   2.872   5.016  1.2518 -1.1590 -0.9962
16902TIP3    H272122   0.690   2.823   5.029  0.2475  1.9897  0.2894
16903TIP3   OH272123   4.612   2.587   5.350  0.6110  0.1214  0.2404
16903TIP3    H172124   4.525   2.618   5.324  0.6811 -0.7792 -1.1079
16903TIP3    H272125   4.601   2.560   5.441 -0.6042 -0.3099 -0.0255
16904TIP3   OH272126   5.069   6.311   4.247 -0.1911 -0.0818 -0.0291
16904TIP3    H172127   5.049   6.375   4.316 -0.0176  0.2543 -0.2939
16904TIP3    H272128   4.983   6.274   4.223 -0.3164  0.2273 -0.0521
16905TIP3   OH272129   3.854   0.060   2.828 -0.2488 -0.2577 -0.0128
16905TIP3    H172130   3.888   0.115   2.898 -0.3392  1.1610 -1.0592
16905TIP3    H272131   3.873  -0.030   2.856  1.2346  0.3683  1.0341
16906TIP3   OH272132   1.280   4.475   3.344  0.1636 -0.3414 -0.0126
16906TIP3    H172133   1.335   4.438   3.275 -1.4671 -2.6172 -0.1369
16906TIP3    H272134   1.313   4.436   3.425  0.2392  0.1240  0.1833
16907TIP3   OH272135   6.140   5.255  15.158 -1.0868 -0.4699  0.0684
16907TIP3    H172136   6.189   5.336  15.147  0.0251 -1.1924 -0.4453
16907TIP3    H272137   6.059   5.281  15.202  0.3009  0.5563  2.0889
16908TIP3   OH272138   3.660   6.589  14.255 -0.1464 -0.2576 -0.6149
16908TIP3    H172139   3.669   6.684  14.263  0.0220 -0.2548 -0.8634
16908TIP3    H272140   3.572   6.577  14.218 -0.3771 -0.2192 -0.0882
16909TIP3   OH272141   4.526   5.977  12.121 -0.1742 -0.1682  0.3922
16909TIP3    H172142   4.509   6.070  12.110  0.1286 -0.1914 -0.2667
16909TIP3    H272143   4.537   5.944  12.032  0.9633 -0.5998  0.6918
16910TIP3   OH272144   0.354   2.566   0.294 -0.1633  0.5327 -0.0309
16910TIP3    H172145   0.355   2.471   0.300 -0.9970  0.6135  1.8021
16910TIP3    H272146   0.346   2.584   0.200 -3.4545 -1.2659 -0.1780
16911TIP3   OH272147   2.409   5.174  15.895  0.2947 -0.2837 -0.0145
16911TIP3    H172148   2.421   5.228  15.974 -0.1641 -0.8440  0.4472
16911TIP3    H272149   2.384   5.088  15.929  2.6898 -1.2737 -0.6881
16912TIP3   OH272150   5.369   0.283   0.785 -0.3430  0.0686  0.1527
16912TIP3    H172151   5.319   0.353   0.743 -1.1185 -0.1295  0.7301
16912TIP3    H272152   5.303   0.217   0.807 -0.3392  1.0947  3.6181
16913TIP3   OH272153   4.065   1.246  13.661  0.3461 -0.0409  0.2877
16913TIP3    H172154   4.091   1.338  13.660 -1.3644  0.4640 -0.2780
16913TIP3    H272155   4.043   1.229  13.753  1.7235 -0.2140  0.5970
16914TIP3   OH272156   6.769   2.218  12.275 -0.1314 -0.2131 -0.0067
16914TIP3    H172157   6.811   2.260  12.350  2.1218 -0.9791 -0.7826
16914TIP3    H272158   6.676   2.238  12.284  0.4748  2.0655  1.4511
16915TIP3   OH272159   1.547   6.768   3.376  0.5902  0.3877 -0.1066
16915TIP3    H172160   1.591   6.853   3.379  0.6772  0.3545 -0.4275
16915TIP3    H272161   1.454   6.789   3.391  0.4373  0.6777 -1.3801
16916TIP3   OH272162   1.488   1.876  12.488  0.1551  0.2609 -0.5103
16916TIP3    H172163   1.436   1.955  12.502 -0.0454  0.1167 -0.4493
16916TIP3    H272164   1.430   1.804  12.512  0.7428  0.1465  0.6279
16917TIP3   OH272165   4.961   0.093  12.227  0.2749 -0.2483  0.2226
16917TIP3    H172166   4.973   0.133  12.313 -1.4285  0.5984  0.0958
16917TIP3    H272167   5.049   0.090  12.189  1.0166 -0.5068  1.9277
16918TIP3   OH272168   5.092   5.024  12.857 -0.1504 -0.2352  0.0452
16918TIP3    H172169   5.090   5.023  12.761  1.0734 -1.2579  0.0196
16918TIP3    H272170   5.156   5.092  12.879  0.8680 -1.1968  0.0996
16919TIP3   OH272171   3.537   6.370   0.065  0.2178 -0.7485  0.5259
16919TIP3    H172172   3.614   6.424   0.081 -0.4745  0.1143  0.9812
16919TIP3    H272173   3.481   6.425   0.010 -0.8308 -0.6950  1.6318
16920TIP3   OH272174   1.053   4.315  13.550  0.0861 -0.0485  0.0476
16920TIP3    H172175   0.989   4.272  13.493  0.7617 -1.4040  0.3001
16920TIP3    H272176   1.138   4.282  13.520  0.6477  1.4348 -0.0178
16921TIP3   OH272177   0.107   4.943   3.917 -0.7889 -0.0716 -0.7943
16921TIP3    H172178   0.016   4.928   3.892 -0.6569 -0.3921 -1.0908
16921TIP3    H272179   0.151   4.964   3.835 -0.4233 -0.7673 -0.7859
16922TIP3   OH272180   2.239   5.724   0.205 -0.2189  0.1401  0.1409
16922TIP3    H172181   2.165   5.698   0.261 -1.9678  1.0998 -1.6807
16922TIP3    H272182   2.314   5.722   0.264 -2.0698  1.4933  2.6608
16923TIP3   OH272183   2.856   1.860   1.355 -0.1633  0.0860  0.6061
16923TIP3    H172184   2.872   1.811   1.436  1.5965 -0.4334 -0.0494
16923TIP3    H272185   2.942   1.891   1.328 -1.0050  2.0035  0.0057
16924TIP3   OH272186   3.162   3.368   4.972 -0.4772  0.1781  0.2245
16924TIP3    H172187   3.163   3.387   4.878 -0.2956  1.3118  0.4485
16924TIP3    H272188   3.244   3.405   5.005  0.2435 -1.6569  0.5699
16925TIP3   OH272189   6.230   4.668   4.446 -0.3910  0.1566 -0.3792
16925TIP3    H172190   6.173   4.657   4.522 -0.4338  0.7607 -0.3196
16925TIP3    H272191   6.278   4.748   4.464  0.5659 -0.4127 -0.3798
16926TIP3   OH272192   4.109   1.229  16.099  0.1224  0.4333  0.4127
16926TIP3    H172193   4.107   1.134  16.094 -1.0057  0.4583  0.4202
16926TIP3    H272194   4.146   1.248  16.185 -0.6417  0.0024  0.8390
16927TIP3   OH272195   6.143   5.426  13.489  0.3265  0.1196 -0.1490
16927TIP3    H172196   6.191   5.368  13.429  1.2533  0.1648  0.5327
16927TIP3    H272197   6.125   5.504  13.438  0.1675 -0.2733 -0.6987
16928TIP3   OH272198   1.376   3.175   0.177  0.2625 -0.0217  0.3117
16928TIP3    H172199   1.290   3.207   0.205 -0.4763 -1.9083  0.2516
16928TIP3    H272200   1.438   3.228   0.228 -0.9626  0.0766  1.7646
16929TIP3   OH272201   3.531   3.106   5.208  0.2795  0.5080 -0.5000
16929TIP3    H172202   3.446   3.119   5.166  0.4695 -1.7489 -1.7096
16929TIP3    H272203   3.510   3.075   5.296 -0.1550  0.9488 -0.4494
16930TIP3   OH272204   4.284   0.640  13.993  0.8888  0.6205 -0.4981
16930TIP3    H172205   4.313   0.644  13.901  2.0473  0.9922 -0.1235
16930TIP3    H272206   4.251   0.728  14.011  0.7876  0.5861 -0.5130
16931TIP3   OH272207   5.306   3.181  14.606  0.1136  0.5466 -0.5504
16931TIP3    H172208   5.283   3.115  14.541 -0.9982  2.0938 -1.7873
16931TIP3    H272209   5.402   3.189  14.599  0.1152 -0.0203 -1.2752
16932TIP3   OH272210   0.237   0.611  11.337  0.1351  0.3250 -0.0580
16932TIP3    H172211   0.226   0.703  11.312  0.2430  0.5761  0.7970
16932TIP3    H272212   0.240   0.563  11.254  0.2066  1.1093 -0.5078
16933TIP3   OH272213   4.383   5.861  15.921 -0.2129  0.2502  0.0877
16933TIP3    H172214   4.393   5.788  15.981  1.5200 -0.4509 -1.0217
16933TIP3    H272215   4.472   5.882  15.892 -0.8247  1.8452 -0.7212
16934TIP3   OH272216   6.076   4.245  14.561 -0.3651  0.2898  0.1268
16934TIP3    H172217   6.023   4.323  14.550 -1.5682 -0.5735 -0.2698
16934TIP3    H272218   6.081   4.207  14.474  2.0880  1.0926 -0.1307
16935TIP3   OH272219   5.236   3.125  11.110 -0.3315  0.0491  0.4465
16935TIP3    H172220   5.227   3.049  11.053  0.9605 -0.2613  0.6286
16935TIP3    H272221   5.200   3.198  11.060 -1.8186 -0.7321  0.3734
16936TIP3   OH272222   4.589   5.732  13.788 -0.0065  0.0774 -0.0398
16936TIP3    H172223   4.517   5.794  13.771  1.3048  0.7762 -3.5562
16936TIP3    H272224   4.661   5.787  13.817  0.2237 -0.1940 -0.1017
16937TIP3   OH272225   0.734   0.709  15.593  0.1910  0.2651 -0.0840
16937TIP3    H172226   0.651   0.709  15.642  1.2928  0.8419  1.8526
16937TIP3    H272227   0.765   0.619  15.598 -0.2177  0.0896 -0.6521
16938TIP3   OH272228   5.613   2.708   5.607 -0.4889  0.2073 -0.0201
16938TIP3    H172229   5.565   2.634   5.645 -1.4740  1.4615  1.2264
16938TIP3    H272230   5.622   2.770   5.679  2.0424  0.5002 -0.5370
16939TIP3   OH272231   3.144   6.282  16.512  0.0819  0.0003 -0.1666
16939TIP3    H172232   3.092   6.305  16.435  1.2317 -0.6939 -1.1731
16939TIP3    H272233   3.147   6.187  16.512 -0.6149 -0.0269  1.2258
16940TIP3   OH272234   4.385   6.209  12.688  0.6567 -0.3467 -0.3779
16940TIP3    H172235   4.370   6.116  12.671  1.0887 -0.5550  0.3268
16940TIP3    H272236   4.298   6.248  12.688  0.4623 -0.7822 -0.5254
16941TIP3   OH272237   6.446   3.952   0.196 -0.6452 -0.1171  0.5763
16941TIP3    H172238   6.448   4.041   0.231 -3.3388  0.5340 -0.8195
16941TIP3    H272239   6.455   3.963   0.101 -1.7473 -1.2752  0.3244
16942TIP3   OH272240   6.763   0.555  14.866  0.0427  0.4274  1.3535
16942TIP3    H172241   6.756   0.468  14.827 -0.7524  0.8132  0.6235
16942TIP3    H272242   6.674   0.576  14.895  0.1288  1.2069  1.0691
16943TIP3   OH272243   5.455   1.075   4.910 -0.3948 -0.2317  0.3907
16943TIP3    H172244   5.477   1.134   4.839 -2.6899  0.2690  0.0480
16943TIP3    H272245   5.437   1.132   4.985 -0.3165 -0.6217  0.7109
16944TIP3   OH272246   5.451   4.092  14.541 -0.4653  0.0067 -0.4538
16944TIP3    H172247   5.510   4.051  14.477 -0.4494  1.1806 -1.1902
16944TIP3    H272248   5.411   4.018  14.587  0.1066 -0.8274 -1.2885
16945TIP3   OH272249   2.418   6.454  12.543  0.1219  0.3471  0.4350
16945TIP3    H172250   2.346   6.436  12.483  0.8512  1.9059 -0.9542
16945TIP3    H272251   2.420   6.549  12.550  2.9899  0.4349 -0.7901
16946TIP3   OH272252   6.015   0.669  12.936 -0.3666  0.4596 -0.1718
16946TIP3    H172253   5.938   0.691  12.989 -0.6672  0.6187 -0.6717
16946TIP3    H272254   6.037   0.579  12.961  0.5672  1.1307  1.5329
16947TIP3   OH272255   5.389   5.523  12.019 -0.3826 -0.3336  0.0025
16947TIP3    H172256   5.333   5.584  11.971 -1.7457  0.6920  2.7830
16947TIP3    H272257   5.477   5.539  11.984 -1.3257  0.2606 -2.2130
16948TIP3   OH272258   4.926   3.617  13.094 -0.1780 -0.0580 -0.2016
16948TIP3    H172259   4.934   3.672  13.016 -1.2048 -1.3855 -1.2517
16948TIP3    H272260   4.950   3.529  13.065  0.1187 -0.4455  1.1421
16949TIP3   OH272261   1.195   0.979  11.846 -0.1238  0.1460  0.0020
16949TIP3    H172262   1.213   0.892  11.811  1.2912  0.2515  0.4504
16949TIP3    H272263   1.108   0.971  11.886  0.9752 -1.7052  2.1136
16950TIP3   OH272264   3.057   2.876   5.851  0.1397 -0.0864  0.9414
16950TIP3    H172265   3.068   2.786   5.821  0.3913  0.2331  0.0424
16950TIP3    H272266   3.127   2.924   5.808 -0.6255  0.7282  0.5864
16951TIP3   OH272267   6.715   6.779   1.329  0.1387  0.2955  0.4132
16951TIP3    H172268   6.766   6.841   1.380 -0.8794  1.5596 -0.0624
16951TIP3    H272269   6.631   6.774   1.374 -0.2886  0.3889 -0.3546
16952TIP3   OH272270   1.512   0.961   6.317 -0.1589  0.1904  0.8036
16952TIP3    H172271   1.511   1.029   6.384  4.3513  0.9105  0.2742
16952TIP3    H272272   1.564   0.890   6.355 -1.4650 -1.3157 -0.1830
16953TIP3   OH272273   3.686   3.358  14.665  0.4371  0.5591 -0.1986
16953TIP3    H172274   3.750   3.428  14.652  0.3051  0.4905 -1.3148
16953TIP3    H272275   3.628   3.365  14.589 -0.6150  0.3408  0.5721
16954TIP3   OH272276   2.358   5.848  11.551  0.0203 -0.3159 -0.3410
16954TIP3    H172277   2.440   5.896  11.565  0.5178 -1.2615 -0.0279
16954TIP3    H272278   2.316   5.847  11.637  0.6945 -1.7057 -0.0220
16955TIP3   OH272279   2.287   1.781  15.144 -0.1465  0.2492 -0.3398
16955TIP3    H172280   2.251   1.837  15.076 -1.9352 -1.6864 -1.0316
16955TIP3    H272281   2.242   1.807  15.224 -1.3327 -0.5109 -0.7540
16956TIP3   OH272282   0.617   0.277   3.736  0.1254 -0.1622  0.2693
16956TIP3    H172283   0.531   0.255   3.699  0.4196 -0.2366 -0.3745
16956TIP3    H272284   0.670   0.198   3.723  0.7940  0.4580 -0.8725
16957TIP3   OH272285   5.345   4.932  12.358 -0.1602  0.5680 -0.0167
16957TIP3    H172286   5.321   4.949  12.267  0.4737  1.5553 -0.0177
16957TIP3    H272287   5.274   4.878  12.392 -0.2801 -0.0124 -1.1629
16958TIP3   OH272288   3.406   0.003   0.322 -0.7543 -0.0381 -0.0429
16958TIP3    H172289   3.406  -0.003   0.227 -0.8082 -1.2023  0.0194
16958TIP3    H272290   3.430   0.094   0.341  0.9921 -0.2380 -1.1502
16959TIP3   OH272291   3.569   3.372  11.822 -1.0102 -0.7732 -0.0393
16959TIP3    H172292   3.481   3.358  11.787 -0.7429  1.0856 -1.5337
16959TIP3    H272293   3.628   3.337  11.754 -0.4821  3.0906 -1.7052
16960TIP3   OH272294   4.602   5.205  16.725  0.1175 -0.4154 -0.3315
16960TIP3    H172295   4.599   5.118  16.766 -1.2124 -0.0433  0.3772
16960TIP3    H272296   4.652   5.258  16.786  3.1315 -1.2525 -1.9316
16961TIP3   OH272297   6.392   1.950  15.942 -0.1630 -0.0094  0.5711
16961TIP3    H172298   6.437   2.005  16.006  1.5211 -0.5173 -0.1547
16961TIP3    H272299   6.389   2.003  15.862 -1.4087  0.2555  0.7817
16962TIP3   OH272300   3.025   3.247   0.770  0.6045  0.5299 -0.2810
16962TIP3    H172301   3.014   3.334   0.809 -1.3720  0.0368  0.3157
16962TIP3    H272302   2.943   3.202   0.789  2.2413 -2.0823  0.9424
16963TIP3   OH272303   4.323   0.433   6.644  0.0754  0.1548  0.1102
16963TIP3    H172304   4.400   0.439   6.701  0.1303  0.0317  0.0467
16963TIP3    H272305   4.332   0.508   6.585 -0.5092  0.8744  0.9230
16964TIP3   OH272306   3.924   5.225  13.617  0.2844 -0.1491  0.1096
16964TIP3    H172307   3.903   5.316  13.638 -1.4430 -0.7447  1.0804
16964TIP3    H272308   3.859   5.200  13.552 -0.0746 -1.0699  0.8041
16965TIP3   OH272309   1.881   6.653  14.887  0.1979  0.8078  0.1453
16965TIP3    H172310   1.787   6.658  14.906 -0.1948  1.7282 -1.9336
16965TIP3    H272311   1.913   6.742  14.904  1.0910  0.0472  2.6829
16966TIP3   OH272312   2.683   5.559   0.705 -0.9228  0.2432  0.0865
16966TIP3    H172313   2.743   5.601   0.644  0.5171  0.5303  1.6782
16966TIP3    H272314   2.636   5.494   0.652  0.8683 -0.0727 -1.1403
16967TIP3   OH272315   4.535   4.368   2.672 -0.0335  0.2590 -0.1351
16967TIP3    H172316   4.571   4.443   2.719 -0.7821  1.0200 -0.7513
16967TIP3    H272317   4.450   4.352   2.715 -1.2995  1.7549 -1.9952
16968TIP3   OH272318   4.716   5.079  14.930 -0.0602 -0.0317 -0.1422
16968TIP3    H172319   4.724   5.136  14.854 -1.1416  1.5835  0.9419
16968TIP3    H272320   4.785   5.014  14.918 -0.0990  0.3003 -2.4076
16969TIP3   OH272321   0.212   3.793   5.428 -0.6324 -0.7161  0.1495
16969TIP3    H172322   0.269   3.864   5.458 -0.0004 -1.8025  1.6074
16969TIP3    H272323   0.266   3.744   5.366 -0.6001 -0.7169  0.1776
16970TIP3   OH272324   1.415   1.140   3.454  0.1023 -0.6876 -0.1307
16970TIP3    H172325   1.401   1.173   3.542  0.7555 -0.9520  0.0784
16970TIP3    H272326   1.354   1.190   3.399 -1.9325 -2.0900  0.7851
16971TIP3   OH272327   6.471   0.140   0.539  0.0621  0.7232  0.0606
16971TIP3    H172328   6.397   0.089   0.570  2.1630 -2.2817  0.3194
16971TIP3    H272329   6.545   0.112   0.593  1.2235  4.4401  0.5614
16972TIP3   OH272330   5.669   2.258   0.652 -0.5928  0.0280  0.0752
16972TIP3    H172331   5.670   2.309   0.571  0.8363  0.2474  0.2176
16972TIP3    H272332   5.681   2.322   0.722 -2.4967 -0.0807  0.5277
16973TIP3   OH272333   5.223   5.511   3.315 -0.1282  0.3233 -0.0781
16973TIP3    H172334   5.235   5.538   3.406  1.7721  1.0030 -0.5048
16973TIP3    H272335   5.287   5.562   3.266 -0.0012 -1.2410 -1.5909
16974TIP3   OH272336   4.150   1.878   1.323 -0.8104 -0.4228  0.3965
16974TIP3    H172337   4.192   1.926   1.394  0.0154  2.2199 -1.8097
16974TIP3    H272338   4.128   1.945   1.258 -1.2278 -2.8062 -2.0043
16975TIP3   OH272339   4.680   2.354  16.473  0.4622 -0.6630  0.0090
16975TIP3    H172340   4.702   2.417  16.405 -2.6692 -0.0912 -0.5499
16975TIP3    H272341   4.649   2.277  16.425 -2.2498 -0.0738  0.7141
16976TIP3   OH272342   1.512   2.407   5.923 -0.2757  0.1828 -0.5007
16976TIP3    H172343   1.475   2.425   5.837  1.2143  1.3157 -0.9214
16976TIP3    H272344   1.607   2.409   5.910 -0.0399 -0.6209  0.9646
16977TIP3   OH272345   1.821   2.052   1.657 -0.1559  0.4021 -0.0918
16977TIP3    H172346   1.861   2.016   1.737  0.0659  1.3228  0.2237
16977TIP3    H272347   1.889   2.042   1.590  0.1270  0.7545  0.1343
16978TIP3   OH272348   1.664   0.466   3.532 -0.0808  0.0302 -0.5454
16978TIP3    H172349   1.746   0.484   3.577 -0.4303 -0.8481  0.4769
16978TIP3    H272350   1.600   0.523   3.574  0.0235  0.8091 -1.4297
16979TIP3   OH272351   1.169   1.764  16.658 -0.3523  0.1045  0.6159
16979TIP3    H172352   1.184   1.853  16.627 -1.4294  0.1307  0.1574
16979TIP3    H272353   1.164   1.711  16.578  2.2651 -0.7065  0.9340
16980TIP3   OH272354   0.142   3.450  14.900 -0.3486  0.2127  0.1584
16980TIP3    H172355   0.081   3.391  14.943 -1.5794  2.7175  2.0191
16980TIP3    H272356   0.186   3.397  14.834 -3.1823 -2.1005  0.0765
16981TIP3   OH272357   3.604   3.404   5.886 -0.1855 -0.6064 -0.6559
16981TIP3    H172358   3.604   3.308   5.895 -1.1884 -0.5874 -0.4169
16981TIP3    H272359   3.651   3.420   5.804 -0.2701 -1.3174 -0.8492
16982TIP3   OH272360   4.237   2.104   6.121  0.2710 -0.3968  0.2235
16982TIP3    H172361   4.176   2.174   6.145 -0.9532 -1.7087  0.9411
16982TIP3    H272362   4.207   2.074   6.036  0.4959 -0.4161  0.1492
16983TIP3   OH272363   2.685   0.526   1.710 -0.4017  0.3625 -0.5963
16983TIP3    H172364   2.723   0.614   1.715  0.0476  0.1125  0.7029
16983TIP3    H272365   2.759   0.468   1.729 -0.5190 -0.3452 -2.2160
16984TIP3   OH272366   6.226   1.524  14.750 -0.2209 -0.1449 -0.0177
16984TIP3    H172367   6.197   1.605  14.708  1.4051  0.6032  0.2624
16984TIP3    H272368   6.236   1.547  14.843 -1.3986 -1.1293  0.3675
16985TIP3   OH272369   0.956   1.863  16.330 -0.2630 -0.3814  0.0655
16985TIP3    H172370   0.936   1.915  16.408  0.0856 -0.7604  0.4103
16985TIP3    H272371   0.907   1.782  16.342  1.6789 -1.4401  1.0594
16986TIP3   OH272372   2.235   1.015  14.173 -0.0609 -0.1325  0.2445
16986TIP3    H172373   2.155   0.978  14.138  0.8082 -1.1287 -0.7206
16986TIP3    H272374   2.271   0.946  14.230  0.2330  0.2094  0.4763
16987TIP3   OH272375   3.397   3.416   4.560 -0.2257 -0.5096  0.3446
16987TIP3    H172376   3.463   3.351   4.538  0.1296 -0.4153  1.1344
16987TIP3    H272377   3.429   3.497   4.522  0.0929 -0.4718  0.6959
16988TIP3   OH272378   6.456   6.590  14.058 -0.2372 -0.1497  0.2079
16988TIP3    H172379   6.491   6.640  13.985 -1.5179 -0.5627 -0.7162
16988TIP3    H272380   6.389   6.533  14.019 -0.3279 -1.0096  1.5629
16989TIP3   OH272381   4.551   0.513  13.954 -0.0970 -0.6278 -0.2514
16989TIP3    H172382   4.468   0.478  13.922 -0.2975 -0.3677 -0.0139
16989TIP3    H272383   4.602   0.530  13.875 -0.4145 -0.4212 -0.4101
16990TIP3   OH272384   3.411   6.244   6.036  0.0723 -0.3224 -0.5741
16990TIP3    H172385   3.450   6.186   6.102 -1.5799 -0.9901 -0.1574
16990TIP3    H272386   3.485   6.292   5.999  1.2673 -1.4825  0.2760
16991TIP3   OH272387   6.284   1.559  11.774 -0.1972  0.0164  0.1462
16991TIP3    H172388   6.372   1.595  11.782  0.0585 -0.6111  0.1792
16991TIP3    H272389   6.269   1.513  11.856  0.5346 -2.2529 -0.9476
16992TIP3   OH272390   2.318   4.108  16.924 -0.8175  0.3568  0.0359
16992TIP3    H172391   2.332   4.053  17.002 -0.6048  0.9806  0.4397
16992TIP3    H272392   2.403   4.109  16.881 -0.7412  0.6111  0.1898
16993TIP3   OH272393   6.204   0.237  12.194  0.4899  0.6047 -0.0225
16993TIP3    H172394   6.169   0.319  12.230 -0.3176 -0.0185  0.6327
16993TIP3    H272395   6.295   0.257  12.174 -0.3311  2.4026 -2.1978
16994TIP3   OH272396   2.324   0.340  13.538  0.1251 -0.7817 -0.2059
16994TIP3    H172397   2.352   0.254  13.504  0.1421 -0.5249 -0.8526
16994TIP3    H272398   2.331   0.398  13.462  0.5929 -0.1020  0.3660
16995TIP3   OH272399   0.475   1.993  12.817 -0.2242 -0.3550 -0.1853
16995TIP3    H172400   0.561   1.965  12.786 -0.5558  0.1277 -1.5799
16995TIP3    H272401   0.473   2.087  12.802 -0.8211 -0.2824  0.2940
16996TIP3   OH272402   0.524   4.877  11.833 -0.4035 -0.0298  0.2179
16996TIP3    H172403   0.437   4.903  11.863 -1.3143 -1.9503 -0.6832
16996TIP3    H272404   0.515   4.868  11.738  0.6916 -0.6353  0.1565
16997TIP3   OH272405   5.264   5.381  15.114 -0.3149 -0.3417  0.6279
16997TIP3    H172406   5.272   5.351  15.023  1.8383  1.2946  0.2436
16997TIP3    H272407   5.220   5.466  15.107  1.5770  0.6720  0.9483
16998TIP3   OH272408   0.843   4.987   5.520  0.0901  0.4973 -0.0547
16998TIP3    H172409   0.843   5.075   5.559 -2.4302  0.2980  0.4962
16998TIP3    H272410   0.891   4.933   5.583  2.1847  1.5460 -0.6793
16999TIP3   OH272411   0.686   0.591  16.913  0.4110  0.1708  0.1425
16999TIP3    H172412   0.739   0.665  16.943  0.7632 -0.5922  1.4933
16999TIP3    H272413   0.635   0.566  16.990  1.1890 -1.7353  0.0793
17000TIP3   OH272414   2.497   3.628  12.400  0.4468  0.1783 -0.4232
17000TIP3    H172415   2.465   3.718  12.393 -0.0814 -0.0239 -0.6997
17000TIP3    H272416   2.427   3.575  12.361 -1.0322 -0.7165  3.2188
17001TIP3   OH272417   6.647   6.517  12.547 -0.4149  0.6442 -0.0671
17001TIP3    H172418   6.586   6.472  12.605 -0.4544 -0.8305 -1.2431
17001TIP3    H272419   6.733   6.504  12.588  0.1000 -3.6865 -2.2343
17002TIP3   OH272420   5.220   3.147   4.476 -0.6868  0.2615 -0.3178
17002TIP3    H172421   5.278   3.166   4.402  0.2303  0.1321  0.3653
17002TIP3    H272422   5.153   3.215   4.471  0.6391  1.6225  0.0554
17003TIP3   OH272423   2.367   0.372   2.368 -0.4991  0.1742  0.0900
17003TIP3    H172424   2.349   0.457   2.329  0.3615  0.2059 -0.2469
17003TIP3    H272425   2.351   0.385   2.462 -0.4511  0.6822  0.0300
17004TIP3   OH272426   6.380   3.767  11.066 -0.5055  0.0552  0.0320
17004TIP3    H172427   6.463   3.786  11.111 -1.0408  0.3649  0.9104
17004TIP3    H272428   6.360   3.677  11.091  0.1786 -0.4431 -1.1735
17005TIP3   OH272429   2.506   0.095  11.775  0.1258  0.4652  0.1903
17005TIP3    H172430   2.493   0.040  11.853 -0.6828  0.9969  0.4431
17005TIP3    H272431   2.464   0.047  11.704 -1.2241  1.0730  0.5522
17006TIP3   OH272432   2.793   5.352  17.032  0.3116  0.7995 -0.7654
17006TIP3    H172433   2.807   5.386  16.944 -0.3011  2.0440 -0.4018
17006TIP3    H272434   2.880   5.323  17.061  0.7384  1.4803 -1.3438
17007TIP3   OH272435   2.868   4.445  15.643  0.2032  0.3054 -0.4728
17007TIP3    H172436   2.910   4.444  15.557  0.3138 -1.4777 -0.4066
17007TIP3    H272437   2.936   4.477  15.703  1.3014 -1.9808 -0.4687
17008TIP3   OH272438   4.877   0.940   5.296 -0.1561 -0.8630 -0.0764
17008TIP3    H172439   4.946   1.004   5.279  0.7630 -1.7919  0.1323
17008TIP3    H272440   4.842   0.919   5.210 -2.6498  2.2745  0.0630
17009TIP3   OH272441   3.615   1.681  13.353 -0.3888  0.4217  0.4508
17009TIP3    H172442   3.630   1.775  13.338  0.5998  0.0553 -0.9162
17009TIP3    H272443   3.675   1.659  13.424 -0.0933  0.6678  0.2786
17010TIP3   OH272444   6.201   5.272  12.247 -0.9970  0.7741  0.4496
17010TIP3    H172445   6.131   5.334  12.270  1.4452  3.1775  1.7283
17010TIP3    H272446   6.245   5.254  12.330  0.2289 -0.2979 -0.4062
17011TIP3   OH272447   3.632   5.057  15.902  0.2143 -0.5947  0.0137
17011TIP3    H172448   3.585   5.140  15.890  1.2234 -0.0841 -0.4610
17011TIP3    H272449   3.678   5.068  15.985 -0.1633 -0.9397  0.2751
17012TIP3   OH272450   5.754   2.634   6.835  0.2858 -0.2982 -0.1712
17012TIP3    H172451   5.667   2.658   6.804 -0.1220  0.9578  1.8639
17012TIP3    H272452   5.741   2.548   6.876  0.0198 -0.1792  0.0003
17013TIP3   OH272453   1.072   2.285  14.434  0.0166  0.0250  0.5965
17013TIP3    H172454   0.981   2.316  14.434  0.3525  1.0445  0.9484
17013TIP3    H272455   1.114   2.333  14.363 -0.2646 -2.1772 -1.1062
17014TIP3   OH272456   0.235   3.442  16.780  0.1757  0.0755 -0.0344
17014TIP3    H172457   0.290   3.473  16.852 -0.7495 -1.3834  1.3302
17014TIP3    H272458   0.255   3.349  16.773 -2.1008 -0.4946  0.5154
17015TIP3   OH272459   5.058   3.076   2.067  0.0594  0.2861 -0.2460
17015TIP3    H172460   5.080   3.089   1.975  0.3874 -0.7068 -0.3169
17015TIP3    H272461   4.967   3.046   2.066  0.3974 -0.7748 -0.3370
17016TIP3   OH272462   2.219   5.480  16.796 -0.4166 -0.0511 -0.9455
17016TIP3    H172463   2.311   5.463  16.815 -0.7364 -0.7466  0.0389
17016TIP3    H272464   2.219   5.528  16.714  0.6438 -3.1848 -2.8514
17017TIP3   OH272465   2.460   5.930   2.295 -0.0290  0.0643 -0.2291
17017TIP3    H172466   2.524   5.996   2.269 -1.4103  2.1945  1.6408
17017TIP3    H272467   2.510   5.869   2.350  0.6578  1.0965  0.3186
17018TIP3   OH272468   4.782   5.163  15.539 -0.4487 -0.1246  0.0605
17018TIP3    H172469   4.774   5.140  15.447 -1.7973  0.5063  0.0091
17018TIP3    H272470   4.862   5.214  15.544 -0.0970 -0.5916 -0.6651
17019TIP3   OH272471   6.634   2.864  14.744  0.2966 -0.5035  0.5136
17019TIP3    H172472   6.711   2.886  14.797  0.5474  0.6819 -0.3314
17019TIP3    H272473   6.565   2.848  14.808  1.2412 -1.5977  1.2784
17020TIP3   OH272474   0.688   5.175   4.559  0.1873  0.6177  0.2330
17020TIP3    H172475   0.658   5.115   4.491  1.4605 -0.7777  0.8767
17020TIP3    H272476   0.613   5.182   4.619 -0.3278  0.4898 -0.3908
17021TIP3   OH272477   2.519   5.013   1.542  0.4517  0.2773 -0.1905
17021TIP3    H172478   2.563   5.098   1.549  2.4898 -0.7766  0.3749
17021TIP3    H272479   2.522   4.992   1.449  0.1369  0.7513 -0.3032
17022TIP3   OH272480   6.576   6.661   4.758 -0.5028 -0.8742  0.0910
17022TIP3    H172481   6.522   6.635   4.684  1.1469 -0.5339 -1.2500
17022TIP3    H272482   6.540   6.745   4.786 -0.3260 -0.3702 -1.1648
17023TIP3   OH272483   5.449   1.477   1.551  0.0772 -0.2887  0.2710
17023TIP3    H172484   5.544   1.466   1.559  0.0005 -1.8541 -0.7154
17023TIP3    H272485   5.412   1.402   1.596 -0.6516 -0.6677 -0.9356
17024TIP3   OH272486   3.568   5.718   1.152  0.2611 -0.7152  0.0225
17024TIP3    H172487   3.508   5.778   1.195  0.6463 -0.3049 -0.0123
17024TIP3    H272488   3.511   5.650   1.114 -0.3811  0.9053 -2.0048
17025TIP3   OH272489   4.970   1.520  14.045  0.0643 -0.1809 -0.2212
17025TIP3    H172490   4.886   1.563  14.055 -0.2747 -1.2344  1.8790
17025TIP3    H272491   4.950   1.440  13.996 -0.2556 -0.6829  0.7190
17026TIP3   OH272492   4.376   1.870   2.982  0.7377 -0.7536  0.1591
17026TIP3    H172493   4.429   1.818   3.042  0.9552 -0.0304  0.5901
17026TIP3    H272494   4.430   1.878   2.903  0.8486 -0.8820  0.2223
17027TIP3   OH272495   3.345   0.650  17.212 -0.0040 -0.1015 -0.4409
17027TIP3    H172496   3.399   0.573  17.193 -1.2826 -0.7623 -1.4954
17027TIP3    H272497   3.394   0.697  17.280  0.7041 -1.9350  0.3639
17028TIP3   OH272498   2.416   3.613   2.665  0.8771 -0.3338  0.9144
17028TIP3    H172499   2.454   3.526   2.666  0.2201 -0.6442 -0.5257
17028TIP3    H272500   2.396   3.632   2.757  0.1472 -2.0752  1.1155
17029TIP3   OH272501   1.770   3.837  12.235  0.1000  0.4348 -0.6796
17029TIP3    H172502   1.719   3.918  12.228  0.6891  0.8185 -0.6079
17029TIP3    H272503   1.847   3.853  12.181  0.8808  0.4541  0.4133
17030TIP3   OH272504   2.093   3.045  11.385 -0.9970 -0.4245 -0.2309
17030TIP3    H172505   2.076   2.968  11.331 -0.3373  0.0461 -1.1145
17030TIP3    H272506   2.154   3.014  11.452 -2.3055 -1.1612  0.6325
17031TIP3   OH272507   2.724   1.458  12.521 -0.6336 -0.2868 -0.3025
17031TIP3    H172508   2.704   1.411  12.602 -1.2818 -1.9007 -1.3707
17031TIP3    H272509   2.646   1.510  12.503 -1.0490 -0.9979 -0.6042
17032TIP3   OH272510   5.900   3.291   4.223  0.0653  0.0950  0.0394
17032TIP3    H172511   5.913   3.253   4.310 -0.0920 -3.3587 -1.3751
17032TIP3    H272512   5.984   3.280   4.179 -0.4716 -0.0700 -0.9583
17033TIP3   OH272513   2.441   1.891   3.011  0.2887 -0.1846 -0.7011
17033TIP3    H172514   2.402   1.901   3.098 -2.4711  0.3558 -1.9561
17033TIP3    H272515   2.462   1.980   2.983  1.1280 -0.3525 -0.6122
17034TIP3   OH272516   3.293   4.343   5.664 -0.4405  0.4194  0.4439
17034TIP3    H172517   3.262   4.380   5.581  1.6569 -0.0646 -0.5913
17034TIP3    H272518   3.364   4.401   5.691 -0.6192  0.1438  1.5368
17035TIP3   OH272519   1.754   5.476   1.186 -0.3809  0.3762  0.2251
17035TIP3    H172520   1.691   5.407   1.204  0.8188 -1.1122 -1.1708
17035TIP3    H272521   1.742   5.495   1.093  0.0578  1.2831  0.3526
17036TIP3   OH272522   1.975   6.680   5.216 -0.0293 -0.2870  0.1625
17036TIP3    H172523   2.026   6.745   5.168  0.4273 -0.7164  0.0568
17036TIP3    H272524   1.955   6.722   5.299  0.3813 -0.0572  0.1493
17037TIP3   OH272525   3.990   5.707   1.928  0.2804 -0.0244 -0.4621
17037TIP3    H172526   3.955   5.792   1.904  0.8226  0.6622  1.1329
17037TIP3    H272527   4.040   5.679   1.851 -0.3059  0.8542 -1.1771
17038TIP3   OH272528   0.539   2.205  16.577 -0.5288 -0.7713  0.3168
17038TIP3    H172529   0.514   2.292  16.608  0.2728 -0.1043 -0.8833
17038TIP3    H272530   0.628   2.216  16.544 -0.3138 -2.1204  0.4264
17039TIP3   OH272531   0.655   3.253   5.429  0.1503  0.0421 -0.2037
17039TIP3    H172532   0.658   3.167   5.470 -1.1262 -0.1527 -0.4936
17039TIP3    H272533   0.661   3.315   5.501  2.3859 -0.2687 -0.0930
17040TIP3   OH272534   0.806   6.428  10.757 -0.5862 -0.0540  0.1047
17040TIP3    H172535   0.843   6.458  10.674  0.0522  1.7400  1.0197
17040TIP3    H272536   0.872   6.449  10.822 -0.8545 -1.9405  1.0173
17041TIP3   OH272537   4.241   0.145   4.980 -0.3455  0.3667 -0.4490
17041TIP3    H172538   4.159   0.097   4.996 -0.7433  1.2373  0.1731
17041TIP3    H272539   4.308   0.090   5.020 -0.8971  0.7117  0.9842
17042TIP3   OH272540   1.257   5.767  16.444  0.3224  0.3782 -0.0340
17042TIP3    H172541   1.184   5.795  16.389 -0.9658 -2.2159  0.2737
17042TIP3    H272542   1.319   5.727  16.384  0.3274  0.3438 -0.0082
17043TIP3   OH272543   6.303   6.364  12.442 -0.6246 -0.3591 -0.5414
17043TIP3    H172544   6.328   6.273  12.458  2.0978  0.6797  1.4731
17043TIP3    H272545   6.375   6.399  12.388 -0.4530  1.2142  0.6878
17044TIP3   OH272546   3.983   5.024  10.887 -0.3189 -0.2233  0.0317
17044TIP3    H172547   3.930   4.982  10.820 -1.0386 -1.5923  1.4138
17044TIP3    H272548   4.049   4.958  10.910  1.1706  0.9643 -0.7146
17045TIP3   OH272549   1.781   6.296   3.973 -0.0073 -0.3852  0.4444
17045TIP3    H172550   1.696   6.334   3.954 -1.2388 -1.6396  3.1516
17045TIP3    H272551   1.843   6.346   3.920 -2.5922 -0.5909 -2.9304
17046TIP3   OH272552   4.246   0.796   0.837  0.0941 -0.2361 -0.1257
17046TIP3    H172553   4.156   0.768   0.853 -0.0752  0.1970 -0.3104
17046TIP3    H272554   4.246   0.821   0.744 -0.3061  2.4201  0.5453
17047TIP3   OH272555   5.227   5.954  16.539 -0.4603  0.5065  0.1180
17047TIP3    H172556   5.159   5.929  16.602 -0.8521 -0.4614 -0.6845
17047TIP3    H272557   5.199   6.039  16.506 -1.1935  0.1846 -0.0888
17048TIP3   OH272558   4.235   5.846   2.890 -0.0448 -0.0103 -0.6613
17048TIP3    H172559   4.182   5.892   2.825 -0.6514 -0.8629 -0.7656
17048TIP3    H272560   4.184   5.769   2.914  0.5571 -0.1466  0.2025
17049TIP3   OH272561   5.185   4.244   0.965  0.5907 -0.5372  0.7958
17049TIP3    H172562   5.148   4.320   1.010 -0.4050 -1.0095  0.7819
17049TIP3    H272563   5.109   4.195   0.934  1.2456 -0.8863 -0.2958
17050TIP3   OH272564   6.454   2.195  16.894 -0.4352 -0.1866 -0.1108
17050TIP3    H172565   6.460   2.291  16.900  1.8450 -0.1035 -2.7395
17050TIP3    H272566   6.371   2.180  16.848 -0.9865  0.4988  0.6391
17051TIP3   OH272567   6.736   3.134   5.602  0.2578 -0.0761  0.1719
17051TIP3    H172568   6.689   3.184   5.669  1.8711 -0.4929  1.6479
17051TIP3    H272569   6.789   3.072   5.651  1.2146 -0.6180 -1.5130
17052TIP3   OH272570   4.667   3.519   1.954 -0.1456  0.3129  0.7671
17052TIP3    H172571   4.578   3.507   1.987 -0.3447 -0.5397 -0.0529
17052TIP3    H272572   4.660   3.590   1.891 -0.2445  0.2495  0.7071
17053TIP3   OH272573   3.483   2.838  16.279 -0.4922  0.1472  0.3608
17053TIP3    H172574   3.476   2.926  16.317 -0.9803 -0.3030  1.3416
17053TIP3    H272575   3.402   2.794  16.307 -0.1559 -0.6727  0.0411
17054TIP3   OH272576   1.019   2.028   1.081 -0.1000  0.7370  0.1882
17054TIP3    H172577   1.066   1.997   1.003  0.7247 -1.9458  1.6859
17054TIP3    H272578   0.930   2.044   1.051  0.3335  0.2242 -1.4265
17055TIP3   OH272579   3.614   3.537   4.900  0.2651 -0.3339  0.2844
17055TIP3    H172580   3.551   3.504   4.964 -0.9001 -1.1068 -1.2238
17055TIP3    H272581   3.590   3.628   4.887 -1.1474 -0.8592 -0.9525
17056TIP3   OH272582   2.137   5.187   0.582  0.7502 -0.0539  0.3807
17056TIP3    H172583   2.045   5.161   0.574  1.1673 -0.9478 -1.8446
17056TIP3    H272584   2.146   5.264   0.526  1.6127 -0.7117 -0.4182
17057TIP3   OH272585   0.587   2.251  11.845  0.3239 -0.2902  0.0340
17057TIP3    H172586   0.600   2.317  11.777 -0.6942 -1.2224 -1.1020
17057TIP3    H272587   0.674   2.213  11.859  0.7609  0.7290  0.1192
17058TIP3   OH272588   0.274   2.785  13.489 -0.0030  0.2253 -0.1590
17058TIP3    H172589   0.268   2.721  13.560 -0.3804 -0.1363 -0.5122
17058TIP3    H272590   0.354   2.835  13.508 -0.7623  0.9696  1.2038
17059TIP3   OH272591   4.472   5.050   2.072 -0.0962  0.2937  0.2275
17059TIP3    H172592   4.411   5.078   2.140  0.2853 -1.9055  1.5277
17059TIP3    H272593   4.550   5.104   2.085 -0.3548  0.4933  0.9500
17060TIP3   OH272594   4.440   5.660   3.314 -0.0617 -0.2161  0.1370
17060TIP3    H172595   4.381   5.651   3.389  0.4180 -0.3683  0.4940
17060TIP3    H272596   4.527   5.668   3.352 -0.0048  1.6192 -0.3287
17061TIP3   OH272597   0.047   4.948   5.553  0.2176 -0.1913  0.4179
17061TIP3    H172598  -0.046   4.952   5.531  0.5046  0.8856 -0.5911
17061TIP3    H272599   0.055   5.002   5.632 -0.1185 -0.8437  0.9092
17062TIP3   OH272600   3.300   1.270   4.527 -0.6491 -0.0030 -0.9543
17062TIP3    H172601   3.237   1.310   4.588 -1.9589 -2.2891 -0.7239
17062TIP3    H272602   3.373   1.331   4.524 -1.0392  0.7169  2.0966
17063TIP3   OH272603   1.260   5.210   0.828  0.1700 -1.1209  0.3119
17063TIP3    H172604   1.276   5.212   0.734 -1.0995  2.2428  0.0773
17063TIP3    H272605   1.164   5.214   0.836  0.3184  0.4183  1.6918
17064TIP3   OH272606   5.207   2.597   1.079  0.2125 -0.0398 -0.3557
17064TIP3    H172607   5.277   2.575   1.139  0.6555 -0.1264 -0.9004
17064TIP3    H272608   5.132   2.547   1.110  0.9225 -1.4953 -0.9398
17065TIP3   OH272609   3.788   2.480  12.637  0.2808  0.4014  0.3292
17065TIP3    H172610   3.802   2.514  12.725 -1.3909 -0.7233  1.0495
17065TIP3    H272611   3.833   2.395  12.637 -1.5374 -0.5734  0.7995
17066TIP3   OH272612   6.730   4.617   4.044  0.3864  0.2237  0.6275
17066TIP3    H172613   6.677   4.661   4.111  0.1233  0.5315  0.2222
17066TIP3    H272614   6.672   4.549   4.009  0.7060 -0.2853  1.0784
17067TIP3   OH272615   5.019   4.862  15.181 -0.1017 -0.6954 -0.2971
17067TIP3    H172616   5.086   4.828  15.121 -0.3243  1.9157 -2.1549
17067TIP3    H272617   5.018   4.957  15.163 -1.4012 -0.1116  2.6449
17068TIP3   OH272618   0.991   1.559   5.930 -0.0638 -0.2169  0.1008
17068TIP3    H172619   0.996   1.638   5.983  0.7514 -0.2369  0.0583
17068TIP3    H272620   0.902   1.526   5.944 -0.0307  0.0740  1.0170
17069TIP3   OH272621   5.699   6.412   2.435 -0.3345 -0.3569  0.0373
17069TIP3    H172622   5.778   6.466   2.444  0.1754 -1.0390 -0.2582
17069TIP3    H272623   5.689   6.369   2.519 -1.2624  0.8844  0.5761
17070TIP3   OH272624   3.481   3.827  14.314  0.8298 -0.0342 -0.2476
17070TIP3    H172625   3.463   3.909  14.269 -0.0542 -0.5273 -0.8088
17070TIP3    H272626   3.460   3.845  14.406  1.2018  0.5345 -0.2759
17071TIP3   OH272627   6.732   5.763   2.301  0.1444 -0.0843 -0.4024
17071TIP3    H172628   6.665   5.723   2.246  1.0955 -2.3065  0.0255
17071TIP3    H272629   6.810   5.765   2.246  1.3788 -3.2442  1.1269
17072TIP3   OH272630   2.376   3.056   3.497  0.6101  0.0723 -0.8107
17072TIP3    H172631   2.454   3.093   3.538 -1.1816 -0.0092  2.8437
17072TIP3    H272632   2.392   2.962   3.495 -0.1988 -0.1697  1.9115
17073TIP3   OH272633   2.301   5.450   4.403 -0.3526 -0.0773  0.6423
17073TIP3    H172634   2.272   5.363   4.376 -2.0871  0.5027  0.6210
17073TIP3    H272635   2.226   5.488   4.449 -0.7284  2.6327 -2.0724
17074TIP3   OH272636   3.700   0.997  11.551  0.1742 -0.1705  0.8088
17074TIP3    H172637   3.682   0.940  11.476 -0.3165  2.2082 -0.9102
17074TIP3    H272638   3.613   1.023  11.582  0.4108  1.8170 -0.1359
17075TIP3   OH272639   2.080   2.619   5.783  0.5489  0.1672 -0.5403
17075TIP3    H172640   2.144   2.570   5.834 -0.5450 -0.0611  0.6457
17075TIP3    H272641   2.052   2.557   5.715 -1.0413 -0.9966  1.1298
17076TIP3   OH272642   2.534   6.137   0.959 -0.6204 -0.0083  0.1281
17076TIP3    H172643   2.469   6.208   0.957  0.8523  1.3915  0.2754
17076TIP3    H272644   2.591   6.160   1.033 -0.0939 -1.3232  0.1345
17077TIP3   OH272645   1.477   3.550  12.227 -0.2071  0.0891  0.4940
17077TIP3    H172646   1.437   3.637  12.220  0.7191  0.4426 -0.6303
17077TIP3    H272647   1.407   3.490  12.201 -0.7765  0.5081  1.0313
17078TIP3   OH272648   1.999   1.451   3.616  0.5031  0.0034  0.1468
17078TIP3    H172649   1.976   1.467   3.524  0.6766  2.1039  0.4271
17078TIP3    H272650   1.936   1.386   3.646  1.6925 -2.2152 -1.9931
17079TIP3   OH272651   2.168   3.530   3.882  0.2738 -0.4427 -0.3205
17079TIP3    H172652   2.131   3.490   3.803 -0.4199 -0.6460  0.0973
17079TIP3    H272653   2.091   3.547   3.937  0.5159  1.7853 -0.6409
17080TIP3   OH272654   3.643   2.003  12.951 -0.5611 -0.6084 -0.1510
17080TIP3    H172655   3.657   2.030  13.042 -0.0453 -0.3647 -0.3050
17080TIP3    H272656   3.730   1.988  12.916 -0.7939 -1.4565 -0.3851
17081TIP3   OH272657   1.468   2.380  13.267 -0.1026 -0.0902  0.9934
17081TIP3    H172658   1.408   2.404  13.337  0.9134  2.2218  1.1064
17081TIP3    H272659   1.413   2.376  13.188 -0.9252 -0.9454  1.6092
17082TIP3   OH272660   1.966   1.670  11.995 -0.0816  0.0415  0.0052
17082TIP3    H172661   2.044   1.654  12.049 -0.8158 -1.5038  0.6470
17082TIP3    H272662   1.938   1.758  12.019 -0.3975 -0.6255  2.1583
17083TIP3   OH272663   4.796   4.753  13.929  0.0779  0.0073  0.5430
17083TIP3    H172664   4.845   4.835  13.937  0.7892 -0.3054 -0.4522
17083TIP3    H272665   4.855   4.695  13.880 -0.9453 -0.6564  0.0900
17084TIP3   OH272666   3.512   3.092   3.893 -0.6796  0.0339 -0.3596
17084TIP3    H172667   3.433   3.040   3.881 -0.2733 -0.1870 -2.2697
17084TIP3    H272668   3.514   3.150   3.816 -0.1891  1.6236  0.8294
17085TIP3   OH272669   4.234   3.092   5.151  0.5822  0.8921 -0.2001
17085TIP3    H172670   4.297   3.164   5.158  3.5196 -1.5607 -0.1617
17085TIP3    H272671   4.229   3.056   5.240 -0.3284  0.6219 -0.3611
17086TIP3   OH272672   4.957   3.553  15.803  0.2358  0.7030 -0.5076
17086TIP3    H172673   4.920   3.630  15.846 -0.1923 -1.0206  2.3496
17086TIP3    H272674   4.881   3.498  15.782  0.7218 -0.1667 -0.0358
17087TIP3   OH272675   1.455   4.262   2.334  0.0548  0.1683 -0.5963
17087TIP3    H172676   1.420   4.279   2.422  0.0715 -0.9906 -0.3516
17087TIP3    H272677   1.541   4.223   2.350  0.2771  0.4384 -1.1396
17088TIP3   OH272678   1.256   1.096   0.902  0.1767  0.3805  0.4640
17088TIP3    H172679   1.334   1.137   0.938 -1.6175  2.2959  2.2904
17088TIP3    H272680   1.220   1.044   0.974 -1.6454  1.6026  0.4717
17089TIP3   OH272681   0.767   4.998   3.848 -0.3318  0.3197  0.2597
17089TIP3    H172682   0.757   5.072   3.908 -0.5614  0.9972 -0.6029
17089TIP3    H272683   0.678   4.980   3.818 -0.3053 -0.4509  0.6222
17090TIP3   OH272684   2.954   1.580   4.040  0.5689  0.5413 -0.4749
17090TIP3    H172685   2.955   1.664   3.995 -3.0529 -1.0604 -3.8954
17090TIP3    H272686   2.979   1.517   3.972  1.2839 -1.3398  1.4925
17091TIP3   OH272687   2.619   1.660   3.901  0.4305  0.3226 -0.5669
17091TIP3    H172688   2.696   1.666   3.846 -0.1017 -0.5588 -1.4226
17091TIP3    H272689   2.647   1.608   3.976  1.1144  1.4074 -0.0584
17092TIP3   OH272690   1.766   4.332   5.043 -0.1522 -0.7116  0.0103
17092TIP3    H172691   1.852   4.357   5.011 -0.5976 -0.3942 -0.9667
17092TIP3    H272692   1.763   4.237   5.034 -0.0463 -0.6845 -0.2929
17093TIP3   OH272693   1.002   1.943  11.315  0.0833  0.2963 -0.2044
17093TIP3    H172694   1.031   1.898  11.395  2.0668 -0.3252 -1.2418
17093TIP3    H272695   0.963   1.874  11.261  1.7664  0.0739 -1.1623
17094TIP3   OH272696   0.212   1.918  15.782  0.1291  0.4456 -0.0446
17094TIP3    H172697   0.183   1.827  15.794 -1.6026  1.0425  0.5217
17094TIP3    H272698   0.285   1.912  15.721  0.1073 -1.3413  0.0638
17095TIP3   OH272699   0.307   6.119  16.687 -0.5301  0.0908 -0.2344
17095TIP3    H172700   0.353   6.090  16.766 -1.9961  0.5228  0.7971
17095TIP3    H272701   0.368   6.181  16.646  0.7087 -0.9829 -0.0567
17096TIP3   OH272702   3.978   0.637   4.771 -0.5386  0.2585  0.5787
17096TIP3    H172703   4.033   0.567   4.735  0.5078  1.8432 -1.0223
17096TIP3    H272704   3.889   0.613   4.746  0.1044  1.0714 -2.8320
17097TIP3   OH272705   6.173   0.977   0.112  0.6424 -0.1225 -0.1850
17097TIP3    H172706   6.234   1.043   0.080  1.7124 -0.2708  1.5054
17097TIP3    H272707   6.226   0.919   0.167 -0.1692 -2.7157 -2.0209
17098TIP3   OH272708   0.441   5.096  12.724  0.2808  0.8393 -0.1748
17098TIP3    H172709   0.490   5.014  12.730  1.3431  1.5223  0.6411
17098TIP3    H272710   0.349   5.068  12.719  0.4111 -0.3567  2.9602
17099TIP3   OH272711   5.140   4.013   3.102 -0.8186 -0.2621 -0.0194
17099TIP3    H172712   5.074   3.982   3.038 -0.8163 -0.4279  0.0582
17099TIP3    H272713   5.219   4.025   3.050 -0.4223 -1.7727  0.2066
17100TIP3   OH272714   3.583   3.729   3.870 -0.7380 -0.8090 -0.3899
17100TIP3    H172715   3.612   3.667   3.803 -1.7403 -1.2164 -0.4545
17100TIP3    H272716   3.611   3.815   3.837  1.4373 -1.2990  0.1319
17101TIP3   OH272717   6.391   2.740   4.770 -0.1777  0.0990 -0.5769
17101TIP3    H172718   6.422   2.671   4.712 -0.7678 -3.0917  2.7029
17101TIP3    H272719   6.296   2.737   4.762 -0.2992 -0.8562  1.0226
17102TIP3   OH272720   5.776   6.757   0.453 -0.1734  0.1557 -0.2223
17102TIP3    H172721   5.713   6.685   0.455 -1.2162  1.0740  0.9000
17102TIP3    H272722   5.736   6.823   0.397  0.2325  0.3383 -0.2989
17103TIP3   OH272723   4.749   4.878   1.285  0.1318 -0.1362  1.2986
17103TIP3    H172724   4.800   4.801   1.257  0.5972  0.4997  0.3715
17103TIP3    H272725   4.807   4.952   1.267 -0.1662  0.4063  2.5467
17104TIP3   OH272726   1.467   1.026  11.523  0.3660  0.3254 -0.3415
17104TIP3    H172727   1.550   0.994  11.488  0.4032  1.1389 -1.0354
17104TIP3    H272728   1.413   1.040  11.446 -1.3086 -2.5554  0.2566
17105TIP3   OH272729   6.527   1.283  13.455 -0.5298  0.5370 -0.1489
17105TIP3    H172730   6.531   1.288  13.550  0.9436 -2.5806  0.0231
17105TIP3    H272731   6.611   1.244  13.429 -2.0247 -1.2602 -2.4823
17106TIP3   OH272732   4.735   2.950  11.690  0.2472 -0.0398 -0.2250
17106TIP3    H172733   4.687   2.876  11.728 -0.1578  0.6502  0.6425
17106TIP3    H272734   4.669   3.020  11.684  0.8729  0.5657 -0.0819
17107TIP3   OH272735   0.028   4.968  10.511  0.1235 -0.0106  0.6950
17107TIP3    H172736   0.122   4.969  10.494  0.1215  2.6472  0.7043
17107TIP3    H272737   0.008   4.876  10.526  3.2336 -0.3370  3.4456
17108TIP3   OH272738   4.664   2.648  10.435  0.0691  0.3631 -0.3564
17108TIP3    H172739   4.707   2.571  10.400  2.3884  1.0393  0.8954
17108TIP3    H272740   4.581   2.615  10.471  0.5558 -1.3461 -0.7600
17109TIP3   OH272741   4.699   3.165   3.730 -0.0791 -0.1624 -0.6763
17109TIP3    H172742   4.685   3.087   3.677 -0.2202 -0.0421 -0.8176
17109TIP3    H272743   4.762   3.218   3.680 -1.0183  0.4382 -1.2373
17110TIP3   OH272744   1.670   4.818  13.851  0.2317  0.5735  0.7259
17110TIP3    H172745   1.652   4.860  13.935 -0.5357 -0.8331  1.2799
17110TIP3    H272746   1.586   4.781  13.824  0.8540 -0.4811  0.1869
17111TIP3   OH272747   0.294   1.172  10.889  0.1286 -0.4428 -0.4693
17111TIP3    H172748   0.330   1.227  10.819  1.5942  0.5602  1.0030
17111TIP3    H272749   0.338   1.088  10.878  0.5485 -0.2086 -0.6018
17112TIP3   OH272750   1.215   5.731   1.410  0.0500 -0.2448  0.1755
17112TIP3    H172751   1.184   5.648   1.446 -1.5684  1.0583  1.9461
17112TIP3    H272752   1.175   5.736   1.323 -1.7373 -0.3276  0.9570
17113TIP3   OH272753   2.449   5.279  14.019 -0.3937  0.7145 -0.9200
17113TIP3    H172754   2.503   5.213  13.975 -1.0278 -0.2951 -0.1981
17113TIP3    H272755   2.506   5.316  14.087 -1.7100 -2.9604  2.3167
17114TIP3   OH272756   0.723   4.948  17.192  0.3747 -0.0139 -0.6829
17114TIP3    H172757   0.735   5.018  17.257  0.3761  0.6075 -1.3469
17114TIP3    H272758   0.812   4.929  17.161  0.6093 -1.7671  0.9942
17115TIP3   OH272759   1.166   5.937  14.024 -0.3713 -0.2980  0.0990
17115TIP3    H172760   1.142   5.980  13.942  0.0245 -0.1323  0.0701
17115TIP3    H272761   1.114   5.981  14.091 -0.5652 -0.3173 -0.0376
17116TIP3   OH272762   0.394   2.540   5.231  0.8051  0.1179  0.1784
17116TIP3    H172763   0.380   2.507   5.142  1.2062 -1.5698  0.7373
17116TIP3    H272764   0.308   2.537   5.271  0.4865  1.5591 -0.3652
17117TIP3   OH272765   3.641   4.814   6.878  0.2210 -0.0895  0.3842
17117TIP3    H172766   3.583   4.744   6.849  2.2305 -1.3603 -0.5975
17117TIP3    H272767   3.729   4.776   6.876  0.9289  1.1868  3.7869
17118TIP3   OH272768   5.604   3.112   1.933 -0.1777  0.4971 -0.2061
17118TIP3    H172769   5.668   3.072   1.873 -0.8653 -0.1096 -0.5436
17118TIP3    H272770   5.640   3.097   2.020 -1.1824 -2.2779 -0.2180
17119TIP3   OH272771   0.322   5.435   2.398  0.0468 -0.1703  0.1718
17119TIP3    H172772   0.324   5.372   2.470 -1.3911 -0.6580 -0.2009
17119TIP3    H272773   0.355   5.386   2.322  0.6671  0.0681  0.2851
17120TIP3   OH272774   5.494   0.670   3.150  0.9725 -0.0991 -0.3439
17120TIP3    H172775   5.474   0.748   3.097 -0.6822 -1.0656 -1.1678
17120TIP3    H272776   5.550   0.616   3.094  1.3604  0.0699 -0.1207
17121TIP3   OH272777   0.637   5.936   2.843  0.0041 -0.3922  0.1955
17121TIP3    H172778   0.707   5.906   2.901 -0.7030  0.7441  1.6589
17121TIP3    H272779   0.557   5.911   2.887 -0.5490  0.3011 -0.4052
17122TIP3   OH272780   4.038   4.740  11.813 -0.0722  0.3795 -0.4034
17122TIP3    H172781   4.119   4.713  11.855 -0.1387 -0.1907 -0.6420
17122TIP3    H272782   4.067   4.789  11.736  0.0440  0.7013 -0.1568
17123TIP3   OH272783   0.041   0.388  12.269  0.1323 -0.4755  0.2919
17123TIP3    H172784   0.049   0.450  12.342 -0.5259  0.3846 -0.3423
17123TIP3    H272785  -0.043   0.411  12.229  1.0167 -0.1645 -1.4340
17124TIP3   OH272786   5.381   6.319  11.005  0.6728  0.1485 -0.2953
17124TIP3    H172787   5.364   6.378  10.932 -1.6779  1.2883  1.1018
17124TIP3    H272788   5.298   6.272  11.017  1.8404 -1.8944  0.0059
17125TIP3   OH272789   3.851   6.329  14.516 -0.3844  0.0579 -0.0929
17125TIP3    H172790   3.807   6.296  14.594 -1.7504 -0.0800 -0.9109
17125TIP3    H272791   3.794   6.304  14.444 -0.7504  2.9281 -0.8565
17126TIP3   OH272792   5.225   4.001  12.251 -0.0058  0.3928 -0.2902
17126TIP3    H172793   5.190   4.089  12.239  0.8880  0.7745 -0.1580
17126TIP3    H272794   5.317   4.015  12.273  0.1304 -0.5740 -0.2298
17127TIP3   OH272795   4.752   5.113  15.220  0.1520  0.0126  0.6687
17127TIP3    H172796   4.798   5.196  15.211 -0.3388  0.1510 -0.5809
17127TIP3    H272797   4.719   5.094  15.133 -1.6850 -0.3716  1.4350
17128TIP3   OH272798   1.945   2.385  11.626 -0.1957 -0.1496  0.1569
17128TIP3    H172799   2.017   2.328  11.597  1.4531  1.2217  1.3967
17128TIP3    H272800   1.922   2.435  11.548  0.5581 -0.2452 -0.1372
17129TIP3   OH272801   0.571   4.068   6.171 -0.6275 -0.2441 -0.0988
17129TIP3    H172802   0.591   4.139   6.231 -0.9302 -0.2897  0.0598
17129TIP3    H272803   0.653   4.049   6.126 -0.5625  0.2444 -0.1806
17130TIP3   OH272804   0.766   4.737  13.017  0.5917 -0.1687  0.6188
17130TIP3    H172805   0.773   4.726  13.112 -2.5513  0.7696  1.0196
17130TIP3    H272806   0.740   4.651  12.985  2.3401 -0.6674  0.5054
17131TIP3   OH272807   6.117   4.062   2.209  0.0748 -0.0045  0.1022
17131TIP3    H172808   6.131   4.022   2.295 -2.4762 -2.1055 -0.4102
17131TIP3    H272809   6.116   3.988   2.148 -0.1158  1.2774 -1.4740
17132TIP3   OH272810   3.041   1.322   2.187  0.3560 -0.3126 -0.1692
17132TIP3    H172811   3.129   1.289   2.169  1.4906  2.3604  0.2348
17132TIP3    H272812   3.005   1.343   2.100  1.3021  1.4634 -0.1427
17133TIP3   OH272813   0.551   2.326   2.181 -0.2836  0.1703 -0.0816
17133TIP3    H172814   0.537   2.402   2.236  0.0762 -0.4415  0.8648
17133TIP3    H272815   0.572   2.255   2.242 -1.1835 -0.8273 -0.8996
17134TIP3   OH272816   5.027   0.736   3.961  0.2734 -0.3072 -0.2434
17134TIP3    H172817   4.956   0.774   4.012  2.5464  1.0034  2.0646
17134TIP3    H272818   5.041   0.649   3.998 -1.0448 -1.1338 -1.6467
17135TIP3   OH272819   1.265   2.047  16.664  0.6945  0.0697 -0.4424
17135TIP3    H172820   1.338   2.089  16.709  1.1449 -0.8841 -0.2718
17135TIP3    H272821   1.294   2.042  16.573  0.4692  0.4892 -0.5400
17136TIP3   OH272822   5.557   1.082  16.856 -0.5777  0.3855 -0.1115
17136TIP3    H172823   5.489   1.030  16.813  1.5481 -1.0269 -1.8225
17136TIP3    H272824   5.604   1.020  16.911  0.5844  0.9274 -0.4635
17137TIP3   OH272825   1.069   0.573  11.748 -0.4236 -0.7800 -0.2460
17137TIP3    H172826   1.001   0.618  11.798 -0.0593 -0.8464  0.3055
17137TIP3    H272827   1.144   0.632  11.750  0.0506 -1.4027  0.4655
17138TIP3   OH272828   3.880   5.542  17.187  0.0953  0.6264 -0.1907
17138TIP3    H172829   3.837   5.470  17.139  2.0458 -1.0983  0.6149
17138TIP3    H272830   3.823   5.557  17.262  0.5911 -1.3037  0.5992
17139TIP3   OH272831   5.718   5.303  14.957  0.1247 -0.0281 -0.4786
17139TIP3    H172832   5.699   5.229  15.014 -0.2934  0.4511  0.0159
17139TIP3    H272833   5.657   5.372  14.986 -0.4600  0.0490 -1.8426
17140TIP3   OH272834   0.952   1.472   4.751  0.2293 -0.2538  0.1452
17140TIP3    H172835   1.038   1.431   4.765  0.1035 -1.0744 -1.3273
17140TIP3    H272836   0.889   1.409   4.788  0.2129 -0.0944  0.3846
17141TIP3   OH272837   0.774   1.770   2.708  0.4779  0.3814  0.1956
17141TIP3    H172838   0.699   1.760   2.767  0.7832  0.0523  0.5305
17141TIP3    H272839   0.821   1.687   2.714  1.6530  1.0966  1.0815
17142TIP3   OH272840   5.238   5.262  12.927 -0.3159 -0.2138 -0.1587
17142TIP3    H172841   5.243   5.304  12.841 -0.0033  0.1498  0.0353
17142TIP3    H272842   5.319   5.288  12.971 -0.4597 -0.4287  0.2340
17143TIP3   OH272843   5.132   2.107   6.003 -0.2875 -0.3832 -0.7812
17143TIP3    H172844   5.126   2.202   6.019 -0.7785 -0.7351  1.2241
17143TIP3    H272845   5.058   2.089   5.944 -1.7529  0.0890  0.8495
17144TIP3   OH272846   3.123   6.524   2.437  0.4577  0.2373 -0.1012
17144TIP3    H172847   3.041   6.483   2.464  0.9120  0.4564  1.6906
17144TIP3    H272848   3.125   6.607   2.486  1.3550  0.6152 -0.7669
17145TIP3   OH272849   4.937   2.623  16.577 -0.5171  0.1074  0.4781
17145TIP3    H172850   4.907   2.567  16.506  1.7658 -0.2993 -0.2021
17145TIP3    H272851   4.965   2.563  16.645  0.8705  0.4164  0.1943
17146TIP3   OH272852   5.301   6.331  16.611 -0.0673 -0.0363  0.6449
17146TIP3    H172853   5.339   6.399  16.666  0.6671  0.4503 -0.4412
17146TIP3    H272854   5.345   6.250  16.639 -0.5706  0.0180  1.5875
17147TIP3   OH272855   5.316   3.002   4.103 -0.3299  0.1983 -0.1294
17147TIP3    H172856   5.230   3.033   4.132  0.2274 -0.5599  2.4463
17147TIP3    H272857   5.302   2.910   4.080 -0.1557  0.0148  0.5042
17148TIP3   OH272858   1.461   0.592   1.864  0.2573  0.2233 -0.2769
17148TIP3    H172859   1.440   0.587   1.771  0.0538  1.5294 -0.3171
17148TIP3    H272860   1.377   0.614   1.906  0.8684  2.2972 -0.0872
17149TIP3   OH272861   1.366   1.622  12.581 -0.4235 -0.5087  0.1250
17149TIP3    H172862   1.460   1.602  12.577 -0.3470  0.1497 -1.5525
17149TIP3    H272863   1.323   1.539  12.562 -0.2332 -1.2081  2.5244
17150TIP3   OH272864   0.340   4.234   5.076  0.2919 -0.4808 -0.2450
17150TIP3    H172865   0.284   4.185   5.015  0.1188 -0.7796  0.1567
17150TIP3    H272866   0.299   4.321   5.081 -1.5939 -1.4427  1.9818
17151TIP3   OH272867   0.634   5.396   5.509 -0.0924  0.1149 -0.1588
17151TIP3    H172868   0.583   5.439   5.440 -0.1810  0.3085  0.0247
17151TIP3    H272869   0.708   5.356   5.463  0.8173  1.7590 -0.1511
17152TIP3   OH272870   3.327   6.317  15.100  0.3356 -0.1206  0.2903
17152TIP3    H172871   3.382   6.313  15.179  1.0451 -1.2372 -0.2361
17152TIP3    H272872   3.388   6.342  15.031 -0.0523 -0.2468 -0.0924
17153TIP3   OH272873   4.205   6.587   3.193  0.1216  0.6880 -0.1592
17153TIP3    H172874   4.178   6.605   3.103 -2.3381  0.8189  0.5633
17153TIP3    H272875   4.230   6.673   3.228  0.4047  0.7438 -0.4960
17154TIP3   OH272876   3.557   3.600  13.028 -0.0060  0.2824  0.3400
17154TIP3    H172877   3.483   3.548  13.059 -1.4210  2.1670  0.2312
17154TIP3    H272878   3.538   3.615  12.936  0.2208  1.2343  0.4428
17155TIP3   OH272879   3.554   5.691  11.177 -0.4558 -0.1179 -0.4483
17155TIP3    H172880   3.509   5.611  11.203 -0.8168  0.2044 -0.0794
17155TIP3    H272881   3.498   5.762  11.209  0.4799  0.2859  0.3460
17156TIP3   OH272882   2.254   3.780  12.475  0.1317 -0.2290  0.2495
17156TIP3    H172883   2.237   3.687  12.490  0.6534 -0.7799 -2.3198
17156TIP3    H272884   2.182   3.808  12.419  1.0461  0.4075 -0.6278
17157TIP3   OH272885   2.802   1.848  14.045  0.2466 -0.0388 -0.1107
17157TIP3    H172886   2.748   1.893  13.980 -1.0800  1.4191  1.9491
17157TIP3    H272887   2.819   1.914  14.112  3.4233 -0.9022 -0.0182
17158TIP3   OH272888   0.569   6.646   0.112  0.3130 -0.2002  0.1340
17158TIP3    H172889   0.582   6.727   0.063 -0.2772  0.2903  0.7928
17158TIP3    H272890   0.615   6.580   0.060  1.0964  0.6123 -0.2239
17159TIP3   OH272891   0.709   5.811  11.409 -0.0525 -0.4338  0.1146
17159TIP3    H172892   0.617   5.784  11.411 -0.0013 -0.9051 -2.0852
17159TIP3    H272893   0.706   5.906  11.401 -0.3994 -0.5732 -1.6253
17160TIP3   OH272894   6.624   0.193  12.445 -0.1436  0.0532  0.2414
17160TIP3    H172895   6.596   0.102  12.455  0.4030 -0.0867  0.5200
17160TIP3    H272896   6.688   0.206  12.514 -0.9243  0.9448  0.8113
17161TIP3   OH272897   4.176   2.611  13.337  0.2160  0.6172  0.4882
17161TIP3    H172898   4.187   2.694  13.383 -1.6177  0.8561  0.5220
17161TIP3    H272899   4.144   2.636  13.250 -2.4276 -0.1402  1.2152
17162TIP3   OH272900   5.428   4.467   4.675 -0.4863  0.0286 -0.2678
17162TIP3    H172901   5.380   4.504   4.601 -0.7177  0.9423  0.3309
17162TIP3    H272902   5.412   4.528   4.747  1.5886  0.3662 -0.0601
17163TIP3   OH272903   6.152   4.050  14.761  0.6542 -0.4598  0.0062
17163TIP3    H172904   6.245   4.033  14.745  0.6433  0.5042 -1.1273
17163TIP3    H272905   6.129   4.118  14.698 -0.7445 -0.4606  0.5071
17164TIP3   OH272906   1.462   2.226   1.356 -0.4920 -0.0617 -0.3218
17164TIP3    H172907   1.472   2.135   1.384  1.0256  0.1100 -0.2522
17164TIP3    H272908   1.426   2.220   1.268 -0.6043 -0.7325 -0.2330
17165TIP3   OH272909   1.113   4.613  11.189  0.4362 -0.2895  0.1470
17165TIP3    H172910   1.188   4.671  11.198  0.3205 -0.2508  0.9347
17165TIP3    H272911   1.149   4.525  11.198  0.4285 -0.2842  0.2324
17166TIP3   OH272912   1.536   0.587  15.219  0.8013  0.4204  0.4477
17166TIP3    H172913   1.461   0.547  15.174 -0.4416  2.9315  0.1796
17166TIP3    H272914   1.611   0.568  15.162 -0.2032  0.7240 -1.0242
17167TIP3   OH272915   4.346   3.269   2.228 -0.1577 -0.4386 -0.1213
17167TIP3    H172916   4.253   3.286   2.214 -0.0067  0.3596 -0.1634
17167TIP3    H272917   4.352   3.241   2.320 -0.2918  0.6030  0.2080
17168TIP3   OH272918   2.719   0.586  12.870  0.4019 -0.4970 -0.0861
17168TIP3    H172919   2.658   0.630  12.810  0.2060  0.2083  0.6311
17168TIP3    H272920   2.663   0.526  12.919  0.4541 -0.5818 -0.1297
17169TIP3   OH272921   5.805   3.683   0.976 -0.6345 -0.4398  0.0826
17169TIP3    H172922   5.830   3.757   0.921 -1.9423 -0.0091  0.0364
17169TIP3    H272923   5.847   3.700   1.060 -0.3805  0.0158 -0.1353
17170TIP3   OH272924   6.769   0.140  17.206 -0.1102 -0.4686 -0.1492
17170TIP3    H172925   6.847   0.195  17.193  0.0207 -0.7548 -0.5864
17170TIP3    H272926   6.734   0.169  17.290 -0.0314  0.2713 -0.3647
17171TIP3   OH272927   4.700   1.035  13.093  0.3299 -0.3223 -0.3980
17171TIP3    H172928   4.689   1.007  13.002  0.6016  0.7835 -0.7915
17171TIP3    H272929   4.642   1.111  13.101  2.4035  1.3263 -0.4995
17172TIP3   OH272930   3.955   2.286   5.931 -0.4890  0.2517 -0.2120
17172TIP3    H172931   4.036   2.306   5.978 -1.4381  0.1195  1.5043
17172TIP3    H272932   3.901   2.364   5.943 -1.6735 -0.7400  0.9948
17173TIP3   OH272933   2.142   2.908   5.503  0.3677 -0.7727 -0.7284
17173TIP3    H172934   2.144   2.849   5.428  0.0091  0.4895 -1.7532
17173TIP3    H272935   2.229   2.946   5.507 -0.0495  0.2758 -1.4256
17174TIP3   OH272936   4.367   5.394   3.040  0.3713  0.1057  0.2948
17174TIP3    H172937   4.282   5.350   3.038  0.6526 -0.3834 -2.1797
17174TIP3    H272938   4.429   5.329   3.008  1.1715  1.4537 -0.9623
17175TIP3   OH272939   5.675   4.853  14.153 -0.3464  0.5065  0.0483
17175TIP3    H172940   5.686   4.937  14.197  0.9145  0.6705 -0.5538
17175TIP3    H272941   5.750   4.847  14.094  0.8862 -2.0993  1.7678
17176TIP3   OH272942   6.731   4.953   4.330 -0.1303 -0.0010 -0.6559
17176TIP3    H172943   6.762   4.903   4.255  0.5031  0.5754 -0.7864
17176TIP3    H272944   6.649   4.911   4.356  0.1911 -0.8465 -1.0145
17177TIP3   OH272945   6.252   4.471   5.541 -0.1586  0.0486 -0.5705
17177TIP3    H172946   6.339   4.495   5.510  0.1485 -0.0635  0.1867
17177TIP3    H272947   6.248   4.376   5.531  0.4291 -0.1544  0.9105
17178TIP3   OH272948   4.283   1.498   1.261  0.1448  0.1116  0.1921
17178TIP3    H172949   4.225   1.522   1.334 -0.2312  0.2841 -0.1623
17178TIP3    H272950   4.226   1.455   1.198  0.3634  0.4619 -0.2504
17179TIP3   OH272951   4.257   3.821   5.857  0.4690  0.1663  0.1613
17179TIP3    H172952   4.231   3.854   5.771 -0.3111  1.1158  0.7581
17179TIP3    H272953   4.256   3.726   5.847  0.5712  0.2663 -0.9293
17180TIP3   OH272954   2.334   4.600   4.737  0.2537  0.1449 -0.6715
17180TIP3    H172955   2.253   4.616   4.785  1.2702 -0.4219  1.3321
17180TIP3    H272956   2.307   4.563   4.653 -1.5386 -0.4662  0.1569
17181TIP3   OH272957   6.757   5.992  16.154 -0.3903  0.0160 -0.1065
17181TIP3    H172958   6.816   5.920  16.180  1.7434  1.8337  0.1977
17181TIP3    H272959   6.704   6.008  16.232 -0.6964 -1.0230 -0.0809
17182TIP3   OH272960   2.247   0.607   4.004 -0.2944 -0.0319  0.6036
17182TIP3    H172961   2.232   0.567   4.090  0.3010 -2.5109 -0.4075
17182TIP3    H272962   2.325   0.564   3.971  1.2026  2.9895  0.0037
17183TIP3   OH272963   3.965   1.381  12.617  0.2915  0.1606 -0.1227
17183TIP3    H172964   4.000   1.366  12.705  2.8320  1.3929 -0.8744
17183TIP3    H272965   3.875   1.349  12.622  1.0041 -1.6787  2.3360
17184TIP3   OH272966   3.363   3.187  14.933  0.4302  0.1999 -0.8576
17184TIP3    H172967   3.446   3.233  14.948  0.3503  0.5206 -1.3755
17184TIP3    H272968   3.387   3.109  14.883  0.4468  0.1844 -0.8251
17185TIP3   OH272969   6.425   1.740   3.252 -0.3455 -0.0696  0.3096
17185TIP3    H172970   6.355   1.675   3.243 -1.5585  1.1065  1.0559
17185TIP3    H272971   6.410   1.780   3.337  1.2579  0.2039  0.4818
17186TIP3   OH272972   4.810   3.355  16.767  0.0654 -0.4244 -0.2003
17186TIP3    H172973   4.870   3.283  16.747 -0.2202 -0.3228 -1.4886
17186TIP3    H272974   4.840   3.427  16.712 -0.6733 -0.0829 -0.1632
17187TIP3   OH272975   1.144   5.371  13.964  0.6527 -0.4698 -0.4715
17187TIP3    H172976   1.105   5.286  13.945  1.2289 -0.7876 -0.2135
17187TIP3    H272977   1.202   5.388  13.889  0.2536 -0.1296 -0.7097
17188TIP3   OH272978   5.430   3.445  16.454 -0.1405 -0.1245 -0.1243
17188TIP3    H172979   5.441   3.351  16.468  1.1993  0.0841  0.2779
17188TIP3    H272980   5.340   3.463  16.481 -0.4574 -1.3086 -0.3481
17189TIP3   OH272981   0.181   0.536   3.004 -0.1057 -0.0636 -0.2653
17189TIP3    H172982   0.099   0.532   2.954 -1.1334 -0.2695  1.4219
17189TIP3    H272983   0.223   0.452   2.987 -0.5776 -0.2451 -0.5608
17190TIP3   OH272984   3.019   2.964  11.326  0.0956 -0.3206  0.4916
17190TIP3    H172985   2.952   3.015  11.281 -0.5837 -1.1141  0.5958
17190TIP3    H272986   3.035   3.012  11.407 -2.0920 -1.3932  1.5896
17191TIP3   OH272987   4.569   0.374   3.063 -0.0748  0.1143 -0.3026
17191TIP3    H172988   4.629   0.448   3.067 -1.9446  1.7857 -1.8982
17191TIP3    H272989   4.533   0.367   3.151  1.8695 -0.4282  0.4649
17192TIP3   OH272990   4.086   1.604  15.133 -0.2420 -0.1059  0.0886
17192TIP3    H172991   4.148   1.652  15.079  1.4132 -1.9919  0.2561
17192TIP3    H272992   4.032   1.557  15.070  0.2045 -0.5109  0.0049
17193TIP3   OH272993   4.309   0.082   5.320  0.4082 -0.0148 -0.6524
17193TIP3    H172994   4.374   0.083   5.249  0.3055  2.8191 -0.7300
17193TIP3    H272995   4.360   0.099   5.399 -0.0954  1.2195 -0.5907
17194TIP3   OH272996   5.663   4.621  16.271  0.7116 -0.1297 -0.0326
17194TIP3    H172997   5.572   4.592  16.274  1.1929 -1.5491  1.4837
17194TIP3    H272998   5.675   4.672  16.351  0.9178  1.1162 -0.8468
17195TIP3   OH272999   3.919   0.959   4.900 -0.3022 -0.3136  0.1680
17195TIP3    H173000   3.983   0.955   4.971  0.6280 -1.5848 -0.7157
17195TIP3    H273001   3.969   0.988   4.824 -1.0600 -0.0049 -0.2163
17196TIP3   OH273002   6.580   6.002  14.527  0.2524  0.1046  0.2842
17196TIP3    H173003   6.590   5.944  14.451  0.8722  1.1550 -0.4332
17196TIP3    H273004   6.485   6.004  14.542  0.2188 -1.0890  0.3144
17197TIP3   OH273005   4.597   3.440  16.559 -0.3699 -0.1107  0.2419
17197TIP3    H173006   4.597   3.379  16.634  2.1222 -0.8927 -0.3542
17197TIP3    H273007   4.668   3.409  16.503 -1.5880  1.0530 -2.0073
17198TIP3   OH273008   5.568   4.001   4.695  0.3094 -0.8432 -0.2316
17198TIP3    H173009   5.501   3.969   4.756  1.4486 -0.5048  1.2174
17198TIP3    H273010   5.525   3.997   4.609 -2.3013  1.2763  0.8865
17199TIP3   OH273011   5.471   5.395  13.018 -0.5088  0.0553 -0.4457
17199TIP3    H173012   5.503   5.480  13.050 -0.4395 -0.4923  0.9928
17199TIP3    H273013   5.542   5.362  12.963 -0.2083  0.5787 -0.3798
17200TIP3   OH273014   4.259   6.583   5.734  0.2158  0.3262  0.1752
17200TIP3    H173015   4.335   6.549   5.687  0.5775  0.2614  0.8031
17200TIP3    H273016   4.295   6.620   5.814 -0.5889 -1.3379  1.3476
17201TIP3   OH273017   3.942   5.811   3.167  0.4015 -0.2255 -0.2688
17201TIP3    H173018   3.919   5.724   3.199  1.7941 -0.6987 -0.5382
17201TIP3    H273019   3.930   5.807   3.072  0.3245 -0.0777 -0.2663
17202TIP3   OH273020   1.244   0.894   6.226 -0.6880 -0.8794  0.5786
17202TIP3    H173021   1.216   0.985   6.217  1.0844 -0.3987 -0.2156
17202TIP3    H273022   1.337   0.899   6.252 -0.8660 -2.4441  1.6567
17203TIP3   OH273023   6.574   3.608   4.523  0.1970  0.0588  0.1452
17203TIP3    H173024   6.603   3.648   4.441  1.4463 -0.3014  0.3881
17203TIP3    H273025   6.484   3.637   4.534 -0.3319 -0.7342 -1.8927
17204TIP3   OH273026   5.254   6.472  13.100 -0.5734  0.1899 -0.1104
17204TIP3    H173027   5.310   6.545  13.074 -0.0993  0.3162  1.2228
17204TIP3    H273028   5.295   6.438  13.180 -0.5341 -1.8254 -0.9599
17205TIP3   OH273029   2.156   0.138  11.779  0.7935 -0.7389  0.3060
17205TIP3    H173030   2.083   0.186  11.739 -0.2692 -0.5620  2.3962
17205TIP3    H273031   2.196   0.200  11.840  1.7767 -1.3165  0.2682
17206TIP3   OH273032   5.244   4.892   4.358 -0.2503  0.1191 -0.6832
17206TIP3    H173033   5.177   4.872   4.293 -1.0796 -0.5956  0.3896
17206TIP3    H273034   5.322   4.844   4.327 -0.4453  0.3045 -1.4868
17207TIP3   OH273035   6.350   3.815  14.200  0.4725 -0.2058  0.1866
17207TIP3    H173036   6.268   3.769  14.181  0.7651 -0.3875 -0.6654
17207TIP3    H273037   6.417   3.765  14.152  1.1890 -0.4925  1.4679
17208TIP3   OH273038   3.147   6.676  11.342  0.1780 -0.6596  0.0967
17208TIP3    H173039   3.107   6.645  11.423 -1.7079  0.0277 -0.5501
17208TIP3    H273040   3.075   6.676  11.278  1.3748 -0.0659 -1.2735
17209TIP3   OH273041   0.429   2.519   1.203 -0.5422  0.1511 -0.0878
17209TIP3    H173042   0.374   2.442   1.217 -3.2473  1.9240 -0.4808
17209TIP3    H273043   0.384   2.569   1.135  1.3981  1.8455 -0.1883
17210TIP3   OH273044   3.925   2.876   1.866  0.0686  0.2070  0.6497
17210TIP3    H173045   3.834   2.876   1.893 -0.0860 -0.9056  0.1771
17210TIP3    H273046   3.969   2.936   1.927 -0.6175 -0.7794  2.1628
17211TIP3   OH273047   0.360   4.317   4.756  0.3728 -0.0373 -0.1870
17211TIP3    H173048   0.346   4.386   4.821 -2.4025 -0.1653 -0.5592
17211TIP3    H273049   0.288   4.256   4.771  1.1467 -1.3708 -1.7498
17212TIP3   OH273050   3.439   3.381  14.398  0.4869 -0.0710  0.2514
17212TIP3    H173051   3.429   3.297  14.445 -0.2329  0.6464  1.4079
17212TIP3    H273052   3.434   3.447  14.467 -2.8372  1.1410 -1.0784
17213TIP3   OH273053   5.929   3.761  14.321  0.1728 -0.1688 -0.1320
17213TIP3    H173054   5.853   3.798  14.276 -0.0607  0.2947  0.6405
17213TIP3    H273055   5.961   3.832  14.376 -0.0911 -0.9998  1.1203
17214TIP3   OH273056   4.641   0.706   3.171  0.3480  0.3489 -0.4011
17214TIP3    H173057   4.712   0.653   3.133  0.3763 -0.0180  0.1658
17214TIP3    H273058   4.686   0.770   3.227  0.2455  0.2943 -0.2567
17215TIP3   OH273059   0.419   3.839  11.501 -0.1774 -0.3328  0.4998
17215TIP3    H173060   0.458   3.769  11.448 -0.4458 -1.9779  2.4019
17215TIP3    H273061   0.327   3.841  11.474  0.0142 -0.1321 -0.1509
17216TIP3   OH273062   1.568   6.065  14.346 -0.9087 -0.7357  0.0562
17216TIP3    H173063   1.510   6.018  14.407 -2.1707  1.1800  0.3645
17216TIP3    H273064   1.509   6.110  14.286  0.2062  2.6900  1.4473
17217TIP3   OH273065   0.822   4.442  10.420  0.0428  0.0320 -0.3780
17217TIP3    H173066   0.765   4.392  10.362  0.6550  0.4682 -1.3792
17217TIP3    H273067   0.871   4.500  10.361  0.8373  0.3243  0.5538
17218TIP3   OH273068   5.296   1.612   5.922  0.3708 -0.0393  0.3665
17218TIP3    H173069   5.229   1.679   5.926 -1.1509 -1.4907 -0.2809
17218TIP3    H273070   5.340   1.617   6.007 -2.7415 -1.2946  2.1301
17219TIP3   OH273071   6.469   4.354   3.235 -0.6107 -0.0480 -0.1378
17219TIP3    H173072   6.505   4.272   3.269 -0.0630  0.2637  0.0503
17219TIP3    H273073   6.490   4.419   3.302 -1.5377  0.1429 -0.0212
17220TIP3   OH273074   1.308   6.726   5.015 -0.2880 -0.1419  0.3995
17220TIP3    H173075   1.271   6.648   4.974 -0.4692  0.7329 -1.1333
17220TIP3    H273076   1.302   6.709   5.109 -0.8480 -1.7224  0.0909
17221TIP3   OH273077   4.426   0.137   4.768 -0.0792 -0.4083 -0.2955
17221TIP3    H173078   4.348   0.177   4.806 -1.2760 -0.2574 -2.7642
17221TIP3    H273079   4.486   0.126   4.841 -1.8289  0.8884  1.3875
17222TIP3   OH273080   6.237   4.867  10.378  0.5235  0.5361  0.1346
17222TIP3    H173081   6.162   4.812  10.358  1.9212 -0.4208 -2.7978
17222TIP3    H273082   6.302   4.807  10.415  1.1182  0.6571 -0.6918
17223TIP3   OH273083   5.248   5.562   2.493 -0.2397  0.3724 -0.6042
17223TIP3    H173084   5.202   5.645   2.482 -1.1860  0.0065  0.4705
17223TIP3    H273085   5.186   5.496   2.463 -0.3021 -0.0919  0.4920
17224TIP3   OH273086   3.422   2.441  16.501  0.3547 -0.2428  0.1962
17224TIP3    H173087   3.347   2.383  16.485  1.1916 -1.5050  0.8109
17224TIP3    H273088   3.447   2.424  16.592  0.1576  1.6327  0.6386
17225TIP3   OH273089   3.808   2.090   0.412  0.7000 -0.0640 -0.2835
17225TIP3    H173090   3.748   2.016   0.404  1.0524 -0.5014  0.9887
17225TIP3    H273091   3.839   2.086   0.502  2.7938  0.0261 -0.9633
17226TIP3   OH273092   2.298   3.235  13.950 -0.3322  0.0697  0.8175
17226TIP3    H173093   2.283   3.263  14.040 -0.0816  0.4887  0.7334
17226TIP3    H273094   2.383   3.272  13.928 -1.0991  1.2996 -0.1195
17227TIP3   OH273095   0.417   2.870  12.349  0.1393 -0.4239 -0.4720
17227TIP3    H173096   0.442   2.962  12.345 -0.2206 -0.3524 -1.1086
17227TIP3    H273097   0.496   2.822  12.322 -0.1092 -0.2398 -1.5352
17228TIP3   OH273098   4.269   2.224  14.411 -0.5207 -0.6891 -0.1195
17228TIP3    H173099   4.242   2.174  14.487 -1.1890 -0.7236 -0.3697
17228TIP3    H273100   4.225   2.309  14.421 -0.3927 -0.5954 -0.3254
17229TIP3   OH273101   4.480   1.018  10.385 -0.7010 -0.0680  0.3310
17229TIP3    H173102   4.545   0.964  10.342 -0.0973 -0.4482  1.6807
17229TIP3    H273103   4.409   0.957  10.406 -2.2019  0.6280 -2.4723
17230TIP3   OH273104   3.879   2.579  13.376 -0.1801 -0.6002 -0.7832
17230TIP3    H173105   3.812   2.645  13.358  2.9375  3.0690  0.2265
17230TIP3    H273106   3.948   2.596  13.312  1.6388 -1.4274  0.8774
17231TIP3   OH273107   0.674   6.398  15.876 -0.1686  0.3386 -0.0728
17231TIP3    H173108   0.651   6.432  15.962 -0.2893 -0.8111  0.3654
17231TIP3    H273109   0.760   6.357  15.888  0.4063  1.3194 -0.8091
17232TIP3   OH273110   4.382   5.754   1.208  0.2647  0.6055 -0.2858
17232TIP3    H173111   4.293   5.786   1.218  0.3949  1.0402 -0.4847
17232TIP3    H273112   4.434   5.809   1.266  0.4788  0.7051 -0.5682
17233TIP3   OH273113   4.004   1.278  13.971  0.2131  0.7926  0.2145
17233TIP3    H173114   3.909   1.289  13.968  0.0468 -0.6829 -0.1576
17233TIP3    H273115   4.017   1.197  14.020  1.3382  1.5900  1.2729
17234TIP3   OH273116   5.161   5.112   4.654 -0.1232  0.5423 -0.0531
17234TIP3    H173117   5.164   5.186   4.593  0.9604  0.6100  0.0783
17234TIP3    H273118   5.222   5.135   4.724  1.2951 -1.0978 -0.7165
17235TIP3   OH273119   0.260   0.482   2.366 -0.1110  0.6083 -0.5881
17235TIP3    H173120   0.297   0.564   2.399 -1.5322  1.0586 -0.0659
17235TIP3    H273121   0.274   0.420   2.437  0.7326  0.4683 -0.8781
17236TIP3   OH273122   6.656   2.657  13.939  0.3118 -0.4225  0.2098
17236TIP3    H173123   6.684   2.693  13.855 -0.0049  0.0102  0.2883
17236TIP3    H273124   6.678   2.725  14.003 -0.4261 -0.2956  0.3384
17237TIP3   OH273125   5.481   4.908  13.519  0.0591 -0.5497 -0.1135
17237TIP3    H173126   5.519   4.824  13.546  1.0789 -0.1194 -0.1894
17237TIP3    H273127   5.508   4.918  13.427 -0.3953 -0.3277 -0.2210
17238TIP3   OH273128   6.204   6.482  16.584  0.5334  0.0805 -0.1502
17238TIP3    H173129   6.128   6.424  16.576  0.3476  0.0342  1.7324
17238TIP3    H273130   6.279   6.425  16.571  0.2858 -0.1822 -0.4353
17239TIP3   OH273131   5.330   3.487   4.059  0.3867  0.1985  0.2709
17239TIP3    H173132   5.273   3.546   4.109 -1.2696  0.6330 -2.0280
17239TIP3    H273133   5.416   3.529   4.063 -0.3496  1.7670  0.3472
17240TIP3   OH273134   6.101   4.693   3.015  0.7231 -0.4769  0.6181
17240TIP3    H173135   6.149   4.776   3.017 -0.5155  0.3174 -1.0293
17240TIP3    H273136   6.044   4.697   3.093  0.5484  0.3055  0.4582
17241TIP3   OH273137   5.488   2.041   4.207  0.3682 -0.3963 -0.2162
17241TIP3    H173138   5.506   2.065   4.298  0.9589 -0.7263 -0.2421
17241TIP3    H273139   5.431   2.110   4.175  0.5149 -0.0412  0.2757
17242TIP3   OH273140   1.559   0.701  16.377 -0.5280 -0.2381  0.1663
17242TIP3    H173141   1.501   0.736  16.309 -2.4197  1.0584  2.4116
17242TIP3    H273142   1.636   0.758  16.373 -1.1931  0.6527  0.0113
17243TIP3   OH273143   5.064   0.584  14.317 -0.0704 -0.0669  0.1561
17243TIP3    H173144   5.032   0.638  14.389  2.4190 -0.0110  1.2749
17243TIP3    H273145   5.022   0.621  14.239  0.0707  2.2475  1.1354
17244TIP3   OH273146   5.911   5.134  13.091 -0.4994 -0.3714 -0.2422
17244TIP3    H173147   5.856   5.183  13.153  0.9831 -0.0388  0.8445
17244TIP3    H273148   5.852   5.110  13.020 -1.7666  1.0706  0.2941
17245TIP3   OH273149   5.494   5.115  13.980  0.0733  0.0306  0.6319
17245TIP3    H173150   5.486   5.095  14.074 -2.0327  1.0633  0.7043
17245TIP3    H273151   5.567   5.177  13.975 -0.4968  0.8221  1.7389
17246TIP3   OH273152   6.538   1.300   3.121  0.4258 -0.1183 -0.6096
17246TIP3    H173153   6.570   1.373   3.174 -0.0488 -0.3634  0.0160
17246TIP3    H273154   6.612   1.278   3.064  1.1578 -0.2560  0.3693
17247TIP3   OH273155   3.514   2.926   0.250 -0.2207 -0.5728  0.3977
17247TIP3    H173156   3.534   3.017   0.267 -0.6401 -0.2565 -0.7260
17247TIP3    H273157   3.539   2.880   0.330 -1.0717  0.6810  1.4050
17248TIP3   OH273158   0.723   6.237   5.675 -0.0890 -1.0910  0.5089
17248TIP3    H173159   0.773   6.316   5.692 -0.5855 -0.7654  0.4708
17248TIP3    H273160   0.661   6.231   5.748  0.9107 -2.2323  1.2907
17249TIP3   OH273161   3.646   3.295  14.938 -0.2774  0.1854 -0.0050
17249TIP3    H173162   3.634   3.303  14.844 -0.4984  1.2095  0.1050
17249TIP3    H273163   3.686   3.378  14.965  1.0350 -0.6184  0.6007
17250TIP3   OH273164   0.325   2.218   4.211 -0.0464  0.1009  0.5588
17250TIP3    H173165   0.240   2.260   4.219 -0.9559 -1.7741  0.9831
17250TIP3    H273166   0.386   2.290   4.194 -2.1448  1.1665 -2.8718
17251TIP3   OH273167   5.140   5.351   5.425  0.1623  0.3225 -0.5380
17251TIP3    H173168   5.153   5.445   5.438 -0.1003  0.2735  0.1427
17251TIP3    H273169   5.216   5.310   5.467 -0.3082  0.1880  0.1981
17252TIP3   OH273170   4.933   5.948   4.475 -0.0305  0.8027 -0.1208
17252TIP3    H173171   4.854   5.956   4.422 -0.0818 -1.2414 -0.4020
17252TIP3    H273172   5.001   5.923   4.413  0.1316 -0.6029  0.6151
17253TIP3   OH273173   2.169   0.626   0.323 -0.8866 -0.0831  0.2961
17253TIP3    H173174   2.117   0.706   0.335  0.4081  1.0564 -1.4066
17253TIP3    H273175   2.136   0.590   0.240 -0.7951 -0.7940  0.5706
17254TIP3   OH273176   4.687   4.218  17.146 -0.1906 -0.3491  0.4020
17254TIP3    H173177   4.606   4.171  17.127 -0.5251  0.0816  0.7205
17254TIP3    H273178   4.733   4.163  17.209 -0.2479 -0.5831  0.2391
17255TIP3   OH273179   6.381   0.779  16.635  0.3250  0.2622  0.5427
17255TIP3    H173180   6.356   0.806  16.724  1.4005 -0.9862  1.2406
17255TIP3    H273181   6.434   0.701  16.648  1.7936  0.9576 -1.1119
17256TIP3   OH273182   2.369   1.535  16.206  0.2384  0.8172  0.5191
17256TIP3    H173183   2.306   1.595  16.248  0.1665  0.4742  0.9002
17256TIP3    H273184   2.314   1.464  16.172  0.2964  1.1011 -0.1642
17257TIP3   OH273185   5.570   6.026   2.675 -0.5564 -0.1095 -0.2087
17257TIP3    H173186   5.593   5.995   2.588  1.3055 -0.3448  0.3460
17257TIP3    H273187   5.546   5.946   2.723  2.1523 -0.5185  0.5850
17258TIP3   OH273188   2.695   6.637  13.036  0.6426  0.3635 -0.1399
17258TIP3    H173189   2.630   6.589  13.088 -0.4341  0.7104 -1.1561
17258TIP3    H273190   2.756   6.671  13.101 -0.0943 -0.1054  0.8209
17259TIP3   OH273191   6.106   6.770   6.147  0.1261 -0.8597  0.2583
17259TIP3    H173192   6.039   6.838   6.137  0.7216 -0.5233 -1.5103
17259TIP3    H273193   6.137   6.780   6.237  0.7874  1.7405 -0.2389
17260TIP3   OH273194   3.275   0.466  16.379 -0.8884  0.2822  0.2667
17260TIP3    H173195   3.208   0.521  16.338 -0.2465  1.3355  0.6002
17260TIP3    H273196   3.307   0.518  16.453 -0.7144 -0.8128  0.9676
17261TIP3   OH273197   5.599   6.340   4.984 -0.0095 -0.5542  0.0868
17261TIP3    H173198   5.531   6.276   4.964  0.0974 -1.2735  1.9556
17261TIP3    H273199   5.681   6.296   4.961  0.0052 -0.7428  0.5005
17262TIP3   OH273200   1.950   3.473   0.405  0.3382  0.2592  0.0345
17262TIP3    H173201   1.999   3.404   0.449 -1.2116 -0.5926  0.4984
17262TIP3    H273202   1.879   3.426   0.360  0.9579  1.2778 -2.0344
17263TIP3   OH273203   2.986   1.869  11.244 -0.4591  0.3551  0.1318
17263TIP3    H173204   2.924   1.907  11.306 -0.0440  0.9146  0.2023
17263TIP3    H273205   3.021   1.944  11.196 -2.0463 -0.1966 -1.9676
17264TIP3   OH273206   4.555   3.454   0.165 -0.0204 -0.8287 -0.1434
17264TIP3    H173207   4.465   3.422   0.170 -0.1748 -0.4803 -0.5889
17264TIP3    H273208   4.550   3.543   0.200  0.3344 -1.1524  0.7383
17265TIP3   OH273209   6.361   1.213   2.316 -0.1446 -0.6114  0.0596
17265TIP3    H173210   6.346   1.272   2.390 -0.4443  0.0529 -0.5184
17265TIP3    H273211   6.388   1.271   2.245  0.9145 -1.3314 -0.1353
17266TIP3   OH273212   4.052   2.061   1.118 -0.2805 -0.4643 -0.1351
17266TIP3    H173213   3.964   2.032   1.143 -0.7159  0.1122 -0.9880
17266TIP3    H273214   4.043   2.155   1.103  0.3823 -0.4873 -0.6653
17267TIP3   OH273215   4.033   2.899   3.072 -0.7868  0.4973 -0.4763
17267TIP3    H173216   3.947   2.931   3.046 -1.6287 -0.7981  0.6495
17267TIP3    H273217   4.015   2.821   3.125  1.0138  0.7899  0.6261
17268TIP3   OH273218   6.211   1.389   5.329  0.1701 -0.5047 -0.0196
17268TIP3    H173219   6.184   1.305   5.291  0.1613 -0.3127 -0.4421
17268TIP3    H273220   6.178   1.387   5.419  2.1381 -1.9258  0.7044
17269TIP3   OH273221   2.442   6.421   3.622 -0.6830  0.8865 -1.0654
17269TIP3    H173222   2.412   6.332   3.640  0.8124  0.8293  1.5109
17269TIP3    H273223   2.371   6.477   3.652 -1.5829  0.5644 -2.5904
17270TIP3   OH273224   2.367   6.758   1.824 -0.1114  0.0781 -0.5552
17270TIP3    H173225   2.428   6.828   1.846  0.7843 -0.6641 -0.6133
17270TIP3    H273226   2.404   6.680   1.866 -0.3064 -0.6434 -1.6822
17271TIP3   OH273227   3.859   6.370   0.353 -0.0526  0.5072 -0.0693
17271TIP3    H173228   3.927   6.419   0.400  2.5693 -3.0068  0.0147
17271TIP3    H273229   3.799   6.341   0.421  1.2067 -0.6830  0.5525
17272TIP3   OH273230   1.419   3.196  14.482 -0.6113 -0.0919 -0.7903
17272TIP3    H173231   1.406   3.243  14.564  1.0893 -1.8359  0.4953
17272TIP3    H273232   1.479   3.251  14.432  0.0356 -0.0717  0.0088
17273TIP3   OH273233   6.082   2.563   3.542 -0.1703  0.2052 -0.6014
17273TIP3    H173234   6.130   2.539   3.463 -0.8283 -1.7361 -0.4292
17273TIP3    H273235   5.990   2.564   3.515 -0.2617  1.3171 -0.2845
17274TIP3   OH273236   1.354   0.352   2.431  0.0971 -0.0280  0.2499
17274TIP3    H173237   1.396   0.403   2.362 -0.5742  0.7566  0.4134
17274TIP3    H273238   1.411   0.363   2.507 -0.3755  1.0329  0.4706
17275TIP3   OH273239   5.933   6.240   1.403 -0.0129  0.0116 -0.2605
17275TIP3    H173240   5.942   6.158   1.354  1.6526 -0.9706  1.6476
17275TIP3    H273241   5.877   6.218   1.477  0.7513  0.5024  0.4662
17276TIP3   OH273242   2.624   4.995  15.364 -0.7714 -0.0594  0.7535
17276TIP3    H173243   2.543   5.044  15.371 -0.7512 -0.0141  0.6750
17276TIP3    H273244   2.617   4.948  15.280  0.2605  1.7395 -0.3742
17277TIP3   OH273245   2.989   0.762   4.953  0.4536 -0.3046 -0.6519
17277TIP3    H173246   3.030   0.682   4.986  0.9674  0.0502 -0.4362
17277TIP3    H273247   3.062   0.821   4.936  0.0168  0.4569  0.0903
17278TIP3   OH273248   0.941   5.039   3.408  0.2126  0.0960 -0.2166
17278TIP3    H173249   0.941   5.108   3.342 -1.6225 -0.2877 -0.6605
17278TIP3    H273250   0.901   4.964   3.363  0.5406 -0.6939  0.8022
17279TIP3   OH273251   4.369   4.246  16.214 -0.2234  0.0962  0.3916
17279TIP3    H173252   4.373   4.208  16.302  0.8786 -1.2820 -0.2261
17279TIP3    H273253   4.443   4.206  16.168 -1.9935 -0.7560 -1.7750
17280TIP3   OH273254   6.622   4.572   1.871 -0.1861 -0.4697  0.2030
17280TIP3    H173255   6.535   4.533   1.876 -0.7119  0.6294 -0.1986
17280TIP3    H273256   6.648   4.561   1.780 -1.1562  1.7902 -0.3966
17281TIP3   OH273257   5.202   0.493   3.911 -0.3904 -0.1419  0.1706
17281TIP3    H173258   5.226   0.474   3.820 -0.8160  3.5081 -0.8019
17281TIP3    H273259   5.225   0.414   3.959  0.2974 -1.9822 -3.0353
17282TIP3   OH273260   1.055   4.735  14.677  0.1821  0.3683  0.2857
17282TIP3    H173261   1.137   4.689  14.699 -1.6966 -2.5072  1.5554
17282TIP3    H273262   1.016   4.756  14.762 -0.8623  0.8668 -0.3116
17283TIP3   OH273263   5.040   2.837   0.660 -0.0746 -0.3361  0.4662
17283TIP3    H173264   4.996   2.759   0.695 -0.3202  0.1990  1.3485
17283TIP3    H273265   5.037   2.900   0.731 -0.3244  0.6656 -0.4191
17284TIP3   OH273266   6.628   4.353  14.471  0.5805  0.1402 -0.1756
17284TIP3    H173267   6.641   4.414  14.399  1.2060 -0.4900 -0.6093
17284TIP3    H273268   6.643   4.405  14.550 -0.2287  0.8585 -0.4939
17285TIP3   OH273269   3.425   3.137  14.515 -0.0045 -0.0914 -0.3506
17285TIP3    H173270   3.470   3.123  14.598 -1.3182  0.7615  0.5215
17285TIP3    H273271   3.438   3.055  14.467  2.3396  0.0904 -0.0774
17286TIP3   OH273272   5.955   0.530  14.542  0.4532 -0.4162 -0.1559
17286TIP3    H173273   5.865   0.520  14.574  0.5116 -1.9686 -0.4439
17286TIP3    H273274   6.009   0.490  14.609  1.1006  2.1512  0.9003
17287TIP3   OH273275   4.446   5.907   1.460  0.0925 -0.1896 -0.1036
17287TIP3    H173276   4.521   5.953   1.497 -1.5708  1.6262  1.1242
17287TIP3    H273277   4.405   5.863   1.534 -0.4797 -0.5358 -0.6171
17288TIP3   OH273278   0.930   2.249   3.696  0.6788 -0.7447 -0.1280
17288TIP3    H173279   1.006   2.298   3.728 -0.1647  2.1907 -2.4729
17288TIP3    H273280   0.855   2.295   3.731 -0.1117 -1.1309 -1.2929
17289TIP3   OH273281   4.613   5.932  15.759  0.3359  0.5306 -0.8123
17289TIP3    H173282   4.617   5.837  15.748 -1.2281  0.2833  0.6190
17289TIP3    H273283   4.622   5.967  15.670  0.3173 -0.9598 -1.4180
17290TIP3   OH273284   4.227   3.371   3.358 -0.3781  0.7876 -0.2785
17290TIP3    H173285   4.277   3.337   3.284 -1.0131  0.5967 -0.6186
17290TIP3    H273286   4.147   3.319   3.359 -1.2892  2.1636 -0.6940
17291TIP3   OH273287   0.937   0.796   6.179  0.5401 -0.2650 -0.5668
17291TIP3    H173288   1.011   0.744   6.209 -0.8644 -0.7777  2.1727
17291TIP3    H273289   0.873   0.790   6.250 -1.2373  1.9695 -1.9038
17292TIP3   OH273290   1.206   0.140  16.976  0.0787  0.7145 -0.5210
17292TIP3    H173291   1.281   0.096  16.936 -1.5198 -2.4261 -0.1855
17292TIP3    H273292   1.132   0.082  16.958 -1.8608  2.6017  1.1876
17293TIP3   OH273293   2.877   5.313  16.143 -0.0666  0.5495 -0.1731
17293TIP3    H173294   2.886   5.233  16.196 -0.2262  0.2634 -0.5785
17293TIP3    H273295   2.933   5.377  16.187 -0.0836  0.2706  0.2631
17294TIP3   OH273296   0.974   4.907  17.077  0.3730 -0.0028  0.0696
17294TIP3    H173297   0.999   4.817  17.054  1.4165  0.1872  0.4414
17294TIP3    H273298   0.983   4.955  16.995  0.0651 -0.1770 -0.0671
17295TIP3   OH273299   3.548   3.501   6.465  0.2080  0.1673 -0.2817
17295TIP3    H173300   3.558   3.444   6.541  0.5248  0.6110  0.0061
17295TIP3    H273301   3.515   3.443   6.396 -1.5108  0.0610  0.6090
17296TIP3   OH273302   0.594   1.819   2.973  0.1566  0.0077 -0.2821
17296TIP3    H173303   0.631   1.753   3.032 -2.5712 -0.9633  0.4408
17296TIP3    H273304   0.622   1.903   3.009  0.3103 -0.6487  1.1378
17297TIP3   OH273305   4.164   6.286  12.549 -0.4700  0.7960  0.2269
17297TIP3    H173306   4.070   6.285  12.530 -0.7515 -0.5236  1.5688
17297TIP3    H273307   4.192   6.374  12.525 -1.3711  0.1996 -3.3971
17298TIP3   OH273308   5.932   4.902   0.065  0.7673 -0.0122  0.1696
17298TIP3    H173309   5.883   4.984   0.059  1.8278  0.6362  0.3273
17298TIP3    H273310   6.023   4.929   0.077  1.3947 -1.1733 -1.7361
17299TIP3   OH273311   5.247   1.162   4.424 -0.0126  0.1128  0.6395
17299TIP3    H173312   5.209   1.161   4.336 -0.2767 -0.5472  0.7586
17299TIP3    H273313   5.171   1.167   4.483  0.0985 -0.8940  0.8704
17300TIP3   OH273314   3.886   2.243  16.931 -0.1478  0.0995 -0.0900
17300TIP3    H173315   3.960   2.272  16.878 -0.7862  0.9676 -0.5192
17300TIP3    H273316   3.833   2.321  16.944 -1.0055 -0.5121  0.1909
17301TIP3   OH273317   1.474   2.215   1.050  0.2723 -0.3672  0.0105
17301TIP3    H173318   1.537   2.279   1.016  0.5480 -1.0533 -0.7763
17301TIP3    H273319   1.394   2.232   1.001 -0.0180  0.1763  0.6632
17302TIP3   OH273320   6.271   1.445  16.010  0.0857 -0.3843  1.0330
17302TIP3    H173321   6.294   1.527  15.967  0.9389 -1.2983 -0.2842
17302TIP3    H273322   6.354   1.409  16.040 -0.1388 -1.3698  0.4943
17303TIP3   OH273323   0.494   0.328  11.741 -0.1648 -0.0178 -0.4161
17303TIP3    H173324   0.588   0.348  11.749 -0.0200 -1.2425  1.1963
17303TIP3    H273325   0.489   0.233  11.753 -1.8041  0.2685  1.2506
17304TIP3   OH273326   3.820   4.716   1.421 -0.1969 -0.3199 -0.1350
17304TIP3    H173327   3.781   4.738   1.506  0.7196 -0.7338  0.4043
17304TIP3    H273328   3.803   4.793   1.367 -1.4343 -0.3426  0.1900
17305TIP3   OH273329   0.272   5.152   0.149  0.1554 -0.3753 -0.1522
17305TIP3    H173330   0.336   5.083   0.130  0.0272 -0.3510 -0.6614
17305TIP3    H273331   0.275   5.161   0.244  2.1294  0.7810 -0.2962
17306TIP3   OH273332   1.911   6.248   2.754  0.1055  0.1725 -0.2599
17306TIP3    H173333   1.884   6.295   2.675 -1.0224  0.4288  0.2725
17306TIP3    H273334   1.893   6.309   2.826  2.4681  0.5167  0.1010
17307TIP3   OH273335   5.071   4.949   1.800  0.7459  0.5654  0.4078
17307TIP3    H173336   5.103   4.871   1.846  2.3456  1.0903  0.2083
17307TIP3    H273337   5.132   4.961   1.728 -0.2493  1.2630 -0.3373
17308TIP3   OH273338   5.122   0.733  11.263  0.4199 -0.2587 -0.3369
17308TIP3    H173339   5.098   0.780  11.183 -0.7424 -1.1447 -0.5235
17308TIP3    H273340   5.078   0.648  11.255 -1.6333  0.4949  2.3124
17309TIP3   OH273341   5.140   6.476   2.450  0.2417  0.2081 -0.2574
17309TIP3    H173342   5.233   6.468   2.471  0.4444  2.0007 -0.4182
17309TIP3    H273343   5.125   6.410   2.383  1.4512  0.0689 -0.4008
17310TIP3   OH273344   3.150   4.810  12.966 -0.2728 -0.1199  0.0694
17310TIP3    H173345   3.180   4.722  12.943 -0.9998  0.1807 -2.1571
17310TIP3    H273346   3.055   4.805  12.957 -0.2581  1.0897 -0.8291
17311TIP3   OH273347   2.865   5.533   1.007  0.8788 -0.1030 -0.2901
17311TIP3    H173348   2.801   5.525   0.936 -0.5711  0.9017  0.8563
17311TIP3    H273349   2.885   5.443   1.032 -0.5861 -0.4242 -0.2408
17312TIP3   OH273350   0.021   4.509   3.128 -0.1949 -0.2782  0.4338
17312TIP3    H173351   0.058   4.489   3.214 -0.6160  0.5983  0.8250
17312TIP3    H273352   0.002   4.423   3.089  1.6578 -0.7292  0.4761
17313TIP3   OH273353   0.028   4.952  15.504 -0.3076 -0.5605  0.0637
17313TIP3    H173354   0.051   4.871  15.458 -1.2208 -1.1091  0.5422
17313TIP3    H273355   0.098   4.963  15.568  0.3583 -0.4204 -0.6822
17314TIP3   OH273356   4.597   0.268   2.002  0.3426 -0.3832  0.6534
17314TIP3    H173357   4.593   0.362   2.018  1.3248 -0.5387  1.8760
17314TIP3    H273358   4.506   0.241   1.992  0.0680  0.7126  0.1375
17315TIP3   OH273359   0.211   3.305  13.786  0.3074 -0.6317 -0.1818
17315TIP3    H173360   0.128   3.333  13.749 -0.1187 -0.8716  0.5811
17315TIP3    H273361   0.278   3.344  13.730 -0.3262 -0.7385 -1.0059
17316TIP3   OH273362   4.929   3.345   3.256  0.4367  0.4060 -0.4454
17316TIP3    H173363   4.886   3.328   3.172  0.5555  0.7014 -0.5667
17316TIP3    H273364   4.961   3.259   3.285 -2.8242 -0.3433  1.1002
17317TIP3   OH273365   4.792   2.546  12.523 -0.1141  0.1727  0.0097
17317TIP3    H173366   4.866   2.578  12.574  0.8008 -0.1086 -1.1072
17317TIP3    H273367   4.727   2.520  12.587  0.7014  0.5650  1.0039
17318TIP3   OH273368   3.039   4.968   1.960  0.5605 -0.0511 -0.1296
17318TIP3    H173369   3.117   4.993   1.910  1.0564 -1.9364 -0.3488
17318TIP3    H273370   3.073   4.925   2.038 -0.2565  0.7232  0.6683
17319TIP3   OH273371   6.634   4.069  12.009 -0.4909 -0.1908 -0.5956
17319TIP3    H173372   6.584   4.044  12.086 -1.2601 -0.3897 -1.1600
17319TIP3    H273373   6.683   4.147  12.036 -0.3795 -0.5444  0.2379
17320TIP3   OH273374   5.974   0.201   5.598  0.3085  0.2134  0.6157
17320TIP3    H173375   5.985   0.201   5.503  0.3158 -1.8704  0.5819
17320TIP3    H273376   6.006   0.115   5.626  1.4106  1.2481  2.6464
17321TIP3   OH273377   4.470   6.422  10.606 -0.6911  0.4446 -0.5881
17321TIP3    H173378   4.511   6.474  10.675  1.2233  1.4350 -2.4206
17321TIP3    H273379   4.541   6.368  10.571 -1.2693  1.0712 -2.8101
17322TIP3   OH273380   3.373   2.790  10.927 -0.3810  0.1849 -0.0583
17322TIP3    H173381   3.397   2.727  10.995  1.1556 -0.2833 -1.0162
17322TIP3    H273382   3.288   2.760  10.895  0.2048 -1.2466 -0.3078
17323TIP3   OH273383   0.508   4.769  16.154  0.0654 -0.6150 -0.4346
17323TIP3    H173384   0.422   4.755  16.194 -0.4324 -0.9461 -1.5929
17323TIP3    H273385   0.570   4.756  16.225 -0.8285 -0.6841  0.3455
17324TIP3   OH273386   4.496   4.259   5.851 -0.0433 -0.0930 -0.3735
17324TIP3    H173387   4.549   4.320   5.801 -0.6839  0.9772  0.2307
17324TIP3    H273388   4.459   4.199   5.786  0.6156  0.1452 -0.9598
17325TIP3   OH273389   2.953   4.950  14.045  0.3352 -0.6112  0.0722
17325TIP3    H173390   2.899   4.934  13.968 -0.9130 -1.3400  1.0838
17325TIP3    H273391   2.986   4.864  14.070 -0.6162 -0.6331  1.3202
17326TIP3   OH273392   3.190   4.725   1.070 -0.4515 -0.0634 -0.1052
17326TIP3    H173393   3.184   4.755   0.979  0.2977  0.3795 -0.0144
17326TIP3    H273394   3.277   4.755   1.099 -0.6090 -0.3769  0.6899
17327TIP3   OH273395   0.984   5.743   5.142 -0.1320  0.2833 -0.1825
17327TIP3    H173396   0.942   5.704   5.218  1.2766 -1.4893 -0.2847
17327TIP3    H273397   0.974   5.678   5.072  0.0559  1.1772 -1.0606
17328TIP3   OH273398   5.683   0.612   6.414 -0.5019  0.4232 -0.1859
17328TIP3    H173399   5.627   0.538   6.392 -1.1922  1.6778 -2.8965
17328TIP3    H273400   5.684   0.614   6.509 -2.2342 -1.7341 -0.0771
17329TIP3   OH273401   1.033   1.273   5.861  0.9292  0.4658 -0.0506
17329TIP3    H173402   1.086   1.301   5.787  1.9052  0.7585  0.7524
17329TIP3    H273403   1.015   1.353   5.910 -1.0034  0.5075 -0.7911
17330TIP3   OH273404   6.697   3.844   0.880 -0.7486 -0.0625 -0.2076
17330TIP3    H173405   6.642   3.918   0.854 -0.3198  0.2939 -0.1077
17330TIP3    H273406   6.721   3.801   0.797  0.4547  0.9557 -0.4133
17331TIP3   OH273407   4.662   1.981   6.129  0.4320 -0.7593  0.9105
17331TIP3    H173408   4.643   1.972   6.223 -0.0831 -0.1353  0.8728
17331TIP3    H273409   4.584   2.024   6.093  1.4197  0.7563  0.5283
17332TIP3   OH273410   3.495   3.583  14.177 -0.1241  0.2539  0.2826
17332TIP3    H173411   3.466   3.659  14.229 -2.3039 -1.1456  1.1854
17332TIP3    H273412   3.539   3.527  14.241  0.2488  0.1163 -0.1000
17333TIP3   OH273413   4.602   0.777  13.116  0.3872  0.7671 -0.5441
17333TIP3    H173414   4.635   0.867  13.120  0.0326  0.8225  1.4544
17333TIP3    H273415   4.680   0.722  13.124  0.5180  0.8858 -0.9740
17334TIP3   OH273416   3.033   4.382  14.430 -0.2583  0.2436 -0.5145
17334TIP3    H173417   2.993   4.394  14.515 -0.9755 -1.2264 -0.6421
17334TIP3    H273418   3.066   4.469  14.407  0.4646  0.5339  1.5019
17335TIP3   OH273419   2.488   4.251   0.564  0.5660  0.4990  0.2642
17335TIP3    H173420   2.407   4.243   0.513 -0.3866  5.2858  0.7664
17335TIP3    H273421   2.557   4.227   0.502 -1.0267 -0.9641 -1.0031
17336TIP3   OH273422   0.105   6.717  16.246  0.3689 -0.0861  0.6048
17336TIP3    H173423   0.132   6.681  16.331  0.4782 -0.0655  0.5791
17336TIP3    H273424   0.010   6.720  16.251  0.3201 -1.0120  0.3506
17337TIP3   OH273425   3.015   4.017  11.773 -0.9152 -0.1474  0.3641
17337TIP3    H173426   3.029   4.005  11.867 -1.0933  1.0030  0.5399
17337TIP3    H273427   3.026   4.111  11.759  0.5578 -0.5006 -1.0044
17338TIP3   OH273428   2.527   4.769   3.684 -0.0341 -0.2745 -0.3810
17338TIP3    H173429   2.488   4.707   3.746  1.4753 -1.6954 -0.8074
17338TIP3    H273430   2.606   4.801   3.728 -0.4700  0.8837 -0.4216
17339TIP3   OH273431   4.627   0.998  12.825 -0.0542 -0.0549 -0.2888
17339TIP3    H173432   4.580   1.058  12.768 -0.0017  0.7998  0.5651
17339TIP3    H273433   4.594   0.911  12.800 -0.6589  0.3798 -1.0216
17340TIP3   OH273434   2.471   3.749  13.522  0.3993 -0.3548 -0.2050
17340TIP3    H173435   2.377   3.746  13.505  0.3770  0.3777 -0.2369
17340TIP3    H273436   2.487   3.678  13.584 -0.0228 -1.0894 -0.9311
17341TIP3   OH273437   4.900   3.837   6.176 -0.0956 -0.3212  0.2994
17341TIP3    H173438   4.884   3.743   6.186  0.1615 -0.1972  1.9883
17341TIP3    H273439   4.956   3.844   6.098  0.2120 -1.6020  0.3990
17342TIP3   OH273440   3.552   3.165  13.885 -0.1079 -0.0254 -0.5073
17342TIP3    H173441   3.468   3.159  13.931 -0.1341  0.6047 -0.4597
17342TIP3    H273442   3.576   3.075  13.866 -0.3066 -0.2684  0.3725
17343TIP3   OH273443   6.538   5.319   3.673 -0.1358  0.2875 -0.1609
17343TIP3    H173444   6.551   5.235   3.630 -3.1202 -0.1909 -0.2060
17343TIP3    H273445   6.577   5.309   3.760 -0.2306 -1.0399 -0.2702
17344TIP3   OH273446   5.046   2.446   0.342  0.9669  0.4538 -0.1819
17344TIP3    H173447   5.020   2.450   0.433  2.7322  1.9534  0.2842
17344TIP3    H273448   4.987   2.506   0.297  0.4034  0.0727  0.0534
17345TIP3   OH273449   2.811   6.099  16.218  0.4461  0.1480 -0.0850
17345TIP3    H173450   2.851   6.097  16.131  0.3640 -1.5751 -0.0884
17345TIP3    H273451   2.718   6.114  16.201  0.3861 -0.4826 -0.3059
17346TIP3   OH273452   5.052   2.040   3.836 -0.6338  0.5364  0.3497
17346TIP3    H173453   4.983   2.040   3.770 -1.9201 -0.0705  1.6615
17346TIP3    H273454   5.088   2.129   3.834 -1.6691  0.9532 -0.1282
17347TIP3   OH273455   3.178   0.280   5.397 -0.1961  0.6607 -0.8168
17347TIP3    H173456   3.211   0.199   5.436 -1.6262  1.0128  1.1646
17347TIP3    H273457   3.256   0.321   5.359  0.9348 -0.5265  0.1474
17348TIP3   OH273458   4.586   4.185   5.101 -0.2808 -0.3302  0.3292
17348TIP3    H173459   4.542   4.107   5.066 -1.5671  0.0151  1.1173
17348TIP3    H273460   4.676   4.157   5.116 -0.5669 -1.4855 -0.0196
17349TIP3   OH273461   2.451   3.041   3.921 -0.1585  0.6757  0.9652
17349TIP3    H173462   2.500   3.111   3.964  0.1525  0.5040  0.8900
17349TIP3    H273463   2.471   3.050   3.828 -3.2412  2.9823  0.4311
17350TIP3   OH273464   2.313   2.385   5.573  0.0654 -0.1216  0.2041
17350TIP3    H173465   2.376   2.337   5.627 -0.6234  0.8777  1.9475
17350TIP3    H273466   2.228   2.363   5.611 -0.4823  0.0122 -0.9498
17351TIP3   OH273467   0.263   4.182  12.346  0.3116 -0.0146 -0.0363
17351TIP3    H173468   0.287   4.092  12.369 -1.4354 -0.0887  1.5940
17351TIP3    H273469   0.210   4.174  12.267  0.6653 -0.3520 -0.2414
17352TIP3   OH273470   5.898   2.975   5.140  0.0651  0.7898  0.2311
17352TIP3    H173471   5.892   2.895   5.192  2.5219  0.1496 -0.4009
17352TIP3    H273472   5.810   2.988   5.105 -0.2200 -2.0071 -0.1757
17353TIP3   OH273473   3.587   3.464   1.425  0.2600  0.7105  0.4130
17353TIP3    H173474   3.682   3.473   1.419  0.0418  2.6664 -0.3699
17353TIP3    H273475   3.555   3.484   1.337 -0.7840 -1.5491  0.2385
17354TIP3   OH273476   4.464   3.803  11.645 -0.0976  0.0010  0.2571
17354TIP3    H173477   4.525   3.822  11.716 -0.7702 -1.1639  1.1727
17354TIP3    H273478   4.493   3.859  11.573  1.6665 -0.0816  0.8663
17355TIP3   OH273479   1.910   0.294  16.419 -0.0934  0.0736 -0.3027
17355TIP3    H173480   1.830   0.305  16.472 -0.1521 -1.3335 -0.0679
17355TIP3    H273481   1.879   0.251  16.339  0.1304  1.3928 -1.1026
17356TIP3   OH273482   1.650   6.777  13.198 -0.0409 -0.2054  0.1045
17356TIP3    H173483   1.652   6.853  13.256  0.0414  1.1825 -1.6956
17356TIP3    H273484   1.718   6.794  13.133  0.9353 -2.4761  0.4657
17357TIP3   OH273485   0.720   1.230   4.496  0.0587 -0.5521 -0.1032
17357TIP3    H173486   0.715   1.310   4.549 -1.3489  0.3075 -1.4542
17357TIP3    H273487   0.715   1.262   4.406 -1.2032 -2.2065 -0.6388
17358TIP3   OH273488   2.454   6.413   1.629  0.4961  0.2381  0.1471
17358TIP3    H173489   2.445   6.321   1.653  0.2507  0.3742  0.5695
17358TIP3    H273490   2.403   6.422   1.548  1.0600 -0.1412 -0.2597
17359TIP3   OH273491   5.135   1.315  13.326 -0.1612  0.4584  0.0121
17359TIP3    H173492   5.093   1.338  13.409 -0.8335 -0.1286 -0.1582
17359TIP3    H273493   5.132   1.395  13.274 -0.5517  0.5822  0.2259
17360TIP3   OH273494   0.379   4.355  17.100  0.0579  0.5219 -0.0442
17360TIP3    H173495   0.324   4.295  17.049 -2.8011  0.0780  3.3563
17360TIP3    H273496   0.421   4.298  17.165 -0.6988  1.8273  1.6038
17361TIP3   OH273497   3.788   5.000  11.649  0.3327 -0.0929  0.4098
17361TIP3    H173498   3.865   4.959  11.610  0.5723  1.9259 -1.3002
17361TIP3    H273499   3.729   5.015  11.575 -1.2780 -0.6419  1.5451
17362TIP3   OH273500   4.763   1.573  13.430 -0.1909 -0.5261  0.0306
17362TIP3    H173501   4.703   1.595  13.502  0.8493  0.9550  0.4680
17362TIP3    H273502   4.839   1.533  13.473  0.3587  0.2093 -0.2500
17363TIP3   OH273503   0.542   3.223   4.552 -0.0264 -0.0727 -0.4698
17363TIP3    H173504   0.582   3.169   4.621 -1.5577 -2.1285 -1.1204
17363TIP3    H273505   0.483   3.282   4.599  1.6215  1.0553  0.2488
17364TIP3   OH273506   1.412   5.103  12.076 -0.4825  0.0213 -0.0310
17364TIP3    H173507   1.356   5.050  12.019 -0.1760 -0.0952 -0.2228
17364TIP3    H273508   1.410   5.058  12.160 -0.2576 -0.2729 -0.1826
17365TIP3   OH273509   0.589   3.850  10.447 -0.1027  0.3793  0.7644
17365TIP3    H173510   0.551   3.919  10.502 -0.2068  0.7664  0.2112
17365TIP3    H273511   0.528   3.842  10.374  0.8641  0.9899 -0.1206
17366TIP3   OH273512   4.001   6.381   2.701  0.0861 -0.1037  0.4801
17366TIP3    H173513   4.072   6.329   2.664 -2.1835 -2.1659 -1.1148
17366TIP3    H273514   4.021   6.471   2.674  1.4595 -0.8153 -0.9690
17367TIP3   OH273515   5.969   1.032  11.831  0.2260  0.3393 -0.1855
17367TIP3    H173516   5.996   1.118  11.798 -4.1607  1.4884 -1.0713
17367TIP3    H273517   5.916   0.994  11.761  0.4185 -2.2445  0.9909
17368TIP3   OH273518   6.204   1.282  17.134 -0.8494 -0.2918 -0.7025
17368TIP3    H173519   6.144   1.326  17.074 -0.6937 -0.8956 -1.3006
17368TIP3    H273520   6.169   1.302  17.221 -1.1732  0.4380 -0.9941
17369TIP3   OH273521   5.122   3.713   2.846 -0.2267  0.2889 -0.4126
17369TIP3    H173522   5.138   3.649   2.776 -1.7056  0.7394 -1.1918
17369TIP3    H273523   5.202   3.711   2.898  0.1591 -1.4619 -1.0064
17370TIP3   OH273524   4.615   3.629   4.359 -0.1004 -0.0879  0.1599
17370TIP3    H173525   4.648   3.564   4.296 -1.4974 -0.1352 -0.5375
17370TIP3    H273526   4.575   3.576   4.428  0.8766 -0.0172  0.7944
17371TIP3   OH273527   3.565   5.542   5.503  0.5019  0.2932 -0.0998
17371TIP3    H173528   3.498   5.523   5.568  0.6599  0.5640  0.1418
17371TIP3    H273529   3.552   5.475   5.435 -0.1421  0.4713 -0.1548
17372TIP3   OH273530   4.116   4.121   4.991 -0.4501  0.0427 -0.0256
17372TIP3    H173531   4.160   4.205   5.009  0.2622  0.0593 -1.7762
17372TIP3    H273532   4.025   4.146   4.973 -0.2689  0.4315 -0.4189
17373TIP3   OH273533   5.208   5.934  13.293  0.3552 -0.1840  0.2011
17373TIP3    H173534   5.131   5.886  13.263 -0.8732  1.5882  0.4109
17373TIP3    H273535   5.243   5.881  13.365 -0.5100 -1.1514 -0.0834
17374TIP3   OH273536   3.883   6.658   2.168 -0.1174 -0.0962  0.3335
17374TIP3    H173537   3.804   6.613   2.137  0.2802 -1.9352  1.9305
17374TIP3    H273538   3.856   6.702   2.248 -0.8668  3.8042 -1.8938
17375TIP3   OH273539   1.983   4.511   2.038  0.0213  0.0847 -0.8453
17375TIP3    H173540   1.955   4.470   1.955  0.3950 -0.6235 -0.6270
17375TIP3    H273541   1.910   4.494   2.098 -1.0557  2.1947 -1.5251
17376TIP3   OH273542   5.363   3.653   5.184  0.7801 -0.3487 -0.1812
17376TIP3    H173543   5.407   3.626   5.104  0.6817 -2.0047  0.3010
17376TIP3    H273544   5.368   3.577   5.241  1.8245  1.1805  1.8148
17377TIP3   OH273545   0.945   6.500  11.343  0.1583  0.4166 -0.0030
17377TIP3    H173546   0.992   6.421  11.366  1.3279  0.5114 -1.9479
17377TIP3    H273547   0.939   6.550  11.425  0.4076 -1.1342  0.9766
17378TIP3   OH273548   2.559   6.163   5.338 -0.3857 -0.1797 -0.2488
17378TIP3    H173549   2.523   6.247   5.308 -0.9475 -0.6873 -1.0087
17378TIP3    H273550   2.602   6.184   5.421 -2.1742  0.5354  0.5484
17379TIP3   OH273551   0.683   2.224  16.246 -0.5088 -0.5508 -0.1940
17379TIP3    H173552   0.667   2.132  16.226 -0.3148 -0.3450 -1.3072
17379TIP3    H273553   0.601   2.269  16.224 -0.6497 -0.4726  0.4768
17380TIP3   OH273554   3.236   5.281  13.508  0.0336 -0.2924  0.3727
17380TIP3    H173555   3.153   5.323  13.485 -0.1041 -0.1789  1.0734
17380TIP3    H273556   3.296   5.354  13.524  0.3242 -0.3733 -0.3083
17381TIP3   OH273557   6.254   5.247  14.386  0.3260  0.3104  0.7217
17381TIP3    H173558   6.240   5.342  14.382  1.9849  0.4826 -1.2797
17381TIP3    H273559   6.210   5.221  14.467 -0.6546  2.6945  1.0120
17382TIP3   OH273560   4.978   4.922  12.383  0.1821 -0.1917 -0.0392
17382TIP3    H173561   5.006   4.831  12.376  0.0129 -0.2375 -0.1361
17382TIP3    H273562   4.983   4.955  12.293  0.7976  0.0614  0.0859
17383TIP3   OH273563   1.933   0.727   3.722  0.5426  0.1451  0.0537
17383TIP3    H173564   2.011   0.782   3.721  0.1931  0.6412 -1.1731
17383TIP3    H273565   1.963   0.643   3.687  0.7435  0.0205  0.5207
17384TIP3   OH273566   2.989   1.373   2.456 -0.1522 -0.0436  0.1912
17384TIP3    H173567   3.049   1.347   2.386 -0.8831 -0.4783 -0.2814
17384TIP3    H273568   2.921   1.424   2.412 -1.3094 -1.3997  0.3746
17385TIP3   OH273569   4.027   2.560   5.327 -0.7426 -0.3311 -0.2718
17385TIP3    H173570   4.099   2.533   5.383 -1.0479  0.8114  0.6818
17385TIP3    H273571   4.061   2.553   5.238  0.5534  0.3006  0.1788
17386TIP3   OH273572   4.116   4.643  16.850 -0.0611 -0.1416 -0.9562
17386TIP3    H173573   4.159   4.591  16.782  0.0895 -0.7690 -0.3862
17386TIP3    H273574   4.106   4.583  16.924 -1.4255  0.1433 -0.8831
17387TIP3   OH273575   5.953   1.568   3.530  0.6145 -0.0948 -0.5844
17387TIP3    H173576   5.887   1.631   3.560  1.7418  1.1361 -0.6471
17387TIP3    H273577   5.935   1.489   3.581  1.1072  1.2560  1.7608
17388TIP3   OH273578   6.098   5.397  12.567 -0.2135 -0.0485 -0.3882
17388TIP3    H173579   6.032   5.342  12.610 -1.1341  1.0847 -0.3457
17388TIP3    H273580   6.147   5.436  12.640 -1.6175  1.6803 -0.3452
17389TIP3   OH273581   4.205   1.553   4.685 -0.1379 -0.1079  0.4198
17389TIP3    H173582   4.239   1.493   4.752 -0.0930 -2.1099 -1.3135
17389TIP3    H273583   4.260   1.631   4.692  1.2263 -1.1190  1.3054
17390TIP3   OH273584   4.618   2.904   4.236  0.0331  0.6190  0.0862
17390TIP3    H173585   4.665   2.885   4.318  0.6331  1.3033 -0.0956
17390TIP3    H273586   4.558   2.975   4.259  0.2671  0.8741 -0.0868
17391TIP3   OH273587   2.724   4.371   5.294  0.3606  0.1806  0.0856
17391TIP3    H173588   2.813   4.370   5.329  0.3430 -0.1561  0.1267
17391TIP3    H273589   2.680   4.299   5.339 -0.0993  0.7135  0.4942
17392TIP3   OH273590   4.185   3.945  13.490 -0.6279 -0.1988  0.2270
17392TIP3    H173591   4.267   3.966  13.445 -0.9360  0.5812  0.0252
17392TIP3    H273592   4.117   3.977  13.431 -1.0881 -1.2261  0.1995
17393TIP3   OH273593   4.012   6.537  16.292 -0.3562  0.0614 -0.0935
17393TIP3    H173594   3.984   6.588  16.369 -1.1655 -0.9856  0.3278
17393TIP3    H273595   3.938   6.479  16.275  1.6959 -3.1015  1.3002
17394TIP3   OH273596   3.708   0.045   1.391  0.5057 -0.0252  0.6709
17394TIP3    H173597   3.747   0.030   1.305 -1.6043 -2.4447  0.0720
17394TIP3    H273598   3.748  -0.020   1.448 -0.0345 -0.1711  0.8902
17395TIP3   OH273599   3.176   0.461  16.999  0.8465 -0.5749 -0.0955
17395TIP3    H173600   3.209   0.548  16.980  0.2180 -0.5547 -1.1120
17395TIP3    H273601   3.102   0.476  17.059  0.0846 -0.3211 -1.0761
17396TIP3   OH273602   2.236   1.101   1.331 -0.4803  0.0375 -0.0964
17396TIP3    H173603   2.170   1.162   1.299 -1.1538 -0.3859  0.4380
17396TIP3    H273604   2.316   1.125   1.286 -0.7174  1.3600  0.1649
17397TIP3   OH273605   5.131   0.199   1.010  0.1575  0.1447 -0.0670
17397TIP3    H173606   5.178   0.266   1.061 -0.5010  0.2022  0.4660
17397TIP3    H273607   5.046   0.239   0.991  1.1844  0.9929 -3.1066
17398TIP3   OH273608   5.290   0.315   0.352 -0.1734  0.4083 -0.0023
17398TIP3    H173609   5.352   0.243   0.366 -1.1014 -0.4926 -0.4752
17398TIP3    H273610   5.290   0.329   0.257  2.5670  3.3463  0.3588
17399TIP3   OH273611   4.063   0.302  16.536 -0.3592 -0.5141  0.1371
17399TIP3    H173612   4.121   0.351  16.477 -0.6653 -0.0996  0.1759
17399TIP3    H273613   4.122   0.246  16.586 -0.0552 -0.5667 -0.2735
17400TIP3   OH273614   2.241   2.486  15.206  0.0333 -0.4390  0.5642
17400TIP3    H173615   2.272   2.407  15.160 -0.6108  0.3972 -1.3845
17400TIP3    H273616   2.157   2.505  15.165 -0.9965 -0.1499  2.7467
17401TIP3   OH273617   6.474   4.481   4.932 -0.1238  0.2972  0.4158
17401TIP3    H173618   6.492   4.573   4.955 -1.2427  0.4606  0.6738
17401TIP3    H273619   6.382   4.469   4.953  0.1008 -0.9948  0.6996
17402TIP3   OH273620   4.593   0.668   1.174 -0.5474  0.0455 -0.2056
17402TIP3    H173621   4.499   0.686   1.172 -0.4707  0.5310  0.6345
17402TIP3    H273622   4.629   0.720   1.102 -0.7023  1.1034  0.4826
17403TIP3   OH273623   4.011   4.028  15.378 -0.4247  0.4774 -0.3503
17403TIP3    H173624   4.099   4.067  15.379 -0.1843 -0.0594  1.0020
17403TIP3    H273625   4.018   3.953  15.437 -1.5585 -0.1170 -0.9558
17404TIP3   OH273626   2.918   4.863  16.431 -0.3357  0.2555 -0.4778
17404TIP3    H173627   2.928   4.795  16.364  1.0246 -0.0990  0.0691
17404TIP3    H273628   2.939   4.944  16.386  0.9341 -0.0244 -0.3892
17405TIP3   OH273629   1.318   3.208  16.720 -0.0065  0.0344 -0.0337
17405TIP3    H173630   1.380   3.273  16.688  0.2003 -0.1203  0.0486
17405TIP3    H273631   1.249   3.259  16.763  0.5578  0.1604  0.7262
17406TIP3   OH273632   3.428   3.087  12.108  0.8742  0.1976  0.0696
17406TIP3    H173633   3.496   3.145  12.073  0.2376 -0.0185 -1.5498
17406TIP3    H273634   3.405   3.029  12.036 -0.5165 -0.2182  0.8181
17407TIP3   OH273635   2.104   3.462   2.053  0.2496 -0.0656 -0.8480
17407TIP3    H173636   2.040   3.515   2.006 -1.0765 -1.6315 -0.8759
17407TIP3    H273637   2.179   3.456   1.994  0.3013  1.4962 -0.9613
17408TIP3   OH273638   6.185   5.522   2.162  0.5515  0.2066  0.7590
17408TIP3    H173639   6.249   5.451   2.165  1.5711  1.0444 -0.5813
17408TIP3    H273640   6.103   5.482   2.190  1.5365 -1.0121  1.9595
17409TIP3   OH273641   6.313   3.107   3.722 -0.1123 -0.2007  0.4132
17409TIP3    H173642   6.227   3.068   3.740  0.4420 -1.1332  1.0001
17409TIP3    H273643   6.299   3.158   3.641 -1.4960  0.5474  1.1042
17410TIP3   OH273644   5.880   4.969  11.018  0.6515  0.1698  0.5953
17410TIP3    H173645   5.857   5.047  11.069  0.2614  0.6293 -0.2791
17410TIP3    H273646   5.884   4.999  10.927  1.0830 -0.7011  0.3195
17411TIP3   OH273647   4.106   3.886  16.441 -0.4037  0.4026 -0.3386
17411TIP3    H173648   4.161   3.934  16.379 -0.4962  2.2415  0.9413
17411TIP3    H273649   4.017   3.895  16.407 -0.0839 -1.5822 -1.7858
17412TIP3   OH273650   1.587   2.442  16.310 -0.4923  0.0389 -0.5322
17412TIP3    H173651   1.629   2.488  16.384  1.9846 -2.5396 -0.2507
17412TIP3    H273652   1.532   2.376  16.352 -0.8931  0.0910 -0.9779
17413TIP3   OH273653   5.899   2.554   5.862  0.6704 -0.0554  0.9967
17413TIP3    H173654   5.934   2.641   5.840  2.3125 -0.8265  0.4907
17413TIP3    H273655   5.971   2.494   5.841 -0.9125 -1.6583  0.1266
17414TIP3   OH273656   4.409   6.570   1.077 -0.3905 -0.5925  0.2830
17414TIP3    H173657   4.471   6.612   1.137 -0.6712 -0.5722  0.5624
17414TIP3    H273658   4.428   6.477   1.084 -1.9138 -0.7878  2.1055
17415TIP3   OH273659   1.876   5.678   4.052 -0.0286  0.1276  0.3422
17415TIP3    H173660   1.883   5.584   4.064  0.2963  0.0455 -0.4085
17415TIP3    H273661   1.964   5.711   4.071 -0.0041  0.2148  0.0801
17416TIP3   OH273662   0.636   6.277   3.468 -0.3859  0.0597 -0.0079
17416TIP3    H173663   0.602   6.363   3.491  1.1681  0.4061  1.0843
17416TIP3    H273664   0.561   6.219   3.475 -0.7530  0.7664  2.5716
17417TIP3   OH273665   1.953   5.943  12.762 -0.1378  0.2065  0.0534
17417TIP3    H173666   2.000   5.861  12.778  1.6269  1.1899 -0.0497
17417TIP3    H273667   2.005   6.010  12.805 -1.0387  1.4237 -0.7270
17418TIP3   OH273668   5.500   2.733  13.293  0.2728 -0.2516 -0.2184
17418TIP3    H173669   5.591   2.719  13.267 -0.3136  0.3284 -2.6592
17418TIP3    H273670   5.505   2.809  13.352  1.2610  0.4005 -1.1123
17419TIP3   OH273671   6.655   0.969   5.655 -0.5883  0.0219 -0.4526
17419TIP3    H173672   6.746   0.943   5.669 -0.1869  0.1420 -2.6832
17419TIP3    H273673   6.605   0.888   5.668  0.0037 -0.4196 -0.8924
17420TIP3   OH273674   0.207   1.829  13.388  0.1507  0.3925  0.2951
17420TIP3    H173675   0.200   1.875  13.304 -1.4945 -0.3955 -0.0060
17420TIP3    H273676   0.301   1.830  13.407  0.6936 -0.4632 -2.1472
17421TIP3   OH273677   4.423   5.962  13.741  0.3124 -0.0891  0.5581
17421TIP3    H173678   4.345   6.009  13.769  0.3013 -0.3407  0.9617
17421TIP3    H273679   4.395   5.910  13.665  0.7069  1.7237 -0.8525
17422TIP3   OH273680   4.307   6.647  15.949 -0.2546 -0.3573 -0.5672
17422TIP3    H173681   4.327   6.571  16.003  0.9493  0.2241 -0.1838
17422TIP3    H273682   4.321   6.722  16.007 -2.9919  0.1271 -0.4405
17423TIP3   OH273683   5.846   0.691   6.004  0.0680 -0.0915 -0.1572
17423TIP3    H173684   5.868   0.783   6.023 -0.2553  0.0802 -0.5921
17423TIP3    H273685   5.758   0.680   6.041 -0.3647  0.1071 -1.1154
17424TIP3   OH273686   3.116   0.078  11.049 -0.4516  0.2069 -0.0018
17424TIP3    H173687   3.054   0.009  11.071  0.3041 -1.1460 -1.9870
17424TIP3    H273688   3.172   0.040  10.982  0.4441  2.5127 -0.6225
17425TIP3   OH273689   0.060   6.032  10.768  0.4600 -0.5234  0.0521
17425TIP3    H173690   0.144   6.035  10.815 -0.5234  1.3418  1.7890
17425TIP3    H273691   0.084   6.030  10.676  2.4428 -0.2874  0.5448
17426TIP3   OH273692   1.151   0.557  13.530  0.1703  0.3136  0.2508
17426TIP3    H173693   1.115   0.491  13.470 -1.4314  0.2288  1.2755
17426TIP3    H273694   1.124   0.641  13.492  0.0677  0.2986  0.2915
17427TIP3   OH273695   2.423   5.304   5.186  0.0205 -0.0542 -0.2865
17427TIP3    H173696   2.466   5.375   5.137 -1.2379  0.1352 -1.1516
17427TIP3    H273697   2.343   5.287   5.137 -0.7330 -0.6165  1.1199
17428TIP3   OH273698   0.661   3.969  13.956  0.4937  0.3907 -0.0801
17428TIP3    H173699   0.572   3.964  13.922  0.9091  1.3028 -1.3419
17428TIP3    H273700   0.665   3.902  14.024 -1.3761  0.8876  0.5194
17429TIP3   OH273701   5.700   2.260   1.085 -0.7374 -0.1272 -0.6638
17429TIP3    H173702   5.620   2.210   1.068 -1.9237  1.1694  0.8366
17429TIP3    H273703   5.676   2.351   1.065  0.5072  0.2092 -0.6656
17430TIP3   OH273704   5.129   4.641  10.615  0.1645 -0.0218 -0.2001
17430TIP3    H173705   5.049   4.600  10.647 -0.0168  0.9903  0.6734
17430TIP3    H273706   5.178   4.664  10.694  1.5041 -0.9602 -0.7266
17431TIP3   OH273707   6.047   3.500   0.953  0.1870 -0.2090 -0.2660
17431TIP3    H173708   6.100   3.457   0.886 -0.6637 -1.2431 -0.2885
17431TIP3    H273709   5.965   3.521   0.909 -0.8374 -1.9614  0.7413
17432TIP3   OH273710   3.999   6.562  14.460  0.0647  0.3580 -0.3321
17432TIP3    H173711   3.957   6.622  14.522  0.5330  0.5595 -0.2139
17432TIP3    H273712   3.950   6.480  14.470  0.3017  0.3147  0.4780
17433TIP3   OH273713   5.202   2.265  13.997 -0.5774 -0.1088  0.0659
17433TIP3    H173714   5.212   2.257  14.092  1.2239  0.3992 -0.0625
17433TIP3    H273715   5.144   2.192  13.972  0.0829 -1.0881  1.3694
17434TIP3   OH273716   3.417   6.611  11.477  0.2630  0.1904  0.0979
17434TIP3    H173717   3.415   6.705  11.461  2.3574  0.7905  2.9401
17434TIP3    H273718   3.509   6.587  11.470  0.0977 -1.1233  2.0147
17435TIP3   OH273719   3.803   1.258   5.793 -0.0696 -0.3696 -0.1312
17435TIP3    H173720   3.739   1.226   5.730 -0.0862 -0.4730 -0.0621
17435TIP3    H273721   3.773   1.224   5.877  0.0347 -0.3559 -0.0877
17436TIP3   OH273722   2.597   5.634   0.947  1.0111 -0.9616  0.2079
17436TIP3    H173723   2.592   5.726   0.973  2.4596 -0.5711 -0.8661
17436TIP3    H273724   2.624   5.635   0.856  0.8493 -2.4595  0.1181
17437TIP3   OH273725   0.912   3.661  17.201 -0.5731 -0.1122  0.3816
17437TIP3    H173726   0.850   3.628  17.266 -0.5011 -1.2529 -0.1148
17437TIP3    H273727   0.881   3.749  17.179 -2.6425 -1.0865 -0.6744
17438TIP3   OH273728   6.560   4.431   5.763  0.3241 -0.4058  0.5177
17438TIP3    H173729   6.587   4.422   5.671 -0.1434  1.0413  0.2254
17438TIP3    H273730   6.637   4.403   5.813  0.6587 -1.0025 -0.3184
17439TIP3   OH273731   2.147   1.693  17.227 -0.5000  0.0843  0.5423
17439TIP3    H173732   2.125   1.626  17.292  1.7138 -1.2772 -0.0645
17439TIP3    H273733   2.086   1.677  17.155 -0.2138 -1.0908  0.5499
17440TIP3   OH273734   5.950   3.895   4.041  0.0450 -0.3024  0.4366
17440TIP3    H173735   5.974   3.969   4.096  0.9453 -1.5661  1.7651
17440TIP3    H273736   5.977   3.921   3.953  1.3573  0.4895  1.0603
17441TIP3   OH273737   5.627   6.501  12.220 -0.2116  0.1698  0.1785
17441TIP3    H173738   5.597   6.419  12.183 -0.6275  0.8086 -0.9110
17441TIP3    H273739   5.547   6.544  12.252 -0.2665  1.0942 -1.1631
17442TIP3   OH273740   1.438   5.639  14.426 -0.4037 -0.0510  0.1641
17442TIP3    H173741   1.444   5.681  14.512  0.4322  0.7166 -0.2622
17442TIP3    H273742   1.448   5.711  14.364  0.6447 -0.8210 -0.5762
17443TIP3   OH273743   1.835   0.679  16.872 -0.4254 -0.6528 -0.1489
17443TIP3    H173744   1.929   0.696  16.870 -0.6979  0.8931 -0.3314
17443TIP3    H273745   1.814   0.652  16.782 -0.6791  2.0737 -0.9623
17444TIP3   OH273746   4.329   4.224   0.562  0.1620  0.1688 -0.6524
17444TIP3    H173747   4.313   4.209   0.655  0.1360 -1.6974 -0.9487
17444TIP3    H273748   4.411   4.179   0.545  0.9251  1.7601 -1.2195
17445TIP3   OH273749   4.939   5.093  16.646 -0.3995 -0.1146  0.5331
17445TIP3    H173750   4.931   5.060  16.556  2.1223 -0.5993  0.4338
17445TIP3    H273751   4.910   5.184  16.641 -1.5483 -0.5255 -0.4954
17446TIP3   OH273752   4.887   3.012  15.722  0.2071 -0.0231 -0.1170
17446TIP3    H173753   4.962   3.024  15.781  1.1540 -0.2343 -1.2706
17446TIP3    H273754   4.866   3.101  15.693 -0.0117  0.0374  0.2166
17447TIP3   OH273755   4.158   6.719   0.347 -0.5483 -0.3739  0.1733
17447TIP3    H173756   4.098   6.659   0.390 -1.1152  0.0166 -0.0782
17447TIP3    H273757   4.114   6.743   0.265  1.0462 -2.1133 -1.2658
17448TIP3   OH273758   3.829   2.817  16.716 -0.4815  0.3622  0.0230
17448TIP3    H173759   3.809   2.810  16.623  1.1210  1.8004 -0.4506
17448TIP3    H273760   3.920   2.847  16.719 -0.3347 -0.2175  2.0528
17449TIP3   OH273761   5.979   0.679  11.767 -0.6111 -0.2023 -0.6141
17449TIP3    H173762   6.021   0.622  11.832 -0.0961 -1.7725 -2.3021
17449TIP3    H273763   6.051   0.730  11.730 -0.8152  0.1991 -0.4701
17450TIP3   OH273764   0.140   4.997   2.703 -0.1597  0.2743  0.3047
17450TIP3    H173765   0.102   4.912   2.680 -0.6381  0.3626  0.7544
17450TIP3    H273766   0.202   4.977   2.773 -0.9612  0.4154  1.0648
17451TIP3   OH273767   2.135   1.339  11.206  0.4571 -0.6222  0.0985
17451TIP3    H173768   2.129   1.405  11.276  1.0481  0.8767 -1.2446
17451TIP3    H273769   2.194   1.272  11.241  0.9590  0.2491  0.9371
17452TIP3   OH273770   6.480   2.554  11.390 -0.4705  0.2799  0.1663
17452TIP3    H173771   6.572   2.559  11.361  0.1341 -0.5748  1.8698
17452TIP3    H273772   6.454   2.464  11.371  0.3130 -0.6576  3.2977
17453TIP3   OH273773   2.966   6.343   3.975 -0.0773 -0.3607 -0.4662
17453TIP3    H173774   2.958   6.317   4.067  2.2505  2.7087  0.6950
17453TIP3    H273775   2.883   6.385   3.954 -0.7793 -1.4590  0.1158
17454TIP3   OH273776   1.344   4.633   1.360 -0.2191 -0.1988 -0.0038
17454TIP3    H173777   1.265   4.583   1.380  0.5787 -0.3373  3.0324
17454TIP3    H273778   1.339   4.710   1.416  0.6244  1.0525 -1.5866
17455TIP3   OH273779   3.036   1.191  15.292  0.0880 -0.1641  0.0463
17455TIP3    H173780   2.995   1.118  15.246 -0.0521  0.3526 -0.6545
17455TIP3    H273781   2.969   1.221  15.354 -0.5606  0.5883 -0.9960
17456TIP3   OH273782   2.647   0.838  13.432 -0.0863 -0.4872  0.2600
17456TIP3    H173783   2.708   0.771  13.399 -0.4469 -1.4898  1.5653
17456TIP3    H273784   2.702   0.896  13.485  0.4909  1.1205 -2.0542
17457TIP3   OH273785   3.655   4.528  12.422  0.2681  0.2150 -0.4411
17457TIP3    H173786   3.741   4.539  12.384 -0.1459  0.4800 -1.3034
17457TIP3    H273787   3.666   4.457  12.486  1.3460  0.9576  0.1948
17458TIP3   OH273788   0.473   5.361   0.987  0.5071 -0.5705  0.5553
17458TIP3    H173789   0.542   5.396   1.043 -0.5838  1.0725  0.8835
17458TIP3    H273790   0.409   5.431   0.980 -0.3412 -1.4743 -1.1213
17459TIP3   OH273791   0.983   3.897   6.515 -0.2918  0.4520  0.1689
17459TIP3    H173792   0.903   3.863   6.474 -0.9293  2.2215 -0.0766
17459TIP3    H273793   0.979   3.864   6.605 -0.5870 -0.6223 -0.2242
17460TIP3   OH273794   3.462   4.146   3.856  0.0803 -0.4113  0.0002
17460TIP3    H173795   3.454   4.212   3.924  3.1259  0.4616 -0.3917
17460TIP3    H273796   3.417   4.184   3.780 -1.6633 -0.5655  0.9384
17461TIP3   OH273797   2.934   0.773   5.903 -0.4574  0.1874  0.1035
17461TIP3    H173798   2.887   0.790   5.822  0.6230  1.1546 -0.3423
17461TIP3    H273799   2.993   0.701   5.882 -0.6382  0.0105  0.2082
17462TIP3   OH273800   4.654   6.103  14.245  0.0389  0.2740  0.5591
17462TIP3    H173801   4.578   6.161  14.248  0.2374  0.5791 -0.3700
17462TIP3    H273802   4.618   6.018  14.221 -0.4299 -0.3057  3.1079
17463TIP3   OH273803   2.663   4.746  16.504 -0.1320  0.5209  0.1080
17463TIP3    H173804   2.732   4.800  16.467  0.8986 -0.1086  1.0901
17463TIP3    H273805   2.693   4.724  16.592 -1.0224 -0.7534  0.1198
17464TIP3   OH273806   4.864   3.403  14.738 -0.6990  0.0422 -0.5342
17464TIP3    H173807   4.889   3.316  14.709  0.6589 -0.1492  1.1243
17464TIP3    H273808   4.935   3.460  14.707 -0.9421  0.3510 -0.5261
17465TIP3   OH273809   2.133   3.484   1.026  0.0238  0.6929  0.5947
17465TIP3    H173810   2.086   3.402   1.010 -0.7479  0.9920  1.3191
17465TIP3    H273811   2.182   3.468   1.106  1.8962  0.0750 -0.6191
17466TIP3   OH273812   4.599   3.558  17.020 -0.2374 -0.0596  0.2742
17466TIP3    H173813   4.685   3.601  17.020 -0.3575  0.1948  1.3900
17466TIP3    H273814   4.615   3.474  17.064 -1.0114  0.9458  2.5501
17467TIP3   OH273815   6.378   1.857   0.298 -0.6322  0.1609 -0.1133
17467TIP3    H173816   6.433   1.932   0.276 -1.6764  0.5104 -1.6295
17467TIP3    H273817   6.300   1.896   0.337 -0.3953 -0.2546  0.7840
17468TIP3   OH273818   1.188   1.772  15.669 -1.0822  0.5988 -0.2778
17468TIP3    H173819   1.162   1.755  15.578  0.5770 -3.3376 -0.0927
17468TIP3    H273820   1.256   1.839  15.661  0.1724 -0.8385 -2.1103
17469TIP3   OH273821   1.707   3.657   0.551  0.6676 -0.0255 -0.2802
17469TIP3    H173822   1.745   3.711   0.481  0.5509 -1.3811 -1.4135
17469TIP3    H273823   1.756   3.575   0.548  0.4278 -0.2311  1.0195
17470TIP3   OH273824   3.993   4.621  13.229  0.4219 -0.9751 -0.1288
17470TIP3    H173825   4.066   4.611  13.167  1.3329  2.6378  0.2327
17470TIP3    H273826   4.030   4.672  13.301 -2.4077  0.7131  0.1863
17471TIP3   OH273827   1.072   2.469  11.323 -0.3217  0.0432  0.5208
17471TIP3    H173828   1.114   2.383  11.319 -0.3414 -0.0459  1.9779
17471TIP3    H273829   1.095   2.503  11.410 -0.3819  1.4764 -0.0031
17472TIP3   OH273830   3.910   1.020  12.603  0.0953 -0.2347  0.2162
17472TIP3    H173831   3.950   1.091  12.654 -1.6642  1.1792 -0.3542
17472TIP3    H273832   3.822   1.010  12.640  0.5478 -2.5982  0.7438
17473TIP3   OH273833   4.761   1.031  14.426 -0.0480 -0.4215 -0.2397
17473TIP3    H173834   4.743   1.029  14.332  0.7414 -1.6942 -0.3688
17473TIP3    H273835   4.789   1.121  14.442  0.2971 -0.3198 -1.3189
17474TIP3   OH273836   5.676   3.602  15.896  0.6920 -0.1944 -0.4838
17474TIP3    H173837   5.660   3.678  15.840  0.5425 -0.6331 -1.0378
17474TIP3    H273838   5.696   3.639  15.982 -0.6438  0.4212 -0.4385
17475TIP3   OH273839   0.672   4.063   5.752  0.3200 -0.0063  0.1904
17475TIP3    H173840   0.627   4.085   5.670 -0.4614 -1.0056  0.3421
17475TIP3    H273841   0.605   4.019   5.805  0.8442  0.5554  1.3344
17476TIP3   OH273842   5.430   3.761  16.404 -0.4430  0.1734  0.5242
17476TIP3    H173843   5.470   3.675  16.397 -1.5942 -0.2409 -1.2150
17476TIP3    H273844   5.503   3.822  16.395  0.0398 -0.5915 -0.8990
17477TIP3   OH273845   0.542   5.770  12.740 -0.0080  0.4938  0.4479
17477TIP3    H173846   0.566   5.813  12.658 -0.8561 -0.9008 -0.5519
17477TIP3    H273847   0.605   5.804  12.804  0.6635  1.5967 -0.7712
17478TIP3   OH273848   6.130   0.737  14.653 -0.3506  0.2610 -0.0939
17478TIP3    H173849   6.112   0.824  14.616 -1.8566 -0.8594 -2.0488
17478TIP3    H273850   6.066   0.679  14.612  1.6604 -2.0890 -0.0133
17479TIP3   OH273851   1.898   3.836   1.549  0.1690 -0.0774  0.4706
17479TIP3    H173852   1.912   3.927   1.522 -0.4528 -0.2829 -0.5619
17479TIP3    H273853   1.961   3.822   1.619  0.3783  1.1051  0.5308
17480TIP3   OH273854   5.509   1.949  12.546  0.4872  0.1694 -0.1375
17480TIP3    H173855   5.469   2.023  12.501  0.1423 -0.3356 -0.6706
17480TIP3    H273856   5.595   1.939  12.504  0.4762  0.1859 -0.1640
17481TIP3   OH273857   2.730   4.459   0.651 -0.1923  0.2105 -0.1632
17481TIP3    H173858   2.773   4.403   0.586 -0.6185  0.2443 -0.4796
17481TIP3    H273859   2.761   4.547   0.631 -0.7193  0.2894 -0.6499
17482TIP3   OH273860   2.065   2.285  12.046  0.3551 -0.5907 -0.2329
17482TIP3    H173861   2.097   2.330  12.125  1.4699 -1.2649 -0.2815
17482TIP3    H273862   2.097   2.195  12.055 -0.8314 -1.0767 -0.7115
17483TIP3   OH273863   2.556   1.982  14.691  0.2906  0.4452 -0.1825
17483TIP3    H173864   2.631   2.010  14.745  1.2588 -3.0698  0.3894
17483TIP3    H273865   2.567   2.032  14.609  2.0096  1.6192  0.7121
17484TIP3   OH273866   5.159   5.635  15.022  0.4950  0.0962  0.2613
17484TIP3    H173867   5.201   5.717  14.995  0.7816  0.1304  0.8218
17484TIP3    H273868   5.128   5.596  14.939  0.9552  0.4389 -0.0737
17485TIP3   OH273869   6.130   2.961   4.715 -0.4703  0.5120  0.8206
17485TIP3    H173870   6.117   2.868   4.699 -2.3251  1.1716 -1.7261
17485TIP3    H273871   6.052   2.988   4.764  0.8143  0.4323  2.9686
17486TIP3   OH273872   1.970   0.439   2.395  0.9341 -0.4614 -0.1831
17486TIP3    H173873   2.039   0.460   2.332  1.5747 -0.3099  0.5469
17486TIP3    H273874   1.904   0.392   2.344  1.6165 -0.6775 -0.8860
17487TIP3   OH273875   1.320   1.170  17.088  0.4127 -0.1955  0.2403
17487TIP3    H173876   1.277   1.088  17.065 -1.5065  0.0208  2.8583
17487TIP3    H273877   1.414   1.151  17.079 -0.0507 -2.1552 -0.7129
17488TIP3   OH273878   1.270   0.939  15.586 -0.0930  0.0726  0.0319
17488TIP3    H173879   1.338   0.963  15.523 -0.1290  1.4690  0.4999
17488TIP3    H273880   1.261   1.017  15.642 -2.7555  0.2835 -0.6261
17489TIP3   OH273881   6.577   1.035  12.910 -0.4330  0.4970  0.2918
17489TIP3    H173882   6.613   1.088  12.981  2.1173  0.8404 -1.2154
17489TIP3    H273883   6.608   0.947  12.927  1.2093  0.8049 -1.0487
17490TIP3   OH273884   0.907   2.517  11.715  0.1601  0.0465  0.2370
17490TIP3    H173885   0.987   2.492  11.669 -0.3075 -0.5770 -0.2386
17490TIP3    H273886   0.912   2.613  11.721 -0.0984  0.1922 -1.7016
17491TIP3   OH273887   6.650   6.679   0.223  0.3633  0.0553  0.2930
17491TIP3    H173888   6.595   6.612   0.263  1.7078 -0.7263  0.8548
17491TIP3    H273889   6.711   6.705   0.293  1.0989  0.4781 -0.4904
17492TIP3   OH273890   2.114   4.038   6.312  0.0791 -0.0439 -0.3711
17492TIP3    H173891   2.049   4.103   6.284  1.1395  1.1338 -0.1357
17492TIP3    H273892   2.197   4.073   6.281  0.6757 -1.1998 -0.0671
17493TIP3   OH273893   2.785   3.027  11.886  0.4620 -0.7842 -0.3044
17493TIP3    H173894   2.864   2.973  11.875  1.9451  1.1358  0.7944
17493TIP3    H273895   2.815   3.117  11.873 -1.6182 -0.0546 -0.2013
17494TIP3   OH273896   2.657   6.538  17.114  0.2044 -0.0369 -0.2187
17494TIP3    H173897   2.698   6.594  17.048  1.3695  2.2968  2.3545
17494TIP3    H273898   2.730   6.491  17.154 -0.1293  0.6735  1.2679
17495TIP3   OH273899   0.471   3.125  12.323 -0.3986 -0.4690 -0.2450
17495TIP3    H173900   0.378   3.139  12.303 -0.7800 -1.1440  1.0078
17495TIP3    H273901   0.490   3.190  12.391 -0.5552 -1.8084  1.1134
17496TIP3   OH273902   3.346   1.923   1.191 -0.1486  0.1629  0.5987
17496TIP3    H173903   3.417   1.950   1.248  0.6873 -1.2499  0.2443
17496TIP3    H273904   3.388   1.873   1.122 -1.3607  0.3079 -0.2673
17497TIP3   OH273905   5.346   1.491  13.609  0.5504  0.1899  0.8346
17497TIP3    H173906   5.339   1.408  13.656  1.2025  0.2667  1.0709
17497TIP3    H273907   5.278   1.546  13.648  0.9307  0.1758  1.5382
17498TIP3   OH273908   5.292   3.798  11.802  0.4418 -0.1729  0.8648
17498TIP3    H173909   5.271   3.789  11.895  1.2385 -0.3405  1.0271
17498TIP3    H273910   5.217   3.758  11.758  1.0415 -2.0278  1.4748
17499TIP3   OH273911   2.380   1.823  13.341  0.2477 -0.1346 -0.4577
17499TIP3    H173912   2.443   1.777  13.398  2.0191  2.7958  0.0676
17499TIP3    H273913   2.356   1.758  13.275  3.3822 -1.5618 -0.3065
17500TIP3   OH273914   0.300   0.833  12.290 -0.2291  0.3749 -0.2148
17500TIP3    H173915   0.279   0.890  12.364 -0.9392  1.7382 -1.4309
17500TIP3    H273916   0.224   0.775  12.284  0.1824 -0.2490  0.6061
17501TIP3   OH273917   5.763   6.560   0.958 -0.5916  0.0631 -0.5375
17501TIP3    H173918   5.802   6.473   0.956  1.1179  0.8219 -1.7671
17501TIP3    H273919   5.693   6.557   0.893 -2.4824 -1.2128  1.4631
17502TIP3   OH273920   2.148   0.412  11.599 -0.3635  0.3767  0.3077
17502TIP3    H173921   2.147   0.374  11.511 -0.5479 -0.2377  0.5716
17502TIP3    H273922   2.079   0.478  11.598 -0.2251  0.5194 -0.0685
17503TIP3   OH273923   1.907   2.959  13.413  0.0272 -0.2484 -0.6324
17503TIP3    H173924   1.950   2.911  13.484 -0.5427  0.0742 -0.0583
17503TIP3    H273925   1.968   2.954  13.339  1.1779  0.4498  0.2553
17504TIP3   OH273926   2.640   3.335  14.521  0.0499 -0.1450 -0.8022
17504TIP3    H173927   2.558   3.380  14.501  0.2949  0.7358  0.1317
17504TIP3    H273928   2.636   3.320  14.616 -0.0847 -2.2215 -1.1185
17505TIP3   OH273929   3.749   5.492  14.473 -0.1531 -0.0948 -0.2622
17505TIP3    H173930   3.662   5.524  14.498  0.4561  0.2490  1.4760
17505TIP3    H273931   3.768   5.423  14.536  1.2927  0.5565  0.0222
17506TIP3   OH273932   4.150   2.363   3.396 -0.0383 -0.0438  0.3434
17506TIP3    H173933   4.195   2.443   3.424  1.2959 -1.2648  1.7747
17506TIP3    H273934   4.059   2.377   3.422  0.4483  0.4610  1.8288
17507TIP3   OH273935   3.213   3.326   3.416  0.2938 -0.4896  0.5211
17507TIP3    H173936   3.269   3.317   3.339  0.6259 -1.3190  0.8595
17507TIP3    H273937   3.226   3.246   3.465 -0.9851 -0.5819  0.7418
17508TIP3   OH273938   3.753   2.556  15.609  0.4048  0.2848  0.5447
17508TIP3    H173939   3.713   2.517  15.687  0.6524  0.5287  0.7997
17508TIP3    H273940   3.763   2.483  15.548  2.6347 -0.4920  1.7465
17509TIP3   OH273941   1.438   3.425   0.591  0.5609  0.4621  0.3995
17509TIP3    H173942   1.416   3.344   0.546 -0.6580  0.2269  1.3954
17509TIP3    H273943   1.418   3.495   0.528 -1.8338  0.1791  0.8181
17510TIP3   OH273944   1.705   1.121   4.644 -0.1413  0.8963  0.2723
17510TIP3    H173945   1.687   1.207   4.607 -1.8849  0.1222 -0.7677
17510TIP3    H273946   1.622   1.074   4.636  1.1805 -1.3961 -0.6451
17511TIP3   OH273947   5.394   0.702   5.695  0.6101  0.1119 -0.6297
17511TIP3    H173948   5.477   0.672   5.659  1.4440  3.1162 -1.3868
17511TIP3    H273949   5.410   0.713   5.788 -0.1281 -3.0238 -0.0807
17512TIP3   OH273950   3.590   0.236  15.994 -0.1277 -0.3382  0.0603
17512TIP3    H173951   3.526   0.201  16.056 -0.2628  0.1945  0.2258
17512TIP3    H273952   3.656   0.277  16.049 -1.0072  1.4545 -0.1673
17513TIP3   OH273953   2.194   3.370   5.327  0.0326  0.1930  0.2998
17513TIP3    H173954   2.166   3.279   5.318 -1.6366  0.8648 -1.7368
17513TIP3    H273955   2.114   3.417   5.349  0.5326  1.4379 -0.5457
17514TIP3   OH273956   1.145   1.956   0.828 -0.5809 -0.3936  0.1985
17514TIP3    H173957   1.197   1.953   0.748 -1.7225  0.8900 -0.5991
17514TIP3    H273958   1.079   1.888   0.817 -1.3321  0.4096 -0.3917
17515TIP3   OH273959   0.029   6.485  11.031 -0.1261 -0.1142 -0.4201
17515TIP3    H173960  -0.040   6.486  11.098 -1.3468  1.0820 -1.6735
17515TIP3    H273961  -0.017   6.500  10.949  1.4222 -1.1688 -1.5055
17516TIP3   OH273962   0.825   3.560   1.862 -0.0561  0.4862  0.4374
17516TIP3    H173963   0.782   3.559   1.777  0.5558 -0.7633  0.1248
17516TIP3    H273964   0.779   3.494   1.914  0.9405 -0.2905  0.3607
17517TIP3   OH273965   0.450   0.640   1.761  0.2302 -0.1268  0.2038
17517TIP3    H173966   0.525   0.610   1.710  0.1276  0.4061 -0.2686
17517TIP3    H273967   0.421   0.563   1.809 -0.7962 -1.0882 -1.9159
17518TIP3   OH273968   0.062   2.768  16.671 -0.3019 -0.0703  0.2352
17518TIP3    H173969   0.016   2.821  16.606  0.1469  0.5138  0.3901
17518TIP3    H273970   0.024   2.680  16.662 -2.4704  0.7398  1.3922
17519TIP3   OH273971   3.100   4.475  15.817 -0.1850  0.0869 -0.4824
17519TIP3    H173972   3.138   4.520  15.893 -0.0598 -1.7132  0.5595
17519TIP3    H273973   3.145   4.513  15.742  1.7387 -0.0857  0.5466
17520TIP3   OH273974   0.290   4.619  17.027  0.2039  0.1778  0.2926
17520TIP3    H173975   0.324   4.683  17.088 -0.2496 -0.4715  1.2349
17520TIP3    H273976   0.318   4.534  17.063 -0.5690 -0.2398 -0.0681
17521TIP3   OH273977   1.263   2.684  13.760 -0.1650  0.2877 -0.6439
17521TIP3    H173978   1.201   2.657  13.692  0.8469 -0.9545 -1.0858
17521TIP3    H273979   1.248   2.778  13.770 -0.4631  0.4405 -2.4440
17522TIP3   OH273980   4.345   2.866  15.533  0.2065  0.3439 -0.1786
17522TIP3    H173981   4.429   2.879  15.489  1.7218 -3.7339  1.2531
17522TIP3    H273982   4.279   2.876  15.464  2.1898 -0.8425 -2.3111
17523TIP3   OH273983   4.068   5.381  16.765 -0.0202  0.3534  0.3698
17523TIP3    H173984   4.026   5.322  16.702  2.2015 -1.5193  0.5630
17523TIP3    H273985   4.032   5.353  16.850 -2.0410  2.0275  0.1083
17524TIP3   OH273986   1.621   1.150   0.174 -0.2008 -0.2017 -0.0571
17524TIP3    H173987   1.661   1.199   0.246  1.0511 -0.3566 -0.6357
17524TIP3    H273988   1.659   1.062   0.181 -0.6274 -0.4167 -0.4643
17525TIP3   OH273989   0.152   4.396  14.252  0.1896  0.1217 -0.1815
17525TIP3    H173990   0.227   4.424  14.304  1.0967 -1.6801 -0.5054
17525TIP3    H273991   0.076   4.419  14.306  1.0581 -0.1349  1.1713
17526TIP3   OH273992   0.337   4.041  16.598  0.0583  0.2562  0.2253
17526TIP3    H173993   0.341   4.136  16.607  0.6068  0.1678  0.9517
17526TIP3    H273994   0.352   4.024  16.505  3.5991  0.6757  0.6523
17527TIP3   OH273995   0.050   4.213  13.670 -0.3991 -0.1064 -0.5429
17527TIP3    H173996   0.130   4.195  13.621 -0.1528  0.7579 -0.4744
17527TIP3    H273997  -0.015   4.233  13.603 -0.3253  0.0735 -0.5618
17528TIP3   OH273998   4.744   2.108  16.775  0.3146 -0.3692  0.0939
17528TIP3    H173999   4.667   2.107  16.718  0.5447 -0.3349 -0.2189
17528TIP3    H274000   4.777   2.018  16.772  0.9255 -0.1296 -0.6520
17529TIP3   OH274001   2.206   6.514   1.500  0.9896  0.2639  0.4478
17529TIP3    H174002   2.216   6.609   1.505 -0.3152  0.5724 -2.2038
17529TIP3    H274003   2.140   6.493   1.566  1.0309  1.2390  0.8058
17530TIP3   OH274004   3.200   0.095  16.027  0.1661  0.4762 -0.4621
17530TIP3    H174005   3.245   0.120  16.107  0.6025  0.0967 -0.5856
17530TIP3    H274006   3.121   0.049  16.056  0.2049  0.5456 -0.2516
17531TIP3   OH274007   3.418   2.478   4.919 -0.0531 -0.3738 -0.5166
17531TIP3    H174008   3.337   2.436   4.892  1.2232 -2.5750 -1.0736
17531TIP3    H274009   3.428   2.552   4.860 -1.5795 -0.1719 -0.5264
17532TIP3   OH274010   0.741   5.981  15.715 -0.4695 -0.4405  0.3451
17532TIP3    H174011   0.707   6.067  15.690 -0.8453 -1.0188 -1.2186
17532TIP3    H274012   0.693   5.959  15.795 -2.2227 -0.2988 -0.6352
17533TIP3   OH274013   2.940   2.366  13.135 -0.3481  0.1285 -0.0295
17533TIP3    H174014   2.918   2.433  13.071 -0.0435  1.3718  1.1307
17533TIP3    H274015   3.008   2.314  13.093 -0.8276  0.3357 -1.0760
17534TIP3   OH274016   0.664   4.980  16.128 -0.2657  0.3578 -0.1590
17534TIP3    H174017   0.622   4.896  16.108  0.4197 -0.2550  0.9170
17534TIP3    H274018   0.600   5.046  16.101 -0.9786 -0.5167 -0.6458
17535TIP3   OH274019   5.633   4.069   1.051  0.3581  0.2100  0.6212
17535TIP3    H174020   5.659   4.000   0.990  0.0743 -0.2169  0.9832
17535TIP3    H274021   5.708   4.079   1.110  0.6846  0.7127  0.1301
17536TIP3   OH274022   1.871   0.187  16.175  0.0957 -0.1845 -0.4092
17536TIP3    H174023   1.843   0.101  16.145 -2.2459  0.0415  1.0743
17536TIP3    H274024   1.818   0.249  16.126  0.6066  0.3813 -0.2655
17537TIP3   OH274025   1.198   4.040   1.503 -0.1566  0.7195  0.2055
17537TIP3    H174026   1.155   4.008   1.424  0.7316 -1.2692  0.4949
17537TIP3    H274027   1.288   4.009   1.496 -0.4721 -0.9028  2.7301
17538TIP3   OH274028   0.606   4.745   1.843  0.2702  0.1874  0.1178
17538TIP3    H174029   0.619   4.769   1.935 -1.4488  0.4018  0.3318
17538TIP3    H274030   0.629   4.824   1.794 -0.9439  0.8028  0.5206
17539TIP3   OH274031   1.336   3.690  11.365 -0.2115 -0.1774 -0.0322
17539TIP3    H174032   1.391   3.736  11.301  0.0632 -0.6415 -0.1378
17539TIP3    H274033   1.352   3.735  11.448  2.2596 -1.8273  0.4599
17540TIP3   OH274034   1.320   5.163  12.376  0.3633 -0.0276 -0.6557
17540TIP3    H174035   1.370   5.222  12.433  2.1314 -2.0992  0.0100
17540TIP3    H274036   1.238   5.149  12.423 -0.5493  2.7202 -1.3440
17541TIP3   OH274037   5.229   6.760   1.103  0.2736  0.7101  0.1889
17541TIP3    H174038   5.323   6.777   1.098 -0.0302  2.2576 -0.4164
17541TIP3    H274039   5.189   6.826   1.047 -1.1739 -0.0242  0.3261
17542TIP3   OH274040   5.520   4.455  12.464  0.9726  0.2520 -0.3935
17542TIP3    H174041   5.546   4.436  12.554 -0.6228  2.2994  0.5574
17542TIP3    H274042   5.539   4.375  12.416  2.2620 -0.7286  1.6705
17543TIP3   OH274043   2.938   2.192  15.602 -0.7078  0.4804  0.1951
17543TIP3    H174044   3.016   2.223  15.649 -0.8220  0.1799  0.5907
17543TIP3    H274045   2.911   2.267  15.548 -0.1863  0.6075  0.1093
17544TIP3   OH274046   3.815   6.570  13.982  0.3793 -0.4882  0.4610
17544TIP3    H174047   3.781   6.659  13.994 -0.7205 -0.5878 -1.5129
17544TIP3    H274048   3.892   6.565  14.038  0.3376  1.6463  0.7470
17545TIP3   OH274049   1.363   2.946   6.229 -0.5415 -0.0286  0.4358
17545TIP3    H174050   1.290   2.935   6.290 -1.3840 -1.0102 -0.7484
17545TIP3    H274051   1.347   3.031   6.188 -0.5888  0.1098  0.7343
17546TIP3   OH274052   4.377   5.133   3.321  0.5765 -0.2829 -0.2732
17546TIP3    H174053   4.372   5.122   3.416 -1.5105 -0.6651 -0.4048
17546TIP3    H274054   4.324   5.211   3.303  2.0997  0.6003 -0.9890
17547TIP3   OH274055   3.136   4.060  13.305  0.5045 -0.5424 -0.6132
17547TIP3    H174056   3.066   4.018  13.255  0.3753 -0.7985 -0.2236
17547TIP3    H274057   3.147   4.145  13.264 -2.9945  1.3026  1.9404
17548TIP3   OH274058   2.748   1.713   0.926  0.2206  0.5446  0.4963
17548TIP3    H174059   2.734   1.620   0.947  0.9389  0.0585 -1.1278
17548TIP3    H274060   2.835   1.716   0.887 -0.6810  1.5611 -1.4997
17549TIP3   OH274061   3.650   4.115  13.658 -0.2102  0.0259 -0.1085
17549TIP3    H174062   3.654   4.194  13.712  2.5047 -0.0375 -0.1529
17549TIP3    H274063   3.563   4.078  13.676 -0.3073  1.3283  2.3057
17550TIP3   OH274064   5.395   3.788  11.341 -0.3869  0.0797 -0.1927
17550TIP3    H174065   5.314   3.835  11.357 -0.0036  0.7373 -0.1594
17550TIP3    H274066   5.421   3.755  11.427 -0.2062  0.5461 -0.0670
17551TIP3   OH274067   0.792   5.890   2.153  0.0929 -0.0381 -0.3142
17551TIP3    H174068   0.707   5.849   2.166  0.2126 -0.2543 -0.2006
17551TIP3    H274069   0.820   5.862   2.066  0.7382 -1.2291  0.2676
17552TIP3   OH274070   2.581   6.486   0.708  0.6208 -0.4213  0.7678
17552TIP3    H174071   2.488   6.498   0.687  0.3908 -0.9659  1.4365
17552TIP3    H274072   2.627   6.542   0.646 -0.1666  0.0130  0.5657
17553TIP3   OH274073   2.657   3.406   0.677  0.3494  0.3198  0.4028
17553TIP3    H174074   2.578   3.386   0.626  0.0265 -0.2981  1.1372
17553TIP3    H274075   2.728   3.403   0.613 -0.0646 -0.3221 -0.0327
17554TIP3   OH274076   1.679   1.634  15.978 -0.5695 -0.0316  0.0742
17554TIP3    H174077   1.636   1.612  15.896 -1.7399 -0.2276  0.7324
17554TIP3    H274078   1.630   1.709  16.012  1.5397  1.7519 -0.6797
17555TIP3   OH274079   0.643   3.165   1.810 -0.1201  0.1444 -0.1143
17555TIP3    H174080   0.698   3.205   1.877  0.4486  0.5083 -0.7979
17555TIP3    H274081   0.604   3.239   1.763  0.9593 -0.0831 -1.4027
17556TIP3   OH274082   2.261   6.503   2.802 -0.4106 -0.4214  0.2112
17556TIP3    H174083   2.257   6.440   2.874 -1.6483  0.0482  0.5597
17556TIP3    H274084   2.195   6.473   2.740  0.0912 -0.3638 -0.3522
17557TIP3   OH274085   6.349   4.634  11.959 -0.4218  0.1379  0.2432
17557TIP3    H174086   6.396   4.668  12.036 -1.1052 -1.7361  1.5486
17557TIP3    H274087   6.414   4.581  11.913 -0.2782  0.4631  0.0732
17558TIP3   OH274088   3.123   5.053  15.690  0.2950  0.1170 -0.1476
17558TIP3    H174089   3.202   5.001  15.701 -0.0436 -0.9465 -2.4433
17558TIP3    H274090   3.087   5.025  15.605 -2.3148  0.8539  0.6538
17559TIP3   OH274091   1.978   5.863  13.956 -0.6853 -0.1119  0.1577
17559TIP3    H174092   1.913   5.908  13.903 -1.1714  0.4857  1.2532
17559TIP3    H274093   2.013   5.795  13.898 -0.4399  1.2072 -1.2822
17560TIP3   OH274094   0.268   1.479  13.964 -0.4947 -0.0135 -0.4895
17560TIP3    H174095   0.274   1.508  14.055  2.2013  2.8504 -1.4889
17560TIP3    H274096   0.210   1.543  13.923 -0.8764 -0.7078 -1.0449
17561TIP3   OH274097   4.364   3.843  16.657  0.2858  0.3798  0.2176
17561TIP3    H174098   4.415   3.919  16.683  0.5240 -0.1686  1.3527
17561TIP3    H274099   4.274   3.863  16.684  0.1774  0.6574 -0.3388
17562TIP3   OH274100   1.867   0.708   4.045 -0.4631 -0.1345  0.0603
17562TIP3    H174101   1.834   0.747   3.964  0.7251  0.3317 -0.2063
17562TIP3    H274102   1.960   0.729   4.046 -0.4250 -0.3265  1.4458
17563TIP3   OH274103   1.552   5.140   0.363 -0.5606  0.5549 -0.3147
17563TIP3    H174104   1.632   5.088   0.359  1.1112  3.0128  0.4469
17563TIP3    H274105   1.539   5.172   0.274  0.4869  1.8684 -0.0051
17564TIP3   OH274106   6.414   0.609   5.384  0.0315  0.2187  0.0156
17564TIP3    H174107   6.353   0.647   5.321 -0.8741 -0.8908  0.1954
17564TIP3    H274108   6.463   0.683   5.419  1.9683  0.6740 -3.4608
17565TIP3   OH274109   0.833   3.112  13.047  0.2701  0.0815 -0.1294
17565TIP3    H174110   0.759   3.122  12.988  1.3549 -1.5982 -1.8480
17565TIP3    H274111   0.873   3.199  13.051 -0.4370  0.4510 -1.0260
17566TIP3   OH274112   1.964   1.504  14.519 -0.0319 -0.2087 -0.0409
17566TIP3    H174113   1.954   1.529  14.611  0.0890 -0.2008 -0.0292
17566TIP3    H274114   1.954   1.586  14.471 -1.8220 -0.4821 -0.1623
17567TIP3   OH274115   4.727   0.236   2.458 -0.4244  0.4563  0.3707
17567TIP3    H174116   4.694   0.192   2.380  0.0202  0.3123  0.2637
17567TIP3    H274117   4.794   0.296   2.425  0.5728 -0.4339  0.7678
17568TIP3   OH274118   0.598   2.066   4.633  0.0041  0.3853  0.4409
17568TIP3    H174119   0.513   2.079   4.591  0.0466  0.8932  0.5068
17568TIP3    H274120   0.577   2.045   4.724 -0.0845 -0.5982  0.2043
17569TIP3   OH274121   5.626   3.363   5.606  0.1355  0.0376 -0.0378
17569TIP3    H174122   5.666   3.279   5.626  1.6698  1.0011  1.0734
17569TIP3    H274123   5.549   3.368   5.663  1.0317  0.1260  1.1849
17570TIP3   OH274124   0.456   4.181   0.102  0.0009  0.3967  0.4532
17570TIP3    H174125   0.416   4.097   0.124 -1.6799  1.3954  1.2782
17570TIP3    H274126   0.547   4.171   0.128 -0.5275 -0.6440  1.9834
17571TIP3   OH274127   0.128   1.004  13.373  0.7160 -0.8531 -0.1034
17571TIP3    H174128   0.206   1.059  13.381  1.0040 -0.8519 -2.7106
17571TIP3    H274129   0.150   0.924  13.422  1.7852 -0.2602  0.3962
17572TIP3   OH274130   5.481   5.326   4.278 -0.6103  0.0951 -0.1778
17572TIP3    H174131   5.534   5.267   4.331  1.0420  2.2642  0.6672
17572TIP3    H274132   5.513   5.314   4.189 -1.9021 -1.9615 -0.4002
17573TIP3   OH274133   2.463   1.460  15.237  0.1821 -0.2894  0.0585
17573TIP3    H174134   2.558   1.461  15.228  0.1495  2.3547 -0.3738
17573TIP3    H274135   2.446   1.492  15.325 -0.3075  0.2353 -0.2167
17574TIP3   OH274136   4.002   2.534  13.118 -0.0770 -0.3286 -0.5553
17574TIP3    H174137   4.072   2.583  13.075 -1.4542  1.2053 -1.0959
17574TIP3    H274138   3.922   2.561  13.072 -1.1501 -1.2797  0.7204
17575TIP3   OH274139   1.373   0.752  11.440  0.2508 -0.2732 -0.0277
17575TIP3    H174140   1.278   0.757  11.433 -0.0385 -0.5179  3.1026
17575TIP3    H274141   1.399   0.831  11.486  1.8532  0.8314 -2.6662
17576TIP3   OH274142   4.691   5.127  15.840  0.1227  0.5029  0.4591
17576TIP3    H174143   4.601   5.097  15.850 -0.2452  1.2663 -0.4656
17576TIP3    H274144   4.745   5.051  15.861 -0.7161  0.2989  1.9076
17577TIP3   OH274145   0.410   0.519  12.268  0.4478 -0.3007  0.0026
17577TIP3    H174146   0.395   0.452  12.201  0.9066 -0.0255 -0.3857
17577TIP3    H274147   0.458   0.475  12.337  0.6401 -0.4021 -0.1971
17578TIP3   OH274148   0.746   1.764   4.679  0.2238 -0.7607 -0.2065
17578TIP3    H174149   0.660   1.799   4.656  0.9692  1.3129  0.0433
17578TIP3    H274150   0.788   1.747   4.595  0.3752  0.3340 -0.3676
17579TIP3   OH274151   6.023   4.167  16.991  0.3566 -0.4884  0.0271
17579TIP3    H174152   5.950   4.228  16.998 -0.7786 -1.9266  1.2986
17579TIP3    H274153   5.990   4.096  16.936  1.5894 -0.0700 -1.2752
17580TIP3   OH274154   2.445   1.807   3.580  0.2942 -0.3184 -0.7241
17580TIP3    H174155   2.417   1.730   3.531  1.4000 -1.1857  0.0022
17580TIP3    H274156   2.422   1.881   3.523  0.4613 -1.2420 -2.0054
17581TIP3   OH274157   5.188   3.588  14.267  0.3652 -0.2840  0.0828
17581TIP3    H174158   5.233   3.559  14.346 -0.0373 -1.7699 -0.2342
17581TIP3    H274159   5.194   3.515  14.207 -2.5393 -0.5636  0.0628
17582TIP3   OH274160   2.285   5.984   5.425  0.3594 -0.0762  0.8464
17582TIP3    H174161   2.359   5.962   5.369 -0.0667 -0.3950  0.4081
17582TIP3    H274162   2.237   6.051   5.376 -1.3155 -2.0256 -0.2505
17583TIP3   OH274163   0.565   3.678  10.648 -0.0988  0.2293  0.0004
17583TIP3    H174164   0.485   3.634  10.620  0.6483 -0.2082 -1.5187
17583TIP3    H274165   0.592   3.729  10.572  2.1004 -1.1562 -0.1930
17584TIP3   OH274166   4.600   4.853  11.017 -0.1192 -0.0543 -0.5722
17584TIP3    H174167   4.665   4.857  11.087  0.9076  2.0420 -1.6106
17584TIP3    H274168   4.634   4.786  10.957  0.2093 -0.1483 -0.2817
17585TIP3   OH274169   3.201   4.659   1.975  0.2829  0.0106  0.1310
17585TIP3    H174170   3.281   4.685   2.021  0.2370  0.1966  0.1065
17585TIP3    H274171   3.228   4.652   1.883  0.4857 -0.8233  0.2480
17586TIP3   OH274172   1.558   6.200   3.507  0.2259  0.2599 -0.1592
17586TIP3    H174173   1.554   6.232   3.417  0.6067  0.5258 -0.0821
17586TIP3    H274174   1.523   6.111   3.503 -1.4184  0.8840 -0.2843
17587TIP3   OH274175   1.311   4.138  12.828 -0.4064 -0.0317 -0.2882
17587TIP3    H174176   1.362   4.216  12.850 -0.8023 -0.4620  2.2633
17587TIP3    H274177   1.337   4.118  12.738  1.5334  1.6023 -0.1378
17588TIP3   OH274178   1.531   0.571  15.741  0.1880  0.1402 -0.4440
17588TIP3    H174179   1.550   0.665  15.750 -1.6820  0.5206 -0.3166
17588TIP3    H274180   1.512   0.560  15.648 -0.5787  0.0870 -0.2850
17589TIP3   OH274181   5.184   3.375   3.849 -0.5179  0.4087 -0.0509
17589TIP3    H174182   5.233   3.294   3.864  0.0177  0.4385 -1.5603
17589TIP3    H274183   5.206   3.431   3.924  0.0093 -0.3991  0.4036
17590TIP3   OH274184   6.315   4.425  16.550 -0.1840 -1.0286 -0.3452
17590TIP3    H174185   6.252   4.428  16.622  0.3818 -0.3859  0.1216
17590TIP3    H274186   6.269   4.379  16.480 -1.1200 -0.6982  0.0508
17591TIP3   OH274187   3.749   4.111   2.301 -0.1174 -0.4516  0.1171
17591TIP3    H174188   3.721   4.068   2.220  0.6192 -0.7056 -0.0084
17591TIP3    H274189   3.697   4.068   2.369 -0.1214 -0.8405 -0.1262
17592TIP3   OH274190   2.392   6.766  12.678  0.0093  0.3205 -0.1378
17592TIP3    H174191   2.401   6.808  12.593 -2.7257  0.1730 -0.5402
17592TIP3    H274192   2.311   6.803  12.715  0.9417  0.1114  2.2334
17593TIP3   OH274193   3.223   1.259   3.902 -0.0486 -0.5041 -0.3363
17593TIP3    H174194   3.260   1.268   3.990  2.8337  1.8157 -1.6813
17593TIP3    H274195   3.199   1.167   3.896  2.2578 -1.3252  1.9401
17594TIP3   OH274196   2.689   5.584   3.647  0.8507 -0.1932  0.6967
17594TIP3    H174197   2.667   5.676   3.630  1.3055 -0.1844  0.1075
17594TIP3    H274198   2.739   5.586   3.729  1.0174  0.1114  0.5907
17595TIP3   OH274199   0.338   2.057  16.703 -0.1891  0.5109 -0.3022
17595TIP3    H174200   0.406   2.122  16.686 -0.5931  1.0398  0.0938
17595TIP3    H274201   0.266   2.107  16.741 -0.7082 -0.0866 -0.4970
17596TIP3   OH274202   5.270   4.275  12.915 -0.3396  0.2487  0.0204
17596TIP3    H174203   5.181   4.301  12.890  0.5347  1.1754 -2.3370
17596TIP3    H274204   5.300   4.219  12.844  1.1766  0.4522  0.4661
17597TIP3   OH274205   2.657   4.781  11.818 -0.1977 -0.3853  0.1230
17597TIP3    H174206   2.691   4.769  11.907  0.2627  1.7059  0.2619
17597TIP3    H274207   2.705   4.716  11.766  2.1215  0.6921  0.8099
17598TIP3   OH274208   4.746   1.436   2.246 -0.2360  0.4404 -0.5460
17598TIP3    H174209   4.752   1.343   2.226 -2.6272  0.4057 -1.2834
17598TIP3    H274210   4.708   1.476   2.168 -0.3602  1.8439  0.1985
17599TIP3   OH274211   0.870   4.645  10.244  0.6652 -0.1612 -0.1641
17599TIP3    H174212   0.803   4.596  10.196  0.0420 -0.6434  1.2023
17599TIP3    H274213   0.841   4.736  10.240 -0.2538 -0.4199  0.7511
17600TIP3   OH274214   6.700   4.543   2.399 -0.0707 -0.1621  0.3129
17600TIP3    H174215   6.678   4.452   2.418 -0.4689  0.0809  1.0571
17600TIP3    H274216   6.781   4.538   2.348 -1.5533 -1.0548 -2.0182
17601TIP3   OH274217   2.249   6.746  16.034 -0.1618 -0.2871 -0.2346
17601TIP3    H174218   2.271   6.826  15.986 -1.6650  0.1101 -0.2908
17601TIP3    H274219   2.285   6.760  16.122  1.7943 -0.6285 -0.9531
17602TIP3   OH274220   0.987   3.140  13.297  0.2683  0.5864 -0.2736
17602TIP3    H174221   0.987   3.232  13.272 -1.1095  0.4629 -0.7439
17602TIP3    H274222   0.983   3.093  13.213 -0.6479  0.1268  0.0235
17603TIP3   OH274223   2.088   2.152   4.807 -0.1963  0.1938 -0.7510
17603TIP3    H174224   2.163   2.192   4.851 -1.0403 -1.4592  2.4144
17603TIP3    H274225   2.017   2.215   4.819 -0.2016  0.1406 -0.4885
17604TIP3   OH274226   3.292   1.510  17.026  0.0230 -0.1799 -0.2148
17604TIP3    H174227   3.307   1.461  16.945  2.4830 -1.6672  1.0779
17604TIP3    H274228   3.335   1.594  17.010 -3.3585  1.2912 -2.0647
17605TIP3   OH274229   5.469   0.430  15.926 -0.3118 -0.3431 -0.4821
17605TIP3    H174230   5.452   0.519  15.894 -0.8678  0.2968  1.5556
17605TIP3    H274231   5.408   0.419  15.999  0.7345 -1.8936  0.1690
17606TIP3   OH274232   3.677   3.345  13.440  0.4601  0.1480 -0.2721
17606TIP3    H174233   3.742   3.414  13.447  0.0237  0.4575  1.0587
17606TIP3    H274234   3.593   3.390  13.453  0.1036 -0.4733 -0.3935
17607TIP3   OH274235   0.570   4.870  12.685  0.3691 -0.2642  0.0710
17607TIP3    H174236   0.566   4.803  12.753 -0.9830  1.3129  1.6000
17607TIP3    H274237   0.556   4.823  12.603  0.0653 -1.9186  1.0591
17608TIP3   OH274238   0.594   5.555  17.123  0.0474  0.0798 -0.2883
17608TIP3    H174239   0.631   5.574  17.209  0.7902 -1.3353 -0.2722
17608TIP3    H274240   0.669   5.551  17.064 -0.1216 -1.8954 -0.4251
17609TIP3   OH274241   0.882   5.025   4.249  0.0255  0.8871 -0.4540
17609TIP3    H174242   0.936   4.980   4.313 -0.6269 -2.3287 -2.0393
17609TIP3    H274243   0.930   5.016   4.166 -1.4604  0.7012 -1.3109
17610TIP3   OH274244   4.755   0.098   5.338 -0.0573  0.0392 -0.1611
17610TIP3    H174245   4.813   0.057   5.402 -0.6737  0.7913  0.8809
17610TIP3    H274246   4.701   0.157   5.389  0.4547  1.7628 -1.5791
17611TIP3   OH274247   0.572   1.604  14.077  0.5103  0.2696  0.3874
17611TIP3    H174248   0.652   1.628  14.029 -0.3088  1.1222 -0.5918
17611TIP3    H274249   0.501   1.622  14.015 -0.3639 -1.8614  0.7106
17612TIP3   OH274250   5.645   3.256   4.117  0.4228 -0.0288 -0.6546
17612TIP3    H174251   5.664   3.165   4.095 -0.8956 -0.4746  0.0303
17612TIP3    H274252   5.728   3.290   4.153  0.1467 -1.7570  1.7146
17613TIP3   OH274253   2.394   0.900   6.535  0.0489 -0.0308 -0.1577
17613TIP3    H174254   2.456   0.957   6.581  1.1232 -1.0421 -0.3225
17613TIP3    H274255   2.308   0.933   6.560  0.6514  1.0216  0.5577
17614TIP3   OH274256   1.486   6.427   1.301 -0.2225 -0.0996 -0.1161
17614TIP3    H174257   1.555   6.409   1.238  0.0275 -0.0903  0.1556
17614TIP3    H274258   1.408   6.442   1.247  0.1151  0.4822 -0.4521
17615TIP3   OH274259   3.767   6.321  15.655 -0.1032  0.4197  0.1841
17615TIP3    H174260   3.827   6.388  15.622  2.2120 -1.4339  0.5365
17615TIP3    H274261   3.754   6.343  15.747 -1.4031  1.8540 -0.3326
17616TIP3   OH274262   2.909   1.716  11.695  0.6244 -0.1705  0.3331
17616TIP3    H174263   2.817   1.704  11.674  0.2921 -0.1433  1.7102
17616TIP3    H274264   2.926   1.809  11.679  0.0212  0.1467  1.4975
17617TIP3   OH274265   4.417   0.033   4.320  0.0620 -0.1308 -0.3607
17617TIP3    H174266   4.438  -0.001   4.233 -1.1558 -1.7020 -0.0595
17617TIP3    H274267   4.382   0.120   4.303  2.1496  0.5717 -1.2349
17618TIP3   OH274268   3.115   1.373   5.493  0.3280  0.0772  0.4354
17618TIP3    H174269   3.089   1.308   5.428  1.1954  0.5749 -0.4468
17618TIP3    H274270   3.194   1.337   5.533  1.0705  0.7560 -0.3718
17619TIP3   OH274271   3.131   5.986  10.975  0.0716 -0.7523 -0.1493
17619TIP3    H174272   3.053   5.946  10.936  1.4370 -3.4496 -0.2218
17619TIP3    H274273   3.186   6.009  10.900  0.1308 -0.4799 -0.0226
17620TIP3   OH274274   4.338   0.930   2.372 -0.3387 -0.0348  0.1641
17620TIP3    H174275   4.324   0.947   2.465  1.7151  0.2484  0.4432
17620TIP3    H274276   4.318   0.837   2.361  1.7834 -0.6612  1.3907
17621TIP3   OH274277   1.921   3.375  16.530 -0.7033 -1.1574 -0.2256
17621TIP3    H174278   1.908   3.281  16.525 -1.7913 -1.0427  0.3169
17621TIP3    H274279   1.853   3.412  16.472 -0.8996 -0.6664  0.3129
17622TIP3   OH274280   6.319   3.579  13.157  0.3194 -0.0377 -0.0629
17622TIP3    H174281   6.374   3.607  13.230 -1.1420 -1.5038  1.6350
17622TIP3    H274282   6.351   3.492  13.136 -0.4128 -0.3135 -0.0235
17623TIP3   OH274283   4.972   4.734   1.196 -0.1153 -0.1522 -0.4756
17623TIP3    H174284   5.024   4.734   1.276  1.5972 -1.5003 -1.5648
17623TIP3    H274285   5.029   4.772   1.130  0.0236 -2.8663 -1.9994
17624TIP3   OH274286   5.303   0.878  13.424  0.2934  0.0264 -0.5637
17624TIP3    H174287   5.346   0.891  13.340 -1.1825 -1.8742 -1.6599
17624TIP3    H274288   5.213   0.907  13.409  0.6797  2.2163  1.1633
17625TIP3   OH274289   4.634   0.032   4.473  0.1609  0.3420 -0.6915
17625TIP3    H174290   4.554   0.049   4.424 -1.2047 -1.1949  0.9186
17625TIP3    H274291   4.649  -0.062   4.462  1.4674  0.5328 -0.5825
17626TIP3   OH274292   2.176   6.396   6.469 -0.5664  0.0505 -0.0025
17626TIP3    H174293   2.115   6.395   6.543 -2.5072 -0.5164 -1.5378
17626TIP3    H274294   2.190   6.489   6.450  2.1582  0.2891  2.7603
17627TIP3   OH274295   1.628   6.234   4.728 -0.3315  0.1569 -0.4986
17627TIP3    H174296   1.628   6.305   4.793  0.0225  1.1111 -1.5411
17627TIP3    H274297   1.641   6.155   4.781 -1.4971  0.7717  0.7574
17628TIP3   OH274298   4.304   3.647   2.411 -0.4357  0.1143  0.6802
17628TIP3    H174299   4.309   3.736   2.445 -1.4282  0.1476  0.7567
17628TIP3    H274300   4.381   3.638   2.355  0.0527  0.7774  1.2423
17629TIP3   OH274301   6.626   0.887   3.116  0.4811  0.3937 -0.1921
17629TIP3    H174302   6.671   0.804   3.101  1.2514  0.7240  0.2756
17629TIP3    H274303   6.557   0.866   3.179  0.4232  0.0263 -0.3789
17630TIP3   OH274304   6.368   5.037   3.262 -0.1226 -0.8605  0.2623
17630TIP3    H174305   6.421   5.043   3.342  1.1936 -0.4792 -0.6123
17630TIP3    H274306   6.317   5.118   3.262  0.3173 -0.5761  0.4168
17631TIP3   OH274307   5.651   0.033   2.360 -0.4649  0.3706  0.2563
17631TIP3    H174308   5.659   0.025   2.265 -1.8354 -1.1611  0.2462
17631TIP3    H274309   5.732   0.076   2.388  0.4724 -0.2518 -1.4520
17632TIP3   OH274310   2.682   6.143   3.522  0.5448 -0.0008 -0.3438
17632TIP3    H174311   2.593   6.117   3.496  0.4127 -0.4052  0.4890
17632TIP3    H274312   2.710   6.073   3.581  0.9889  0.6980  0.2749
17633TIP3   OH274313   1.122   5.452  13.524 -0.1675  0.0932 -0.4785
17633TIP3    H174314   1.175   5.413  13.455 -0.9991  0.2206 -1.1879
17633TIP3    H274315   1.036   5.413  13.514 -0.6461  1.1133 -0.3509
17634TIP3   OH274316   4.686   4.419   5.351 -0.0358 -0.2819  0.8690
17634TIP3    H174317   4.617   4.419   5.284 -0.4006 -0.5095  1.2403
17634TIP3    H274318   4.768   4.411   5.302 -0.1271  2.1003  0.2753
17635TIP3   OH274319   4.007   2.432   2.973 -0.6465  0.0084 -0.1415
17635TIP3    H174320   3.963   2.509   2.937 -0.7842  0.1490  0.3368
17635TIP3    H274321   3.955   2.407   3.049  0.2776  0.3553  0.6110
17636TIP3   OH274322   3.011   5.639   0.575  0.0213 -0.0380  0.6701
17636TIP3    H174323   2.931   5.671   0.532 -0.5870 -0.5609  1.4151
17636TIP3    H274324   3.050   5.718   0.615  1.6599  0.8475 -2.4846
17637TIP3   OH274325   3.748   0.634   3.906 -0.0148 -0.5380 -0.2823
17637TIP3    H174326   3.710   0.613   3.821 -0.5564  0.9386 -0.4315
17637TIP3    H274327   3.834   0.592   3.906 -0.2519 -1.0207 -1.3278
17638TIP3   OH274328   3.143   5.755   1.930 -0.7111 -0.4669 -0.1554
17638TIP3    H174329   3.140   5.690   2.000 -0.2560  0.0818  0.3826
17638TIP3    H274330   3.052   5.786   1.921 -0.5644  0.3771  1.0758
17639TIP3   OH274331   4.378   0.251  11.858 -0.4235  0.0057  0.3030
17639TIP3    H174332   4.393   0.271  11.950 -0.8917 -1.5081  0.7311
17639TIP3    H274333   4.462   0.221  11.825 -0.7143 -1.3932  0.7842
17640TIP3   OH274334   1.243   5.302  11.399  0.2422 -0.1504 -0.0105
17640TIP3    H174335   1.313   5.259  11.350 -0.4371  0.8418 -1.8839
17640TIP3    H274336   1.289   5.360  11.460  1.0627  0.2346 -0.9783
17641TIP3   OH274337   5.686   3.010   3.991 -1.0072 -0.4846  0.0898
17641TIP3    H174338   5.724   2.951   3.926 -1.5459  0.3652 -1.0121
17641TIP3    H274339   5.599   3.030   3.957 -0.9336  0.7213  0.6030
17642TIP3   OH274340   5.600   5.101  17.017  0.3410  0.2561  0.6122
17642TIP3    H174341   5.534   5.052  17.066  0.0920 -0.0833 -0.0696
17642TIP3    H274342   5.551   5.152  16.953  0.6797  0.6028  0.6210
17643TIP3   OH274343   3.958   6.500   5.738  0.2502 -0.2045 -0.0414
17643TIP3    H174344   3.881   6.549   5.766 -0.8714 -1.4655 -0.8224
17643TIP3    H274345   3.995   6.466   5.819 -1.3769 -1.5282  0.1892
17644TIP3   OH274346   4.453   3.204  12.853 -0.5683  0.4223  0.1477
17644TIP3    H174347   4.522   3.218  12.787 -1.6091 -0.0488 -1.0544
17644TIP3    H274348   4.442   3.290  12.894  0.0328  0.7456 -0.3541
17645TIP3   OH274349   1.640   4.961   1.403  0.3184 -0.0612  0.0274
17645TIP3    H174350   1.714   4.902   1.419  1.2972  1.2701  0.4510
17645TIP3    H274351   1.673   5.025   1.341 -0.8579 -0.1564 -0.7075
17646TIP3   OH274352   6.296   5.297   3.291  0.6230 -0.4720 -0.1759
17646TIP3    H174353   6.318   5.350   3.215 -0.6709 -2.5241 -2.0602
17646TIP3    H274354   6.346   5.335   3.363  0.9418  2.2686 -1.7913
17647TIP3   OH274355   6.379   1.088  13.696 -0.6782 -0.1956  0.1973
17647TIP3    H174356   6.283   1.077  13.698 -0.6897 -0.2263 -0.4172
17647TIP3    H274357   6.413   1.000  13.712 -0.7477 -0.0956  0.9199
17648TIP3   OH274358   3.870   2.404   1.333  0.0252  0.1651  0.2482
17648TIP3    H174359   3.811   2.385   1.260  0.7728  0.3502 -0.4161
17648TIP3    H274360   3.952   2.428   1.291  0.0660  1.6398  1.1148
17649TIP3   OH274361   0.380   1.067   3.624 -0.3681  0.0341  0.4244
17649TIP3    H174362   0.399   1.002   3.692  1.3308 -0.3290 -0.3755
17649TIP3    H274363   0.439   1.140   3.644  0.7323 -0.4188 -1.1501
17650TIP3   OH274364   5.086   3.467   3.529 -0.2598 -0.8725 -0.6707
17650TIP3    H174365   5.105   3.440   3.439  1.5501 -1.9087  0.0085
17650TIP3    H274366   5.099   3.561   3.528  0.7301 -0.9995 -1.2729
17651TIP3   OH274367   2.247   4.638  17.219 -0.3917  0.3118  0.2997
17651TIP3    H174368   2.189   4.714  17.222  0.2704  0.8282  0.0756
17651TIP3    H274369   2.264   4.625  17.125 -0.2801  0.0556  0.3558
17652TIP3   OH274370   4.509   6.424   2.458 -0.2313 -0.0887 -0.2524
17652TIP3    H174371   4.451   6.387   2.391 -1.9853  0.7500  0.7591
17652TIP3    H274372   4.564   6.486   2.410 -1.3062  0.3344 -0.9510
17653TIP3   OH274373   0.718   0.379  10.528 -0.3549 -0.3969  0.2334
17653TIP3    H174374   0.788   0.373  10.594 -0.1388  0.9048  0.1487
17653TIP3    H274375   0.638   0.363  10.577 -0.1749  0.2935  0.7661
17654TIP3   OH274376   6.035   1.934  15.284 -1.2388 -0.3469  0.4556
17654TIP3    H174377   5.945   1.907  15.301 -0.0161 -3.7398  1.8192
17654TIP3    H274378   6.078   1.931  15.369  0.9111 -1.6764 -0.6438
17655TIP3   OH274379   0.074   5.877   5.436 -0.1564 -0.1962  0.3731
17655TIP3    H174380   0.067   5.824   5.357 -0.5719  0.3079  0.0692
17655TIP3    H274381   0.045   5.819   5.507 -0.8766 -0.2836  0.0075
17656TIP3   OH274382   0.022   2.877  14.065  0.3132 -0.2237  0.6468
17656TIP3    H174383   0.094   2.919  14.018  0.4950  0.6753  1.7165
17656TIP3    H274384   0.065   2.832  14.138 -0.3710  1.8183  2.3497
17657TIP3   OH274385   3.740   2.147  13.579  0.3502  0.0752  0.2250
17657TIP3    H174386   3.702   2.227  13.544  1.2655  1.4379  2.2874
17657TIP3    H274387   3.821   2.175  13.622  1.0373 -2.0412  0.3843
17658TIP3   OH274388   0.521   0.837  14.834 -0.2768 -0.1059  0.6882
17658TIP3    H174389   0.526   0.900  14.906 -0.3355  0.0012  0.5986
17658TIP3    H274390   0.466   0.879  14.769  0.4329  0.1358  0.2389
17659TIP3   OH274391   2.874   6.490   2.566  0.1963  1.1281  0.0446
17659TIP3    H174392   2.864   6.491   2.661  0.4929 -0.5295  0.1090
17659TIP3    H274393   2.811   6.556   2.534 -0.7150  0.8894  1.3124
17660TIP3   OH274394   5.471   2.576   5.377 -0.1362  0.2276  0.1661
17660TIP3    H174395   5.565   2.556   5.378 -0.8869 -3.4613  1.6518
17660TIP3    H274396   5.459   2.636   5.451  0.8341 -0.3515  0.8101
17661TIP3   OH274397   1.420   4.573   5.353 -0.3689 -0.7301  0.1136
17661TIP3    H174398   1.365   4.511   5.305 -0.3021 -0.3836 -0.4183
17661TIP3    H274399   1.431   4.533   5.439 -0.4922 -1.3653 -0.1575
17662TIP3   OH274400   4.048   0.696  16.019  0.1693 -0.3138  0.1198
17662TIP3    H174401   4.051   0.655  15.933 -0.4486 -0.4952  0.1842
17662TIP3    H274402   4.064   0.625  16.080 -0.4461 -0.3847  0.2063
17663TIP3   OH274403   2.419   4.147   3.515  0.3546 -0.6830  0.0718
17663TIP3    H174404   2.496   4.132   3.460  0.6475  0.6550  0.1191
17663TIP3    H274405   2.382   4.059   3.527  1.9904 -1.3745  0.2364
17664TIP3   OH274406   3.150   0.522  12.612 -0.1238 -0.9785 -0.1383
17664TIP3    H174407   3.128   0.430  12.625  0.4636 -1.4288 -2.0578
17664TIP3    H274408   3.242   0.522  12.588 -0.1277  0.1123 -0.2070
17665TIP3   OH274409   4.275   2.454  17.064  0.1066 -0.0374  0.0733
17665TIP3    H174410   4.342   2.495  17.009  0.7911 -2.1295 -0.6745
17665TIP3    H274411   4.303   2.363  17.073 -1.6415 -0.4773  1.3316
17666TIP3   OH274412   6.247   6.268   5.658  0.2014 -0.5093  0.6046
17666TIP3    H174413   6.197   6.277   5.739 -2.1125  0.7607 -0.9125
17666TIP3    H274414   6.222   6.183   5.624 -0.4628 -0.1421  0.1655
17667TIP3   OH274415   4.773   5.601   3.535 -0.6192  0.5963 -0.3263
17667TIP3    H174416   4.788   5.608   3.630  0.1560 -0.5447 -0.3482
17667TIP3    H274417   4.774   5.507   3.519  2.8931  0.8418 -2.0368
17668TIP3   OH274418   5.037   3.275   1.792  0.0332 -0.3918  0.1050
17668TIP3    H174419   4.997   3.361   1.805 -0.5845 -0.4349 -1.4035
17668TIP3    H274420   4.965   3.213   1.804  0.1904 -0.6186 -0.1227
17669TIP3   OH274421   1.577   3.673   2.495  0.4118  0.1146 -0.2490
17669TIP3    H174422   1.672   3.665   2.500  0.4253 -0.4604 -1.2552
17669TIP3    H274423   1.555   3.747   2.552  1.4585  0.2651 -0.0424
17670TIP3   OH274424   6.415   5.812   0.903  0.3473 -1.2393 -0.4883
17670TIP3    H174425   6.399   5.753   0.829  0.8685 -1.7551 -0.1919
17670TIP3    H274426   6.371   5.770   0.977 -0.7965 -0.3577 -0.6603
17671TIP3   OH274427   3.450   5.577  17.226 -0.1535  0.7351  0.0239
17671TIP3    H174428   3.389   5.649  17.211  0.4280  1.2852  0.2949
17671TIP3    H274429   3.461   5.537  17.139 -1.1256  0.4395  0.0284
17672TIP3   OH274430   3.621   3.247   4.096  0.3037 -0.0076  0.8666
17672TIP3    H174431   3.568   3.200   4.031  0.8129  0.7375 -0.1071
17672TIP3    H274432   3.568   3.246   4.175 -2.7539  3.6464 -0.9729
17673TIP3   OH274433   4.379   2.591   0.403  0.0651  0.1770  0.3747
17673TIP3    H174434   4.374   2.499   0.429 -0.0430  0.1696  0.3285
17673TIP3    H274435   4.343   2.592   0.314  2.2980 -0.1162 -0.5523
17674TIP3   OH274436   4.855   1.864  14.994  0.2382  0.9065 -0.2116
17674TIP3    H174437   4.910   1.917  15.052 -0.2357  2.5260 -1.2153
17674TIP3    H274438   4.888   1.882  14.906 -1.2120  1.0979 -0.7336
17675TIP3   OH274439   0.817   3.247   0.185 -0.0448 -0.6669  0.1133
17675TIP3    H174440   0.902   3.283   0.208 -1.8826  4.6226 -0.7336
17675TIP3    H274441   0.778   3.222   0.269  1.6050 -1.4306  0.6634
17676TIP3   OH274442   2.444   5.792  15.829 -0.1562 -0.2703 -0.0192
17676TIP3    H174443   2.363   5.749  15.857 -0.8797 -0.0139 -1.7135
17676TIP3    H274444   2.503   5.719  15.807 -0.8689 -0.4285 -1.4372
17677TIP3   OH274445   1.092   5.375   4.790  0.3503 -0.7100  0.1747
17677TIP3    H174446   1.005   5.415   4.798  1.7291  2.0664  2.4082
17677TIP3    H274447   1.131   5.419   4.714 -0.0270 -1.6647 -0.5807
17678TIP3   OH274448   4.621   3.256  13.887 -0.1133  0.3464  0.0550
17678TIP3    H174449   4.609   3.163  13.869  2.8074 -0.0483 -0.1697
17678TIP3    H274450   4.631   3.296  13.801 -2.6867  1.1180  0.0786
17679TIP3   OH274451   5.654   6.088  12.247  0.1590  0.3131  0.0441
17679TIP3    H174452   5.615   6.170  12.276 -0.1286 -0.3573  1.6288
17679TIP3    H274453   5.746   6.095  12.273  0.5869  0.9635 -1.6438
17680TIP3   OH274454   5.613   4.590   1.720  0.2377  0.6523  0.1086
17680TIP3    H174455   5.629   4.517   1.660  3.0602  0.3358  1.1643
17680TIP3    H274456   5.522   4.581   1.746  0.2830 -1.9608 -0.5057
17681TIP3   OH274457   6.449   3.329   0.948  0.2268  0.6329 -0.4133
17681TIP3    H174458   6.505   3.306   0.874  0.3385  0.6873 -0.3446
17681TIP3    H274459   6.448   3.425   0.949  1.7374  0.6572  0.8041
17682TIP3   OH274460   5.908   5.993   5.781 -0.4356 -0.7154  0.5029
17682TIP3    H174461   5.957   5.995   5.863 -0.3394 -2.1909  0.5076
17682TIP3    H274462   5.829   5.943   5.801 -1.6730  1.1560  0.3430
17683TIP3   OH274463   3.301   3.753  13.861 -0.0585 -0.8133 -0.2140
17683TIP3    H174464   3.216   3.723  13.830 -0.1888  0.5017 -1.1492
17683TIP3    H274465   3.321   3.695  13.935 -0.3989 -3.0598 -1.8372
17684TIP3   OH274466   2.193   3.752  16.814 -1.2067 -0.4243 -0.5113
17684TIP3    H174467   2.200   3.805  16.735  0.9289 -0.4090 -0.3532
17684TIP3    H274468   2.149   3.808  16.878  0.7053  1.0732 -0.4630
17685TIP3   OH274469   2.183   6.429   2.541  0.5336 -0.3608 -0.3448
17685TIP3    H174470   2.229   6.346   2.535  0.7503 -0.2089 -0.8208
17685TIP3    H274471   2.218   6.481   2.469 -0.4369 -0.2765 -0.7649
17686TIP3   OH274472   5.101   5.131  15.141  0.2148 -0.8138  0.8108
17686TIP3    H174473   5.187   5.155  15.176  1.3079 -3.4112  0.0488
17686TIP3    H274474   5.044   5.126  15.217  1.2352 -0.9570  1.5775
17687TIP3   OH274475   3.474   4.687  14.091 -0.0179 -0.0554  0.3885
17687TIP3    H174476   3.432   4.711  14.009  1.5398 -0.0262 -0.4061
17687TIP3    H274477   3.567   4.686  14.072  0.3637 -0.1543  2.1312
17688TIP3   OH274478   5.917   6.195  10.368 -0.4514 -0.0657 -0.1775
17688TIP3    H174479   5.972   6.186  10.447 -2.3052 -1.2809  1.0230
17688TIP3    H274480   5.831   6.162  10.395 -1.5542  1.0061 -2.2710
17689TIP3   OH274481   4.131   1.179  13.407  0.1006  0.1249  0.1263
17689TIP3    H174482   4.110   1.190  13.500  1.5872  0.9097  0.3754
17689TIP3    H274483   4.225   1.198  13.401  0.2192 -0.8392 -1.3864
17690TIP3   OH274484   5.297   2.470  14.822  0.3148 -0.5109 -0.0981
17690TIP3    H174485   5.258   2.481  14.909 -0.8576  0.2217 -0.7016
17690TIP3    H274486   5.224   2.485  14.762  1.1980 -0.6953 -1.2124
17691TIP3   OH274487   4.329   3.626  13.396  0.5351 -0.3289  0.2409
17691TIP3    H174488   4.318   3.532  13.409  2.0182 -0.3462  1.6209
17691TIP3    H274489   4.260   3.666  13.449 -0.5559 -0.6588 -0.9373
17692TIP3   OH274490   3.457   2.323  13.180  0.2568  0.6078  0.2402
17692TIP3    H174491   3.443   2.298  13.088  0.5392 -0.7900  0.5646
17692TIP3    H274492   3.513   2.400  13.175  0.6159  0.2961 -0.7724
17693TIP3   OH274493   4.157   4.799   1.848 -0.0474  0.0261 -0.1830
17693TIP3    H174494   4.222   4.766   1.786  0.8793  0.6868  0.4359
17693TIP3    H274495   4.178   4.892   1.859 -1.8861  0.5642 -0.9603
17694TIP3   OH274496   5.999   3.531  16.074 -0.3991 -0.0435 -0.1366
17694TIP3    H174497   5.909   3.540  16.105 -0.2077  0.3085  0.3227
17694TIP3    H274498   6.018   3.614  16.030 -0.8648 -0.7526 -1.7374
17695TIP3   OH274499   2.802   5.893  11.362 -0.5711  0.5133 -0.2702
17695TIP3    H174500   2.854   5.872  11.440  1.0482 -0.3875 -1.5643
17695TIP3    H274501   2.716   5.856  11.381 -0.6869  1.7406  1.7645
17696TIP3   OH274502   2.475   0.359   2.626 -0.1138  0.1775 -0.6175
17696TIP3    H174503   2.525   0.338   2.546  0.0052 -0.2229 -0.4391
17696TIP3    H274504   2.491   0.285   2.684 -1.0351 -0.0161 -0.6084
17697TIP3   OH274505   3.366   3.054  13.593 -0.7539  0.2016 -0.3461
17697TIP3    H174506   3.371   3.138  13.639  0.9865  0.3892 -0.8556
17697TIP3    H274507   3.457   3.033  13.572 -1.0910 -2.1945  0.4648
17698TIP3   OH274508   0.481   6.168  15.864  0.6203 -0.7571 -0.3833
17698TIP3    H174509   0.541   6.239  15.887 -1.0051  0.9269 -1.3196
17698TIP3    H274510   0.402   6.185  15.915  0.2565 -1.9385 -0.5427
17699TIP3   OH274511   3.516   4.402   1.297 -0.3673 -0.0997  0.4397
17699TIP3    H174512   3.449   4.339   1.325 -0.6589  0.4815  1.0573
17699TIP3    H274513   3.471   4.486   1.299 -0.0570  0.0954 -0.6669
17700TIP3   OH274514   5.276   1.939  13.011 -0.3090 -0.3737 -0.4834
17700TIP3    H174515   5.329   1.860  13.001  0.3273 -0.1240  0.8049
17700TIP3    H274516   5.300   1.974  13.097  0.4304  1.9742 -1.5854
17701TIP3   OH274517   1.118   2.528  15.936  0.3438  0.2455  0.7607
17701TIP3    H174518   1.183   2.459  15.953  0.1340 -0.0281  0.4525
17701TIP3    H274519   1.036   2.480  15.923  0.8993  0.2538 -3.3772
17702TIP3   OH274520   5.645   4.027   1.935  0.5056  0.2962  0.2722
17702TIP3    H174521   5.610   3.979   2.011  1.1554 -0.1101  0.3223
17702TIP3    H274522   5.666   4.114   1.970  3.4474 -0.7302  1.2997
17703TIP3   OH274523   2.454   1.351  12.066 -0.4468 -0.7236  0.2111
17703TIP3    H174524   2.387   1.287  12.045 -1.1214  0.0542 -0.0252
17703TIP3    H274525   2.448   1.363  12.160 -0.3068 -1.0140  0.2578
17704TIP3   OH274526   3.416   2.114  12.170 -0.0084 -0.8572  0.0970
17704TIP3    H174527   3.376   2.075  12.248 -1.7642 -1.6713 -1.1760
17704TIP3    H274528   3.380   2.064  12.097 -1.0128  2.0573 -1.4803
17705TIP3   OH274529   4.980   4.436   4.916 -0.3659 -0.0729 -0.2902
17705TIP3    H174530   5.037   4.500   4.959  0.9345 -0.5514 -1.2644
17705TIP3    H274531   5.027   4.353   4.925 -2.1557 -0.9632  1.1899
17706TIP3   OH274532   0.937   1.336  13.029 -0.0543  0.2576  0.2699
17706TIP3    H174533   0.919   1.385  12.949 -0.2790 -0.6007 -0.2126
17706TIP3    H274534   0.939   1.244  13.001  0.5060 -0.0002  1.1314
17707TIP3   OH274535   6.219   0.166  15.200  0.0115 -0.2512 -0.2782
17707TIP3    H174536   6.255   0.175  15.288 -0.2407  1.3108 -0.3269
17707TIP3    H274537   6.283   0.112  15.153  0.3329 -0.7714  0.7465
17708TIP3   OH274538   2.151   6.598  16.669  0.0756  0.1320 -0.3444
17708TIP3    H174539   2.058   6.617  16.676 -0.3934 -2.3607  0.9532
17708TIP3    H274540   2.168   6.595  16.575 -1.8082 -2.1317 -0.6752
17709TIP3   OH274541   1.166   4.000  13.169 -0.1507  0.5003 -0.2271
17709TIP3    H174542   1.129   3.919  13.204 -0.5466  0.5909 -0.4379
17709TIP3    H274543   1.228   3.971  13.102 -0.0636  0.3625 -0.0882
17710TIP3   OH274544   2.706   3.311   1.965 -0.4778 -0.0891 -0.1413
17710TIP3    H174545   2.776   3.376   1.969  0.2742 -0.6926 -2.5583
17710TIP3    H274546   2.740   3.235   2.011  0.3861 -0.2961 -1.1079
17711TIP3   OH274547   0.673   5.597  13.247 -0.2508  0.2678 -0.7533
17711TIP3    H174548   0.716   5.610  13.163 -1.0683  2.5538 -0.8644
17711TIP3    H274549   0.710   5.665  13.304  0.3657 -1.3129  0.7731
17712TIP3   OH274550   4.053   4.527  14.666 -0.3046  0.7068 -0.6706
17712TIP3    H174551   4.044   4.566  14.579 -1.6210  0.9693 -0.4268
17712TIP3    H274552   4.142   4.550  14.693  0.3869 -0.0623 -2.2673
17713TIP3   OH274553   5.616   3.505   0.919 -0.5571  0.4306  0.0201
17713TIP3    H174554   5.631   3.461   0.836 -1.5241  1.4198 -0.6952
17713TIP3    H274555   5.679   3.577   0.920 -1.5386  1.3173 -0.5444
17714TIP3   OH274556   5.856   2.286   3.119  0.3829 -0.0547  0.3160
17714TIP3    H174557   5.823   2.325   3.038 -1.8894 -0.1419  1.1577
17714TIP3    H274558   5.926   2.228   3.091  0.0560  0.3973 -1.5214
17715TIP3   OH274559   1.102   3.467  16.511  0.5471 -0.3824 -0.4122
17715TIP3    H174560   1.178   3.489  16.457  0.1388 -1.0958 -1.2717
17715TIP3    H274561   1.050   3.547  16.514  0.1882 -0.5655 -1.7011
17716TIP3   OH274562   1.228   1.417  12.832 -0.0392  0.7266 -0.1599
17716TIP3    H174563   1.220   1.360  12.909  0.2628  0.8612 -0.0291
17716TIP3    H274564   1.239   1.356  12.759  2.9817  0.6596  0.2972
17717TIP3   OH274565   4.982   3.414   2.241 -0.4725  0.8266 -0.1679
17717TIP3    H174566   4.899   3.451   2.271 -0.6712  1.9306 -2.0241
17717TIP3    H274567   4.970   3.319   2.251 -1.3653  1.0530  1.0539
17718TIP3   OH274568   1.491   4.191   3.781 -0.1575  0.0479 -0.1383
17718TIP3    H174569   1.430   4.234   3.721 -0.3777  1.2052  0.8972
17718TIP3    H274570   1.437   4.162   3.855  0.6549  1.9095  1.2315
17719TIP3   OH274571   3.803   3.446   3.474 -0.9381 -0.8893  0.1946
17719TIP3    H174572   3.747   3.377   3.439 -1.6214 -1.1386  1.7079
17719TIP3    H274573   3.870   3.400   3.525 -0.7507 -0.4927  0.3140
17720TIP3   OH274574   0.957   4.343  17.051  0.5375  0.1675 -0.5890
17720TIP3    H174575   0.892   4.273  17.057  0.2254  0.4631 -0.5415
17720TIP3    H274576   1.030   4.312  17.105  1.6635 -1.4937 -2.9912
17721TIP3   OH274577   2.251   1.966   4.715  0.2218  0.2439 -0.6592
17721TIP3    H174578   2.275   1.897   4.777 -0.1985 -2.0429 -2.9897
17721TIP3    H274579   2.184   2.017   4.762 -1.1813 -2.3331  0.2454
17722TIP3   OH274580   3.868   3.314   1.652 -0.4016  0.7560 -0.3019
17722TIP3    H174581   3.937   3.361   1.699  1.1537 -0.4112 -1.4030
17722TIP3    H274582   3.911   3.238   1.614 -1.7195  1.3615 -3.1585
17723TIP3   OH274583   2.951   2.258   6.406 -0.8147  0.3097 -0.5081
17723TIP3    H174584   2.859   2.272   6.428 -0.9163 -0.9578 -0.0548
17723TIP3    H274585   2.998   2.280   6.487 -1.1487 -3.8700  0.9437
17724TIP3   OH274586   1.998   0.973  13.307 -0.0470 -0.1299 -0.5245
17724TIP3    H174587   1.995   0.888  13.264  1.5225  0.3312 -1.5685
17724TIP3    H274588   2.089   1.002  13.298 -0.2897  1.1260  0.8551
17725TIP3   OH274589   2.251   0.005  14.354  0.3766  0.5330 -0.1080
17725TIP3    H174590   2.165   0.018  14.314 -0.0584  0.3257  0.7507
17725TIP3    H274591   2.286  -0.073  14.312  0.3397  0.8695 -0.7755
17726TIP3   OH274592   1.341   4.101   6.054 -0.1762  0.3206  0.1285
17726TIP3    H174593   1.387   4.068   6.131  0.2484 -0.0370 -0.2764
17726TIP3    H274594   1.248   4.098   6.078 -0.0385  0.3738  0.6863
17727TIP3   OH274595   5.466   4.099   5.128  0.2600 -0.5780  0.1065
17727TIP3    H174596   5.390   4.065   5.176  0.7935 -0.1304  1.2769
17727TIP3    H274597   5.534   4.110   5.195  0.2577  2.3402 -0.3453
17728TIP3   OH274598   0.798   6.449  14.657 -0.4952 -0.3188  0.1254
17728TIP3    H174599   0.793   6.411  14.744 -1.8895  0.2549  0.2983
17728TIP3    H274600   0.887   6.486  14.652  0.2047 -1.8948  0.6382
17729TIP3   OH274601   6.545   4.168   3.983  0.2767  0.5582  0.6142
17729TIP3    H174602   6.470   4.110   3.999  1.4825 -0.9398  0.9545
17729TIP3    H274603   6.563   4.158   3.889 -0.4244  1.5118  0.3736
17730TIP3   OH274604   0.890   1.310  15.749  0.3676 -0.0930  0.0431
17730TIP3    H174605   0.928   1.397  15.749  1.4056 -0.5462  0.2935
17730TIP3    H274606   0.838   1.307  15.668  0.7664  0.5636 -0.2397
17731TIP3   OH274607   6.564   5.026  15.845 -0.7490  0.7173 -0.1435
17731TIP3    H174608   6.508   5.028  15.922  0.9026  0.5401  1.0932
17731TIP3    H274609   6.542   4.943  15.802 -1.7073  0.8337  0.1165
17732TIP3   OH274610   2.650   3.851  11.678 -0.4169  0.0704  0.1527
17732TIP3    H174611   2.702   3.787  11.628 -1.7747 -0.3086 -0.7989
17732TIP3    H274612   2.709   3.925  11.689  0.7398 -0.8266  0.1214
17733TIP3   OH274613   2.281   1.997   2.003 -0.0638 -0.4852 -0.0211
17733TIP3    H174614   2.217   2.041   1.947  0.7258 -0.9120 -1.3042
17733TIP3    H274615   2.365   2.015   1.961  0.5603 -0.6897  1.1289
17734TIP3   OH274616   4.449   5.295  15.722 -0.2842  0.5507 -0.5133
17734TIP3    H174617   4.430   5.202  15.736  1.7716  0.3035  0.8438
17734TIP3    H274618   4.365   5.338  15.734 -1.0568 -1.0244 -0.0881
17735TIP3   OH274619   2.828   1.169  12.947  0.1802  0.8696 -0.1553
17735TIP3    H174620   2.833   1.091  12.891 -0.1991 -0.5452  1.7459
17735TIP3    H274621   2.736   1.195  12.944 -0.2219 -0.3499  1.3256
17736TIP3   OH274622   6.487   0.069   2.215 -0.5190 -0.5853  0.0643
17736TIP3    H174623   6.439   0.106   2.289 -0.2271  0.0194 -0.0468
17736TIP3    H274624   6.576   0.059   2.248 -0.4484 -0.5635 -0.1240
17737TIP3   OH274625   0.313   4.085   1.941  0.1872  0.0053 -0.5154
17737TIP3    H174626   0.404   4.114   1.943  0.4364 -0.7686 -0.5702
17737TIP3    H274627   0.303   4.030   2.019 -0.2041 -0.0002 -0.5643
17738TIP3   OH274628   6.122   2.676   4.734  0.2177  0.5883  0.1448
17738TIP3    H174629   6.066   2.711   4.803  0.7410  0.9817  0.3700
17738TIP3    H274630   6.128   2.582   4.753 -1.3401  0.3159 -0.5693
17739TIP3   OH274631   4.902   5.820  16.162 -0.6222 -0.1586 -0.1949
17739TIP3    H174632   4.871   5.902  16.199 -0.6110 -0.3893  0.3326
17739TIP3    H274633   4.915   5.839  16.069  0.4053  0.7273  0.1252
17740TIP3   OH274634   4.873   2.066   0.825  0.8808  0.1904  0.0422
17740TIP3    H174635   4.799   2.114   0.786  1.3277  2.1257  1.4778
17740TIP3    H274636   4.846   1.974   0.823 -1.2204  0.7874 -0.2172
17741TIP3   OH274637   1.252   4.267   4.116 -0.0306 -0.1751 -0.2008
17741TIP3    H174638   1.237   4.228   4.202  1.1903  0.4657  0.3079
17741TIP3    H274639   1.186   4.226   4.059 -0.1028 -1.4284  0.7811
17742TIP3   OH274640   2.453   1.454   1.975 -1.1780 -0.1284 -0.0603
17742TIP3    H174641   2.511   1.473   2.049 -2.4414 -0.4004  1.0284
17742TIP3    H274642   2.457   1.533   1.921  0.2317 -0.1644 -0.0211
17743TIP3   OH274643   0.435   0.521  13.724 -0.7312 -0.7137  0.0443
17743TIP3    H174644   0.403   0.610  13.707  1.6593 -0.0067 -1.1277
17743TIP3    H274645   0.437   0.480  13.637  2.4004 -0.3640 -0.1088
17744TIP3   OH274646   6.539   0.095  15.640  0.6722  0.1337 -0.3113
17744TIP3    H174647   6.590   0.072  15.563  3.2210 -0.1960  1.4063
17744TIP3    H274648   6.565   0.185  15.661 -1.2337  0.8226 -0.7565
17745TIP3   OH274649   5.820   3.598  16.717 -0.1440  0.2004  0.2383
17745TIP3    H174650   5.868   3.550  16.784  1.6757  2.1898  0.4411
17745TIP3    H274651   5.728   3.585  16.738  0.3754 -0.7390  2.0027
17746TIP3   OH274652   0.747   1.986   0.519 -0.2840  0.6138  0.3673
17746TIP3    H174653   0.680   2.026   0.464 -0.2111 -1.4816 -1.3289
17746TIP3    H274654   0.758   1.898   0.483  2.5617  0.5145  1.3484
17747TIP3   OH274655   6.712   5.495  10.948 -0.4302  0.2225  0.2115
17747TIP3    H174656   6.713   5.555  11.022  0.0746  0.7496 -0.2171
17747TIP3    H274657   6.793   5.514  10.900  0.5578 -1.9047  0.9584
17748TIP3   OH274658   2.898   5.227  12.566 -0.1216 -0.2379 -0.1525
17748TIP3    H174659   2.813   5.267  12.545 -0.4458 -1.0595 -0.4357
17748TIP3    H274660   2.917   5.258  12.654  0.5441  2.0511 -1.0666
17749TIP3   OH274661   6.060   1.602   4.640 -0.0937  0.2735  0.6219
17749TIP3    H174662   6.017   1.646   4.566 -0.3797 -2.5463 -0.9366
17749TIP3    H274663   6.145   1.574   4.605  0.2434 -0.1202  1.7252
17750TIP3   OH274664   2.913   6.385  12.451 -0.2118  0.3167  0.3146
17750TIP3    H174665   2.955   6.351  12.530 -1.1395 -1.3175  0.1466
17750TIP3    H274666   2.837   6.434  12.484  0.2877  0.9551  0.5086
17751TIP3   OH274667   4.424   2.026   2.006  0.2516 -1.1093  1.0332
17751TIP3    H174668   4.391   2.007   1.918 -0.1175 -0.4052  1.0099
17751TIP3    H274669   4.479   1.952   2.028  0.5970 -1.1428  0.0759
17752TIP3   OH274670   1.108   1.547   2.495  0.1066  0.5321 -0.0621
17752TIP3    H174671   1.164   1.494   2.552 -0.8163  1.7653  2.0267
17752TIP3    H274672   1.168   1.613   2.458  0.2162  1.4101  1.6200
17753TIP3   OH274673   3.150   1.992   1.630 -0.1005 -0.1090 -0.5053
17753TIP3    H174674   3.151   1.999   1.535  2.5305  0.4878 -0.4453
17753TIP3    H274675   3.078   2.049   1.658  0.2751  1.1162 -2.0193
17754TIP3   OH274676   1.968   5.061   4.449  0.0064  0.5938 -0.2389
17754TIP3    H174677   2.013   5.044   4.366 -0.6407 -0.7976 -0.3187
17754TIP3    H274678   1.960   5.156   4.452  0.6926  0.7068 -1.4212
17755TIP3   OH274679   5.039   6.459   0.105  0.0505  0.0525  0.0806
17755TIP3    H174680   5.045   6.552   0.126  0.8691  0.4405 -1.7732
17755TIP3    H274681   4.945   6.439   0.112 -0.2119  1.1687 -0.1339
17756TIP3   OH274682   5.714   6.747  16.691 -0.4358 -0.1407 -0.2158
17756TIP3    H174683   5.806   6.758  16.666 -0.5484  0.9152 -0.1778
17756TIP3    H274684   5.665   6.784  16.618 -0.7931  1.5224  0.8478
17757TIP3   OH274685   4.102   6.002   2.741  0.3966 -0.0997 -0.4525
17757TIP3    H174686   4.009   5.985   2.728  0.2136 -0.3523  1.1313
17757TIP3    H274687   4.121   6.077   2.685 -0.6613 -0.2927 -1.0811
17758TIP3   OH274688   4.636   4.226   2.007  0.0784  0.1329 -0.6106
17758TIP3    H174689   4.666   4.200   1.920  0.0382 -0.4086 -0.4671
17758TIP3    H274690   4.698   4.185   2.067 -1.7420 -2.2336 -0.2479
17759TIP3   OH274691   5.621   0.754   6.167 -0.0242 -0.1010 -0.1997
17759TIP3    H174692   5.643   0.697   6.241  0.3411 -0.2914 -0.4531
17759TIP3    H274693   5.638   0.842   6.199  0.4888 -0.2050 -0.1777
17760TIP3   OH274694   1.482   3.453   4.199 -0.0163  0.2532 -0.0199
17760TIP3    H174695   1.465   3.459   4.105 -0.8194 -0.4751  0.0724
17760TIP3    H274696   1.517   3.365   4.211  2.7493  1.2959 -0.0228
17761TIP3   OH274697   1.632   5.963  16.994 -0.5083 -0.4827 -0.0464
17761TIP3    H174698   1.539   5.968  17.018 -0.0126  0.9013  1.6298
17761TIP3    H274699   1.673   6.037  17.039  1.3044 -0.6944 -1.3080
17762TIP3   OH274700   4.127   3.712   4.353  0.1862 -0.1309  0.4193
17762TIP3    H174701   4.033   3.704   4.364  0.3716  1.3412  3.4312
17762TIP3    H274702   4.164   3.702   4.441  2.6684  1.3152 -0.3740
17763TIP3   OH274703   2.817   1.526  12.259 -0.2796 -0.2515 -0.3317
17763TIP3    H174704   2.887   1.586  12.287  1.5778 -2.3842 -0.2672
17763TIP3    H274705   2.784   1.489  12.341  0.5181 -1.4006 -0.5100
17764TIP3   OH274706   4.951   4.263  15.355  0.3632  0.3043 -1.0239
17764TIP3    H174707   5.030   4.274  15.301  1.2399  2.8058  0.6969
17764TIP3    H274708   4.908   4.349  15.352 -0.8873 -0.2645  0.2274
17765TIP3   OH274709   0.157   6.481   3.652  0.3037  0.4335  0.0998
17765TIP3    H174710   0.169   6.544   3.723  2.4320  3.6061 -2.9156
17765TIP3    H274711   0.212   6.407   3.676  0.8376  1.3737  1.8487
17766TIP3   OH274712   3.075   1.232   2.661  0.2478 -0.5034 -0.2778
17766TIP3    H174713   3.104   1.302   2.720 -0.2634 -0.0453 -0.5686
17766TIP3    H274714   3.038   1.277   2.586  1.6727 -1.0950 -1.3456
17767TIP3   OH274715   5.479   4.654   4.286 -0.2813 -0.0809 -0.0329
17767TIP3    H174716   5.417   4.581   4.281 -1.7494  1.0570  0.9196
17767TIP3    H274717   5.554   4.619   4.333 -0.8410 -1.0816  0.1206
17768TIP3   OH274718   6.078   6.742   5.701 -0.2469  0.0403  0.3122
17768TIP3    H174719   6.170   6.718   5.689 -0.9326 -2.0015 -1.3519
17768TIP3    H274720   6.055   6.704   5.786  0.4021  0.3823  0.6447
17769TIP3   OH274721   2.571   4.711  13.670  0.2600  0.0505  0.2362
17769TIP3    H174722   2.500   4.723  13.733 -0.1252 -0.9237  0.0035
17769TIP3    H274723   2.555   4.624  13.634  0.0349  0.9173 -1.7733
17770TIP3   OH274724   5.149   4.003   6.249 -0.0042  0.0581  0.3173
17770TIP3    H174725   5.105   4.073   6.200  0.7313  1.1302  1.1475
17770TIP3    H274726   5.087   3.980   6.319 -0.3268 -0.2583 -0.0697
17771TIP3   OH274727   6.663   1.563  11.552  0.2394  0.3959 -0.0938
17771TIP3    H174728   6.735   1.535  11.608  1.4444 -0.9058 -2.1853
17771TIP3    H274729   6.601   1.489  11.555  0.0628  0.5458 -0.0569
17772TIP3   OH274730   0.061   6.410   1.979 -0.3296  0.4697  0.2405
17772TIP3    H174731   0.146   6.367   1.991 -0.7270 -0.9265 -1.8589
17772TIP3    H274732   0.073   6.466   1.903 -1.4073 -0.0159 -0.2908
17773TIP3   OH274733   2.694   4.022   0.226  0.5485 -0.2628  0.2299
17773TIP3    H174734   2.655   4.057   0.145  2.7068  2.2627  0.2106
17773TIP3    H274735   2.650   3.939   0.240 -0.2442 -0.5031 -3.2930
17774TIP3   OH274736   5.536   2.859   2.227 -0.1404 -0.3053 -0.5523
17774TIP3    H174737   5.602   2.898   2.168  0.6195 -0.9957 -0.1614
17774TIP3    H274738   5.550   2.903   2.311  0.1483 -0.8008 -0.3391
17775TIP3   OH274739   6.659   5.599   0.623  0.0988 -0.8768  0.2274
17775TIP3    H174740   6.609   5.525   0.656 -2.4401  1.0700  0.9165
17775TIP3    H274741   6.680   5.650   0.700  1.5591 -0.7161 -0.2702
17776TIP3   OH274742   4.983   3.959  11.611  0.1009 -0.6507  0.1509
17776TIP3    H174743   4.978   3.996  11.699 -0.5696 -1.0504  0.2820
17776TIP3    H274744   4.932   3.878  11.617 -1.1240  0.0244 -0.9661
17777TIP3   OH274745   2.745   1.528  10.471  0.1959  0.1200  0.0858
17777TIP3    H174746   2.758   1.434  10.482 -1.6661 -0.3144 -1.0722
17777TIP3    H274747   2.650   1.537  10.458  0.4910  2.0165 -0.9254
17778TIP3   OH274748   0.300   4.497  14.480 -0.1390 -0.0416  0.3000
17778TIP3    H174749   0.257   4.545  14.551  0.0258 -0.4703  0.6980
17778TIP3    H274750   0.347   4.426  14.525 -0.5897 -0.7228 -0.2999
17779TIP3   OH274751   1.890   1.781  12.345  0.1945  0.2784  0.1788
17779TIP3    H174752   1.941   1.817  12.272 -0.7503 -0.8132 -1.0560
17779TIP3    H274753   1.823   1.846  12.362 -0.5281 -0.1503 -0.9769
17780TIP3   OH274754   1.196   3.898  16.916  0.4577  0.3585 -0.1311
17780TIP3    H174755   1.205   3.971  16.978 -0.1967  0.9412 -0.7118
17780TIP3    H274756   1.209   3.939  16.830 -2.3135  0.2567 -0.6381
17781TIP3   OH274757   6.342   3.938   6.259 -1.3329  0.0982  0.0557
17781TIP3    H174758   6.249   3.933   6.238 -0.8291 -1.3024 -1.9686
17781TIP3    H274759   6.376   4.006   6.201 -1.3254  1.6473  1.8139
17782TIP3   OH274760   5.746   3.122   6.948  0.4399  0.4812 -0.0185
17782TIP3    H174761   5.818   3.184   6.939  1.0944 -0.1211  0.8877
17782TIP3    H274762   5.786   3.046   6.990 -0.9218  0.4826  1.3135
17783TIP3   OH274763   2.323   4.016   4.681  0.0727 -0.2198 -0.4436
17783TIP3    H174764   2.393   4.071   4.645  0.6575 -0.7987 -0.1871
17783TIP3    H274765   2.367   3.936   4.709 -0.9245 -1.2116 -1.6838
17784TIP3   OH274766   1.769   3.202  17.166 -0.6118 -0.5885 -0.1510
17784TIP3    H174767   1.794   3.136  17.101 -0.3993 -0.4121 -0.2470
17784TIP3    H274768   1.707   3.259  17.121 -0.4761 -0.4751 -0.1960
17785TIP3   OH274769   0.004   2.873   4.020  0.5424 -0.0768 -0.5120
17785TIP3    H174770   0.001   2.945   3.957  0.1743 -0.3974 -0.8665
17785TIP3    H274771   0.085   2.887   4.068  0.4797  0.5668 -0.5871
17786TIP3   OH274772   2.439   5.574  15.555 -0.4203  0.0226 -0.0451
17786TIP3    H174773   2.517   5.577  15.500  1.3863 -1.4776  2.3449
17786TIP3    H274774   2.425   5.481  15.573 -0.4415  0.4964  2.6734
17787TIP3   OH274775   4.464   2.761  14.929  0.2814 -0.4492 -0.0354
17787TIP3    H174776   4.504   2.754  14.842  0.6022 -0.4157  0.1102
17787TIP3    H274777   4.472   2.854  14.951 -0.5470 -0.2958 -0.3248
17788TIP3   OH274778   1.724   5.453   0.147  0.7346 -0.0880 -0.1346
17788TIP3    H174779   1.766   5.460   0.233  0.3631  0.5015 -0.0008
17788TIP3    H274780   1.794   5.475   0.085  1.2626 -1.4500 -0.0397
17789TIP3   OH274781   3.138   1.110  16.205 -0.3539 -0.5673 -0.2610
17789TIP3    H174782   3.104   1.150  16.126 -0.2529 -1.8919 -1.0014
17789TIP3    H274783   3.234   1.117  16.197 -0.3686  0.0685  0.1521
17790TIP3   OH274784   2.948   4.075   2.192  0.3084  1.0397 -0.0122
17790TIP3    H174785   2.905   4.003   2.239  0.4436  2.0395  1.6935
17790TIP3    H274786   2.880   4.141   2.182  0.7688  1.5787  0.4060
17791TIP3   OH274787   4.489   3.017   4.627  0.6595 -0.6462  0.5466
17791TIP3    H174788   4.438   2.939   4.648 -1.1936  0.0889 -1.0722
17791TIP3    H274789   4.465   3.037   4.536  1.4506  1.5278  0.8031
17792TIP3   OH274790   3.377   5.508  13.597 -1.0693 -0.0038 -0.2090
17792TIP3    H174791   3.377   5.566  13.520 -0.3383  0.9161  0.4680
17792TIP3    H274792   3.298   5.532  13.645  0.1584  1.7620  1.0216
17793TIP3   OH274793   4.010   0.633   0.882 -0.5236 -0.7190  0.0652
17793TIP3    H174794   4.073   0.581   0.832  2.5051  0.8926  2.0377
17793TIP3    H274795   4.017   0.599   0.971 -2.1539 -0.2238  0.3939
17794TIP3   OH274796   6.332   0.613   3.157 -0.2725  0.0733 -0.4480
17794TIP3    H174797   6.293   0.700   3.148 -0.1510  0.1488 -0.2622
17794TIP3    H274798   6.427   0.629   3.152 -0.2403 -0.0183 -0.1846
17795TIP3   OH274799   1.930   2.040   4.536  0.5756 -0.4380  0.1680
17795TIP3    H174800   1.859   2.056   4.599  0.3611  0.3788 -0.2692
17795TIP3    H274801   1.953   1.948   4.548  0.6076 -0.2658  1.5182
17796TIP3   OH274802   5.552   4.436  14.236  0.2154 -0.5143 -0.0312
17796TIP3    H174803   5.477   4.390  14.274 -1.8176  1.5266 -1.3893
17796TIP3    H274804   5.591   4.372  14.175 -0.8816 -1.3447  0.1209
17797TIP3   OH274805   5.876   2.302   0.872 -0.2884  0.2696  0.1450
17797TIP3    H174806   5.902   2.378   0.923  2.1043 -1.2929  1.3485
17797TIP3    H274807   5.804   2.263   0.922  0.0965  0.3771  0.7747
17798TIP3   OH274808   0.168   4.791  17.235 -1.1714  0.0270 -0.0048
17798TIP3    H174809   0.082   4.820  17.205 -1.0956  0.5533  0.2824
17798TIP3    H274810   0.166   4.803  17.330 -0.3916  1.0910 -0.1126
17799TIP3   OH274811   2.834   6.611   1.874 -0.4616  0.1182  0.0929
17799TIP3    H174812   2.846   6.607   1.969  2.2180 -0.6619 -0.2449
17799TIP3    H274813   2.918   6.584   1.838 -1.3262  0.7892 -2.5237
17800TIP3   OH274814   1.245   5.992   3.258 -0.1093 -0.3733 -0.4281
17800TIP3    H174815   1.277   5.983   3.169  0.4891 -0.6005 -0.1931
17800TIP3    H274816   1.224   6.085   3.267 -1.6152 -0.6245 -1.2818
17801TIP3   OH274817   3.895   4.455  12.374  0.2097  0.3534  0.3009
17801TIP3    H174818   3.961   4.511  12.415  1.0779 -0.7071  0.3725
17801TIP3    H274819   3.882   4.383  12.436  2.0905 -1.6804 -1.5586
17802TIP3   OH274820   1.949   2.556   3.107  0.0251 -0.1727 -0.5133
17802TIP3    H174821   1.859   2.562   3.074  0.1769 -3.1231 -1.6025
17802TIP3    H274822   2.002   2.597   3.039 -0.5027  1.7869  0.2399
17803TIP3   OH274823   4.624   3.853  14.719 -0.3749 -0.1351  0.7665
17803TIP3    H174824   4.712   3.881  14.694 -0.5889 -1.2039 -1.3156
17803TIP3    H274825   4.617   3.763  14.687 -3.2319  0.9134 -1.7912
17804TIP3   OH274826   1.447   0.021  16.896 -0.5740 -0.4692 -0.5672
17804TIP3    H174827   1.526   0.073  16.878 -0.4890 -0.1848  0.5925
17804TIP3    H274828   1.475  -0.044  16.960 -1.3886 -0.0760  0.2038
17805TIP3   OH274829   2.479   4.524   1.094 -0.6702 -0.6723  0.0605
17805TIP3    H174830   2.529   4.574   1.030 -1.0050 -2.7173 -1.8318
17805TIP3    H274831   2.544   4.494   1.157  0.0997 -1.1494 -0.9605
17806TIP3   OH274832   1.590   5.963  12.305  0.2558 -0.0155 -0.6305
17806TIP3    H174833   1.533   5.917  12.366  0.0868  0.1795 -0.6378
17806TIP3    H274834   1.614   6.043  12.351  2.0657 -0.9831  0.1229
17807TIP3   OH274835   4.224   0.229   2.769 -0.3992  0.2249  0.1655
17807TIP3    H174836   4.177   0.208   2.688  0.2072 -1.3822  0.2077
17807TIP3    H274837   4.172   0.298   2.809 -0.5882  1.1955 -1.7049
17808TIP3   OH274838   2.099   2.027   3.696  0.3176  0.2279 -0.1998
17808TIP3    H174839   2.084   1.998   3.786  1.2955  1.7600  0.4805
17808TIP3    H274840   2.055   2.112   3.690 -0.0723 -0.0452 -1.2910
17809TIP3   OH274841   1.190   2.043  13.541  0.2345  0.4594  0.2438
17809TIP3    H174842   1.144   1.975  13.588  0.1252 -1.3326 -2.3276
17809TIP3    H274843   1.282   2.017  13.545  0.4197  1.2214  0.9456
17810TIP3   OH274844   0.871   0.710   6.713  0.7757  0.4624 -0.3783
17810TIP3    H174845   0.792   0.701   6.765  0.5327  0.0184 -0.8210
17810TIP3    H274846   0.899   0.620   6.694 -0.3291  0.5854 -2.7907
17811TIP3   OH274847   5.417   4.112  15.543 -0.6006  0.1185 -0.5289
17811TIP3    H174848   5.377   4.025  15.534  1.4243 -0.7265 -1.7154
17811TIP3    H274849   5.476   4.119  15.468 -0.2961  2.2985 -0.1177
17812TIP3   OH274850   3.868   1.116   2.985  0.1356 -1.0282 -0.0591
17812TIP3    H174851   3.822   1.100   2.903 -1.6958  0.2401  0.7044
17812TIP3    H274852   3.883   1.211   2.986  0.4324 -1.0803  0.9273
17813TIP3   OH274853   0.565   0.440   0.404  0.3499  0.5965  0.4692
17813TIP3    H174854   0.549   0.374   0.336 -1.2141  2.2572 -0.8243
17813TIP3    H274855   0.659   0.456   0.401  0.7044 -1.3746  0.6204
17814TIP3   OH274856   2.511   3.850  16.286 -0.0407 -0.0334  0.0075
17814TIP3    H174857   2.500   3.919  16.220 -0.8222  1.2231  1.4147
17814TIP3    H274858   2.433   3.796  16.278 -0.1342  0.1161 -0.0890
17815TIP3   OH274859   5.575   4.605  10.748  0.2498  0.0654  0.2645
17815TIP3    H174860   5.591   4.629  10.657  2.2739  2.4802  1.2015
17815TIP3    H274861   5.617   4.519  10.757  1.7985  0.6903 -0.6065
17816TIP3   OH274862   6.663   6.224   0.102  0.4656  0.1088  0.6999
17816TIP3    H174863   6.614   6.275   0.167 -0.8016 -1.4504  0.9780
17816TIP3    H274864   6.721   6.168   0.153  1.4174  0.8145  0.4068
17817TIP3   OH274865   3.743   0.890   5.831  0.1354 -1.0933  0.0809
17817TIP3    H174866   3.673   0.901   5.896 -0.4708 -1.3154 -0.5285
17817TIP3    H274867   3.822   0.873   5.883  0.0602  0.7752  0.8401
17818TIP3   OH274868   0.194   1.278  11.540  0.1902 -0.4727 -0.4999
17818TIP3    H174869   0.185   1.191  11.580 -1.1999 -0.8851 -1.6532
17818TIP3    H274870   0.288   1.294  11.538  0.5223 -2.3984 -1.1695
17819TIP3   OH274871   2.382   5.210  12.605 -0.7041 -0.3592  0.1393
17819TIP3    H174872   2.288   5.229  12.597 -0.9845 -1.9406 -0.6904
17819TIP3    H274873   2.396   5.137  12.545  0.5148 -1.8991  2.2070
17820TIP3   OH274874   4.856   6.408  12.475  0.2143 -0.4230  0.2643
17820TIP3    H174875   4.778   6.371  12.516  1.8321 -2.5824  1.5042
17820TIP3    H274876   4.901   6.454  12.546 -0.0609  1.0765 -0.5155
17821TIP3   OH274877   2.111   5.264  11.742  0.1116  0.4331  0.5574
17821TIP3    H174878   2.020   5.234  11.737 -0.2281  1.2879  1.4873
17821TIP3    H274879   2.145   5.220  11.820  0.4278  0.2967  0.3416
17822TIP3   OH274880   0.186   1.344   4.804  0.0556  0.0828  0.5610
17822TIP3    H174881   0.157   1.258   4.835  0.3838 -0.5412 -0.8180
17822TIP3    H274882   0.138   1.357   4.723  0.9838  0.6288  0.0968
17823TIP3   OH274883   1.581   6.644  17.047 -0.1765 -0.1587  0.2516
17823TIP3    H174884   1.643   6.591  16.997  0.8403  0.4179  0.8854
17823TIP3    H274885   1.549   6.585  17.116 -0.2480 -0.4193 -0.0048
17824TIP3   OH274886   2.648   0.670  15.251 -0.0736  0.4755 -0.6530
17824TIP3    H174887   2.719   0.647  15.191  2.1387 -0.4800  2.2074
17824TIP3    H274888   2.618   0.756  15.220  0.9336 -0.0307 -3.1482
17825TIP3   OH274889   2.116   0.390  16.101 -0.4849 -0.2649 -0.5049
17825TIP3    H174890   2.106   0.396  16.006 -0.6558  0.9181 -0.4140
17825TIP3    H274891   2.030   0.361  16.132 -1.2041  1.8617 -0.4798
17826TIP3   OH274892   1.544   3.093  12.905  0.4810  0.5016  0.4259
17826TIP3    H174893   1.526   2.999  12.915  2.5456  0.2569  2.2135
17826TIP3    H274894   1.633   3.098  12.872 -0.1525  1.8456 -1.1867
17827TIP3   OH274895   3.534   3.620  11.605 -0.0187  0.4844 -0.0614
17827TIP3    H174896   3.609   3.616  11.664 -0.7489 -1.0599  0.7813
17827TIP3    H274897   3.564   3.674  11.531  1.4089  1.1188  0.9710
17828TIP3   OH274898   1.676   4.450  11.368 -0.5239  0.1479  0.0855
17828TIP3    H174899   1.733   4.526  11.372 -0.8133  0.3010  1.7123
17828TIP3    H274900   1.659   4.437  11.275  2.0660  0.1510 -0.4109
17829TIP3   OH274901   4.669   1.729   4.260 -0.3738  0.2968 -0.3220
17829TIP3    H174902   4.602   1.749   4.194 -0.9216  0.7754  0.3718
17829TIP3    H274903   4.679   1.811   4.308 -0.8086 -0.3800  0.9250
17830TIP3   OH274904   5.228   6.715  15.473  0.1990 -0.0064  0.5439
17830TIP3    H174905   5.295   6.652  15.503  0.0875  0.7504  2.4480
17830TIP3    H274906   5.152   6.697  15.528  0.6482  2.7667  2.1376
17831TIP3   OH274907   3.652   4.030   6.346  0.0152 -0.0457 -0.6028
17831TIP3    H174908   3.615   4.100   6.401 -1.3732 -1.4817  0.3412
17831TIP3    H274909   3.746   4.044   6.350 -0.2283  1.5418 -0.0963
17832TIP3   OH274910   6.634   0.997  15.801 -0.4504 -0.3607  0.4754
17832TIP3    H174911   6.559   0.940  15.818 -0.0874 -0.5781  1.3742
17832TIP3    H274912   6.600   1.086  15.809 -0.9827 -0.4506 -0.7693
17833TIP3   OH274913   4.354   2.969   4.390  0.2894  0.2212 -0.1210
17833TIP3    H174914   4.330   2.971   4.297 -1.0671 -0.4803  0.1904
17833TIP3    H274915   4.269   2.968   4.436  0.9463  0.2441  1.1103
17834TIP3   OH274916   1.115   2.429   3.787  0.3184 -0.0330 -0.1384
17834TIP3    H174917   1.199   2.456   3.751  0.0045  0.4116 -0.5511
17834TIP3    H274918   1.064   2.510   3.792 -1.4211 -0.8109 -3.4752
17835TIP3   OH274919   0.477   6.700   2.873 -0.3675  0.1981  0.3535
17835TIP3    H174920   0.566   6.667   2.860 -0.8216 -0.8291 -0.2815
17835TIP3    H274921   0.454   6.675   2.962  0.0601  0.6782  0.6023
17836TIP3   OH274922   0.536   2.615   1.427 -0.1705 -0.0717 -0.2258
17836TIP3    H174923   0.463   2.636   1.486  0.7117 -0.3124  0.9730
17836TIP3    H274924   0.494   2.592   1.344 -1.6257 -2.5057  1.1131
17837TIP3   OH274925   5.430   0.382   3.170 -0.4069  0.3824 -0.7157
17837TIP3    H174926   5.339   0.355   3.184 -0.3926  1.4737  1.7127
17837TIP3    H274927   5.472   0.305   3.132 -1.8209 -0.8616  0.1828
17838TIP3   OH274928   3.602   2.129  11.545  0.1166  0.0708 -0.7348
17838TIP3    H174929   3.525   2.072  11.547 -0.0051  0.2698  0.7892
17838TIP3    H274930   3.652   2.100  11.468 -1.2043 -0.4095 -1.4321
17839TIP3   OH274931   0.606   2.527   5.398  0.1124  0.1518 -0.2452
17839TIP3    H174932   0.550   2.545   5.322  0.8104 -0.2188 -0.8552
17839TIP3    H274933   0.553   2.554   5.473 -0.8871 -0.1795 -0.8082
17840TIP3   OH274934   4.586   1.271   1.843 -0.3938 -0.6485 -0.7013
17840TIP3    H174935   4.534   1.352   1.845 -0.1324 -0.4655 -1.1844
17840TIP3    H274936   4.612   1.257   1.934 -0.5120 -0.2313 -0.6029
17841TIP3   OH274937   2.214   1.486   1.034 -0.2269  0.0094 -0.1140
17841TIP3    H174938   2.229   1.574   1.069  2.1893 -0.4879  0.1949
17841TIP3    H274939   2.185   1.500   0.944  2.0104  1.1007 -0.6942
17842TIP3   OH274940   3.424   1.897   6.215 -0.0662  0.2391  0.3716
17842TIP3    H174941   3.512   1.917   6.246 -0.0331  0.4999  0.1195
17842TIP3    H274942   3.384   1.846   6.285  0.7051 -0.9428 -0.0381
17843TIP3   OH274943   0.239   2.814   2.360 -0.1011 -0.0246  0.1680
17843TIP3    H174944   0.143   2.818   2.360 -0.1520 -1.2642  0.5053
17843TIP3    H274945   0.260   2.742   2.419  0.9822 -1.5626 -2.0764
17844TIP3   OH274946   6.148   3.744  15.951  0.4630  0.5768  0.2887
17844TIP3    H174947   6.168   3.751  15.858 -0.3991 -0.0529  0.0524
17844TIP3    H274948   6.083   3.812  15.966  0.0188  0.1576  0.2641
17845TIP3   OH274949   4.884   5.104  17.172 -0.4232  0.1313 -0.6821
17845TIP3    H174950   4.803   5.154  17.166 -0.6260 -0.1956 -0.6545
17845TIP3    H274951   4.914   5.098  17.081 -1.4224 -1.3783 -0.9305
17846TIP3   OH274952   3.573   3.783   6.317 -0.1541 -0.0645 -0.4217
17846TIP3    H174953   3.597   3.876   6.322  1.4577 -0.5061  0.5978
17846TIP3    H274954   3.587   3.750   6.406 -2.2149 -0.9490 -0.3854
17847TIP3   OH274955   4.319   5.105   2.679  0.4813  0.0823  0.2300
17847TIP3    H174956   4.292   5.037   2.617 -0.7430  2.3858 -1.8226
17847TIP3    H274957   4.414   5.095   2.685  0.1976 -2.6444  1.0047
17848TIP3   OH274958   2.777   3.188   4.843  0.4340  0.0995  0.6704
17848TIP3    H174959   2.860   3.154   4.810  0.3992 -1.0086  1.6931
17848TIP3    H274960   2.790   3.282   4.849  1.4443 -0.0157  0.3273
17849TIP3   OH274961   3.690   3.402  12.856 -0.4063  0.1045 -0.0299
17849TIP3    H174962   3.680   3.436  12.767  1.0171 -0.6397 -0.4863
17849TIP3    H274963   3.643   3.465  12.911 -0.9680  0.7758 -1.2624
17850TIP3   OH274964   6.572   2.047   0.223 -0.2286 -0.8428  0.4071
17850TIP3    H174965   6.606   2.069   0.136  1.0739 -0.7045  0.9375
17850TIP3    H274966   6.563   2.131   0.268 -3.5074 -0.6658 -0.5049
17851TIP3   OH274967   1.035   4.328   1.772  0.3323  0.4345  0.1621
17851TIP3    H174968   1.108   4.308   1.713 -0.9411 -0.7868 -1.0448
17851TIP3    H274969   1.021   4.422   1.764  1.2112  0.5267 -0.2601
17852TIP3   OH274970   5.358   5.174   3.197  0.2245  0.3649  0.6453
17852TIP3    H174971   5.267   5.204   3.191 -0.8935 -3.0565 -1.4956
17852TIP3    H274972   5.402   5.214   3.122  0.3036  1.4647  1.2773
17853TIP3   OH274973   2.508   3.658   3.070 -0.1301 -0.2318  0.3307
17853TIP3    H174974   2.498   3.731   3.131  0.4444 -0.8286  1.1476
17853TIP3    H274975   2.420   3.621   3.062 -0.4242  0.5513 -0.0940
17854TIP3   OH274976   4.433   4.219   2.457  0.1575  0.1068 -0.1226
17854TIP3    H174977   4.468   4.261   2.536  4.1022  0.2424 -1.8643
17854TIP3    H274978   4.454   4.126   2.468 -1.0333 -0.1773 -0.1553
17855TIP3   OH274979   4.975   6.155   2.619  0.5061 -0.1231  0.0205
17855TIP3    H174980   5.019   6.200   2.547 -1.8758  0.6135 -1.0354
17855TIP3    H274981   4.925   6.224   2.664 -0.6620 -1.1311  0.3101
17856TIP3   OH274982   2.684   0.649  11.850 -0.0384  0.0710  0.1431
17856TIP3    H174983   2.722   0.648  11.762  0.5396  4.0210  0.2223
17856TIP3    H274984   2.736   0.585  11.900  1.5853 -0.0611 -1.6536
17857TIP3   OH274985   1.376   2.883   5.492  0.0775  0.4263 -0.2260
17857TIP3    H174986   1.470   2.885   5.475  0.2612  0.8103  0.8275
17857TIP3    H274987   1.367   2.834   5.574 -0.5322  1.6065  0.4171
17858TIP3   OH274988   4.710   4.675   0.360  0.1216  0.2261 -0.4941
17858TIP3    H174989   4.686   4.583   0.366 -0.8865  0.3742 -2.0481
17858TIP3    H274990   4.629   4.723   0.375  0.1836  0.8017 -1.8710
17859TIP3   OH274991   0.401   0.831   1.392  0.1840 -0.4971  0.6462
17859TIP3    H174992   0.337   0.843   1.462 -1.4829 -0.0941 -0.9397
17859TIP3    H274993   0.391   0.740   1.365 -2.5301  0.6044 -2.2845
17860TIP3   OH274994   6.782   2.556   6.279  0.4589 -0.7133 -0.5429
17860TIP3    H174995   6.877   2.572   6.272  0.5829 -0.6412  0.9799
17860TIP3    H274996   6.775   2.492   6.350 -0.7157  0.1749  0.1425
17861TIP3   OH274997   1.088   5.701  13.662 -0.0791  0.6343 -0.0890
17861TIP3    H174998   0.995   5.700  13.683  0.0017 -0.4889  0.2303
17861TIP3    H274999   1.111   5.609  13.649  1.2688  0.7892  1.1383
17862TIP3   OH275000   0.009   6.743   0.460  0.6414  0.1267 -0.1067
17862TIP3    H175001   0.058   6.814   0.418  0.3430  1.0928  1.1709
17862TIP3    H275002   0.075   6.695   0.511  1.0035 -1.0478 -1.6205
17863TIP3   OH275003   3.524   2.700  12.217  0.1287 -0.0223 -0.1720
17863TIP3    H175004   3.577   2.773  12.248  0.8685 -0.5418 -0.1896
17863TIP3    H275005   3.437   2.716  12.252  0.2714  0.8960 -0.2223
17864TIP3   OH275006   3.842   2.263   0.877  0.0039 -0.1890 -0.3835
17864TIP3    H175007   3.838   2.234   0.968  1.1077 -1.1006 -0.6223
17864TIP3    H275008   3.790   2.344   0.876 -0.5961 -0.5371  0.9018
17865TIP3   OH275009   4.718   5.575   0.884  0.3250  0.4774 -0.0760
17865TIP3    H175010   4.629   5.542   0.880 -0.0855  1.1116  2.6852
17865TIP3    H275011   4.711   5.658   0.932  2.3294  0.7420 -0.1797
17866TIP3   OH275012   1.662   3.875  16.422 -0.0389  0.1490  0.5045
17866TIP3    H175013   1.705   3.960  16.425 -0.6328  0.4480  0.6563
17866TIP3    H275014   1.724   3.815  16.463  0.3274  0.5333  0.5133
17867TIP3   OH275015   0.894   0.258  11.819 -0.6187  0.0278  0.2066
17867TIP3    H175016   0.842   0.337  11.833 -3.8727 -1.6338 -1.8350
17867TIP3    H275017   0.913   0.258  11.725  1.6799 -0.3002  0.6306
17868TIP3   OH275018   5.242   2.563   2.406  0.3083  1.1386  0.0608
17868TIP3    H175019   5.237   2.517   2.322 -0.1462 -0.0148  0.6981
17868TIP3    H275020   5.330   2.544   2.439  0.1382  0.7601  0.3008
17869TIP3   OH275021   0.816   0.908   4.448  0.0672 -0.0267  0.4113
17869TIP3    H175022   0.724   0.899   4.473  0.0025  0.4992  0.3678
17869TIP3    H275023   0.815   0.962   4.369  0.1351 -3.1950 -1.8488
17870TIP3   OH275024   6.273   4.907   3.548 -0.2513  0.6112 -0.5406
17870TIP3    H175025   6.366   4.916   3.529 -0.3454  1.8578 -0.4718
17870TIP3    H275026   6.244   4.996   3.567 -1.2939  0.1187  0.2148
17871TIP3   OH275027   4.924   3.456  15.138  0.3350  0.3558  0.4383
17871TIP3    H175028   4.911   3.403  15.217  0.4196  0.5428  0.5761
17871TIP3    H275029   4.956   3.393  15.073  1.0357  0.3559  0.7800
17872TIP3   OH275030   4.453   3.355   1.386  0.0174  0.1070  0.1290
17872TIP3    H175031   4.478   3.322   1.300 -0.9094  1.8330 -0.8447
17872TIP3    H275032   4.358   3.364   1.381 -0.0210  0.4246  1.2598
17873TIP3   OH275033   3.912   6.355  17.175  0.1575  0.0725  0.0493
17873TIP3    H175034   3.901   6.425  17.240  2.4445  0.8857 -0.3949
17873TIP3    H275035   3.844   6.372  17.110 -0.4287  0.8511  0.8547
17874TIP3   OH275036   2.144   1.322  12.030  0.0832 -0.7789  0.2086
17874TIP3    H175037   2.106   1.380  12.095 -0.0188 -1.0096  0.3546
17874TIP3    H275038   2.128   1.365  11.946  0.0624 -0.5675  0.3222
17875TIP3   OH275039   4.577   6.288   4.182 -0.1591 -0.3860 -0.2249
17875TIP3    H175040   4.521   6.281   4.259  0.4487  1.6843  0.4456
17875TIP3    H275041   4.523   6.332   4.117 -0.1682 -0.7206 -0.4403
17876TIP3   OH275042   4.557   1.688  15.674  0.6727  0.3530  0.6359
17876TIP3    H175043   4.652   1.697  15.665  1.0057 -2.0412  1.3262
17876TIP3    H275044   4.537   1.603  15.634 -0.8738 -0.0638  2.1967
17877TIP3   OH275045   5.922   6.486  16.768  0.1847  0.1255  0.3968
17877TIP3    H175046   5.861   6.463  16.698  2.0865  0.8587 -1.5555
17877TIP3    H275047   5.957   6.403  16.797  1.0435 -0.0501 -1.0889
17878TIP3   OH275048   6.400   3.236  12.383  0.1413  0.5633  0.7184
17878TIP3    H175049   6.480   3.227  12.434  0.7788  0.7441 -0.2352
17878TIP3    H275050   6.383   3.149  12.348  1.5883  1.1359 -1.5171
17879TIP3   OH275051   0.016   2.438  15.517 -0.5728  0.5921  0.0846
17879TIP3    H175052   0.084   2.448  15.451  0.7732  0.2532  1.4010
17879TIP3    H275053   0.042   2.498  15.587  0.2291 -2.0074  2.0804
17880TIP3   OH275054   5.873   5.185   5.109 -0.4239  0.4623  0.3045
17880TIP3    H175055   5.817   5.147   5.042 -0.4408 -0.8492  1.0491
17880TIP3    H275056   5.816   5.197   5.185 -0.2070  1.1575  0.3630
17881TIP3   OH275057   6.678   1.486   5.933  0.2118  0.6304 -0.3778
17881TIP3    H175058   6.661   1.483   6.027 -1.0068 -1.1942 -0.6344
17881TIP3    H275059   6.733   1.564   5.921  2.1063 -0.2525  2.1002
17882TIP3   OH275060   2.462   2.990   4.313  0.1283 -0.2342  0.1174
17882TIP3    H175061   2.402   2.916   4.320 -0.8714  0.6662  1.1869
17882TIP3    H275062   2.539   2.963   4.362  0.8207 -1.5917 -1.6698
17883TIP3   OH275063   4.618   4.743  15.887 -0.2600  0.4163  0.2575
17883TIP3    H175064   4.568   4.790  15.820 -2.2086 -0.7162  0.8601
17883TIP3    H275065   4.551   4.702  15.942  1.3488 -0.8632  1.3147
17884TIP3   OH275066   0.433   4.861   1.484 -0.3794  0.2968 -0.8412
17884TIP3    H175067   0.484   4.799   1.432  0.8106 -1.1169  1.9063
17884TIP3    H275068   0.443   4.944   1.439  2.9597 -0.2945 -1.3185
17885TIP3   OH275069   3.356   3.548  16.869  0.0285  0.5666  0.0193
17885TIP3    H175070   3.393   3.623  16.823 -0.5657  1.1870  0.5483
17885TIP3    H275071   3.323   3.492  16.799  0.7078  0.6658 -0.3909
17886TIP3   OH275072   2.821   3.810  12.079 -0.2581  0.5859  0.4743
17886TIP3    H175073   2.828   3.777  12.168  0.2946 -0.1915  0.1519
17886TIP3    H275074   2.840   3.734  12.023 -1.8002  0.7723 -0.3274
17887TIP3   OH275075   4.123   1.520  13.675  0.2800 -1.0066 -0.1674
17887TIP3    H175076   4.176   1.585  13.630  0.1964 -0.7229  0.1355
17887TIP3    H275077   4.141   1.534  13.768 -2.2629  0.8265  0.1127
17888TIP3   OH275078   0.076   5.189  12.075  0.3955 -0.0326  0.0456
17888TIP3    H175079   0.094   5.200  11.982  0.5392 -1.0107 -0.0410
17888TIP3    H275080   0.124   5.111  12.101 -0.6024 -0.4554  0.6748
17889TIP3   OH275081   2.935   2.312  15.264 -0.0444  0.2955 -0.1599
17889TIP3    H175082   2.971   2.372  15.198  1.1946  0.3220  0.5276
17889TIP3    H275083   3.006   2.301  15.328 -0.8519 -0.5863  0.6000
17890TIP3   OH275084   4.219   6.616  11.795 -0.0947  0.0152 -0.4406
17890TIP3    H175085   4.148   6.566  11.836 -0.4899 -1.2475 -2.5660
17890TIP3    H275086   4.299   6.573  11.824 -0.2305  0.8052  1.1430
17891TIP3   OH275087   0.300   6.175   0.624 -0.1581 -0.2424  0.6175
17891TIP3    H175088   0.340   6.161   0.538  0.4898  1.0236  0.7079
17891TIP3    H275089   0.215   6.131   0.618  0.2574 -0.9306 -0.3609
17892TIP3   OH275090   2.234   2.504   4.680 -0.2951  0.1545 -0.1433
17892TIP3    H175091   2.240   2.413   4.651 -0.4183 -0.7600  2.5783
17892TIP3    H275092   2.158   2.539   4.633  0.6794 -0.6470 -2.3994
17893TIP3   OH275093   4.830   4.497   2.120 -0.1569  0.2466 -0.2238
17893TIP3    H175094   4.744   4.536   2.133 -0.6032 -0.6227 -0.5460
17893TIP3    H275095   4.865   4.487   2.208 -0.0509  1.3424 -0.1380
17894TIP3   OH275096   3.262   2.042   4.938 -0.0590  0.2130  0.4627
17894TIP3    H175097   3.246   1.965   4.993  0.9356 -1.6272 -1.7373
17894TIP3    H275098   3.281   2.006   4.852  1.3266  2.9018 -0.4041
17895TIP3   OH275099   2.550   3.315   4.272 -0.2101  0.3270 -0.0276
17895TIP3    H175100   2.608   3.254   4.227 -0.9525  0.3215 -0.9983
17895TIP3    H275101   2.489   3.345   4.204 -0.3245  1.5751  0.6004
17896TIP3   OH275102   4.791   2.754  15.702 -0.2711 -0.8942  0.1663
17896TIP3    H175103   4.845   2.833  15.698 -1.1780 -0.3128 -1.0699
17896TIP3    H275104   4.704   2.786  15.727 -0.4119 -1.6217  0.6065
17897TIP3   OH275105   0.442   6.730   1.253  0.1230  0.0954 -0.0963
17897TIP3    H175106   0.361   6.767   1.289  0.7257  0.5910  0.7790
17897TIP3    H275107   0.512   6.774   1.303  0.8778 -1.6887  0.4399
17898TIP3   OH275108   3.787   1.635  11.517  0.2647 -0.6934  0.1589
17898TIP3    H175109   3.841   1.641  11.439 -0.0621  0.7092  0.0196
17898TIP3    H275110   3.843   1.667  11.588  0.7418 -2.4759  0.5989
17899TIP3   OH275111   2.162   1.605   1.919  0.2663  0.4091 -0.0849
17899TIP3    H175112   2.246   1.560   1.922  0.1160  0.1595  0.7583
17899TIP3    H275113   2.102   1.541   1.881  0.4719  0.6243 -0.7844
17900TIP3   OH275114   1.523   6.127   5.214 -0.1670  0.5128  0.1026
17900TIP3    H175115   1.492   6.052   5.162  0.0908 -0.4690  1.3288
17900TIP3    H275116   1.616   6.110   5.226 -0.7003 -0.6430  3.0535
17901TIP3   OH275117   3.679   4.449  16.089 -0.5717  0.8078 -0.3128
17901TIP3    H175118   3.744   4.469  16.157  1.2557 -0.7084 -1.5350
17901TIP3    H275119   3.719   4.481  16.008 -1.7183  0.5656 -0.9852
17902TIP3   OH275120   2.425   6.574  12.225 -0.3807  0.6453  0.3321
17902TIP3    H175121   2.373   6.494  12.231 -0.2608  0.6479  1.6991
17902TIP3    H275122   2.384   6.633  12.289 -1.2893  2.1623 -1.5754
17903TIP3   OH275123   1.896   5.405  16.103 -0.2932  1.3549 -0.1344
17903TIP3    H175124   1.980   5.394  16.147  0.2125  1.0481 -1.1717
17903TIP3    H275125   1.835   5.350  16.153  0.2086  1.2559  0.3657
17904TIP3   OH275126   5.274   1.405   6.371  0.2279  0.1975 -0.0637
17904TIP3    H175127   5.285   1.379   6.463 -3.7443 -2.5419 -0.2400
17904TIP3    H275128   5.320   1.337   6.321 -1.7536 -1.0578 -0.2150
17905TIP3   OH275129   4.548   1.668   3.156 -0.1363  0.2693  0.0924
17905TIP3    H175130   4.556   1.732   3.227  1.4818  0.5719 -0.3494
17905TIP3    H275131   4.580   1.586   3.195 -0.6226  0.1023  0.1447
17906TIP3   OH275132   0.147   0.917   5.772 -0.2760 -1.0561 -0.1119
17906TIP3    H175133   0.164   1.009   5.753  0.0958 -1.1931 -0.4468
17906TIP3    H275134   0.198   0.899   5.851 -1.3753 -0.6350  0.7068
17907TIP3   OH275135   5.592   2.798  17.150 -0.2829 -0.0299 -0.4100
17907TIP3    H175136   5.544   2.880  17.135 -1.8992 -1.0479 -0.8863
17907TIP3    H275137   5.557   2.765  17.233  1.6725  0.6555  0.7277
17908TIP3   OH275138   5.384   0.494   0.544  0.3082 -0.3217 -0.0651
17908TIP3    H175139   5.465   0.542   0.527 -0.8014  1.7214  0.2552
17908TIP3    H275140   5.362   0.454   0.460  0.7966  0.4347 -0.5556
17909TIP3   OH275141   4.360   4.762  11.685 -0.3650 -0.5226  0.3546
17909TIP3    H175142   4.434   4.708  11.713 -0.6481 -2.1215 -1.8536
17909TIP3    H275143   4.379   4.849  11.719  0.9342 -1.6149  2.5563
17910TIP3   OH275144   3.380   5.304   4.375 -0.0155 -0.2913  0.1210
17910TIP3    H175145   3.409   5.327   4.287 -0.3724  0.2485  0.1414
17910TIP3    H275146   3.294   5.265   4.363 -1.0766  1.8488  0.4137
17911TIP3   OH275147   1.908   4.050   5.736 -0.6816 -0.0373 -0.3667
17911TIP3    H175148   1.886   4.030   5.827  0.2591 -0.3495 -0.2052
17911TIP3    H275149   1.983   3.995   5.717  1.3205  2.5189 -0.2354
17912TIP3   OH275150   2.744   5.736  15.066  0.7052  0.2813  0.4302
17912TIP3    H175151   2.688   5.723  15.142  1.3117 -0.4926  0.7510
17912TIP3    H275152   2.683   5.741  14.992  0.1987 -0.5635  0.7731
17913TIP3   OH275153   3.604   6.007  15.187  0.8471 -0.4598  0.1349
17913TIP3    H175154   3.625   5.914  15.187 -1.4676 -1.0171  1.0873
17913TIP3    H275155   3.636   6.039  15.272 -0.8273 -1.0099  0.9978
17914TIP3   OH275156   1.374   2.166  14.448 -0.1253 -0.3261  0.3167
17914TIP3    H175157   1.288   2.186  14.410 -0.1391  0.4341  0.7308
17914TIP3    H275158   1.431   2.156  14.373 -0.3079  0.4510  0.0619
17915TIP3   OH275159   6.353   6.220   1.264  0.0563 -0.1049  0.5487
17915TIP3    H175160   6.278   6.165   1.242  1.8753 -3.0252  1.4330
17915TIP3    H275161   6.315   6.307   1.279 -2.7420 -0.7955 -1.9572
17916TIP3   OH275162   1.228   3.363  12.259  0.4770  0.4361  0.0932
17916TIP3    H175163   1.158   3.428  12.258 -0.0731 -0.1222 -2.4256
17916TIP3    H275164   1.199   3.296  12.196  3.0722 -0.0023 -0.6862
17917TIP3   OH275165   6.117   2.534   6.712  0.0976  0.0812  0.2994
17917TIP3    H175166   6.061   2.582   6.651 -0.2412 -1.1125 -0.3431
17917TIP3    H275167   6.167   2.474   6.656  0.2113 -0.6182  1.1440
17918TIP3   OH275168   0.924   5.786   4.090  0.1325  0.0928 -0.1912
17918TIP3    H175169   0.997   5.748   4.140  0.6209  1.3895  0.0825
17918TIP3    H275170   0.948   5.772   3.999  0.2130 -0.4231 -0.0972
17919TIP3   OH275171   5.266   1.903   5.702 -0.8739  0.5644 -0.2235
17919TIP3    H175172   5.288   1.882   5.612 -0.9353  1.2056 -0.3929
17919TIP3    H275173   5.348   1.889   5.750 -1.2105 -1.1610 -0.1243
17920TIP3   OH275174   4.340   5.412  12.518  0.1023  0.2266  0.3308
17920TIP3    H175175   4.336   5.505  12.494  0.0390  0.2381  0.3859
17920TIP3    H275176   4.402   5.408  12.590  1.1035  0.0474 -0.5278
17921TIP3   OH275177   2.748   2.461   0.680 -0.1606 -0.1644  0.3224
17921TIP3    H175178   2.768   2.368   0.690  0.5987 -0.0108  0.3035
17921TIP3    H275179   2.826   2.506   0.714 -0.1135  0.4479 -0.5739
17922TIP3   OH275180   6.524   5.879   1.365 -0.5589 -0.0067  0.5431
17922TIP3    H175181   6.564   5.961   1.395 -0.9206 -0.0768  1.2142
17922TIP3    H275182   6.475   5.905   1.286 -0.3111  0.3376  0.4977
17923TIP3   OH275183   3.474   6.479  11.731 -0.0266  0.1695  0.4493
17923TIP3    H175184   3.494   6.521  11.648  0.3549 -1.2610 -0.2110
17923TIP3    H275185   3.406   6.533  11.770  0.0298  1.0453 -0.6419
17924TIP3   OH275186   1.631   4.516  16.344  0.1187 -0.3162 -0.1865
17924TIP3    H175187   1.625   4.425  16.314  0.0627 -0.8893  1.4765
17924TIP3    H275188   1.700   4.555  16.291  2.2919 -2.2067  1.1686
17925TIP3   OH275189   2.217   0.923   6.217  0.1299 -0.3765  0.2355
17925TIP3    H175190   2.251   1.009   6.242 -0.7768  0.0393  0.0717
17925TIP3    H275191   2.124   0.939   6.200  0.0572 -1.3023 -0.2299
17926TIP3   OH275192   2.396   0.638  15.490 -0.0890  0.2532 -0.3714
17926TIP3    H175193   2.361   0.601  15.409 -1.3403 -0.0731  0.3127
17926TIP3    H275194   2.489   0.614  15.490 -0.2849 -0.5007 -1.2701
17927TIP3   OH275195   6.647   3.390  13.391  0.5380 -0.0409  0.5804
17927TIP3    H175196   6.574   3.332  13.370  0.5751 -0.0535  0.4863
17927TIP3    H275197   6.617   3.477  13.366 -0.6370  0.4302  3.3979
17928TIP3   OH275198   4.211   3.595   2.131 -0.5874 -0.3019 -0.0455
17928TIP3    H175199   4.142   3.636   2.184  0.0706  0.2544  0.3763
17928TIP3    H275200   4.168   3.577   2.047 -1.1974  0.2014  0.1518
17929TIP3   OH275201   2.077   6.374  10.549  0.2706  0.3652 -0.2365
17929TIP3    H175202   2.161   6.396  10.590 -0.3181  1.2344  0.5139
17929TIP3    H275203   2.086   6.404  10.459  1.3057 -0.8886 -0.5631
17930TIP3   OH275204   1.283   0.377  11.218  0.5824 -0.2314  0.0139
17930TIP3    H175205   1.287   0.443  11.149 -0.3342  1.1887  1.3017
17930TIP3    H275206   1.221   0.412  11.282  1.3399 -1.5627  1.5166
17931TIP3   OH275207   2.813   3.078   4.373  0.3216  0.5597  0.3395
17931TIP3    H175208   2.873   3.151   4.358 -0.4098  1.2285  0.6413
17931TIP3    H275209   2.760   3.073   4.293  1.8669 -1.1019 -0.6352
17932TIP3   OH275210   3.504   6.089  12.396  0.2700 -0.0200  0.2670
17932TIP3    H175211   3.415   6.118  12.376  0.6702  0.8799 -0.2660
17932TIP3    H275212   3.497   6.043  12.479 -0.8973 -1.0516 -0.3891
17933TIP3   OH275213   2.725   2.056  15.729  0.2066 -0.0702 -0.7266
17933TIP3    H175214   2.748   1.963  15.726  1.5425  0.2606 -1.0165
17933TIP3    H275215   2.808   2.101  15.715 -0.1612  1.1914  1.0267
17934TIP3   OH275216   0.363   6.661   3.147 -0.2520 -0.4636 -0.4759
17934TIP3    H175217   0.431   6.709   3.194 -1.0479  1.6799 -1.4371
17934TIP3    H275218   0.345   6.585   3.202  1.0404  0.3443  1.1105
17935TIP3   OH275219   5.942   4.434  14.706  0.8103 -0.0352 -0.3651
17935TIP3    H175220   6.030   4.422  14.743 -0.3096  0.7368  2.7130
17935TIP3    H275221   5.941   4.525  14.675  0.8024  0.2638  0.4961
17936TIP3   OH275222   2.064   4.629   4.797  0.1178 -0.7714 -0.3841
17936TIP3    H175223   2.009   4.679   4.857 -0.1113 -1.6321  0.1281
17936TIP3    H275224   2.057   4.676   4.713 -1.1287 -0.6983 -0.2497
17937TIP3   OH275225   3.884   1.871  16.494 -0.2046 -0.8748 -0.1698
17937TIP3    H175226   3.886   1.818  16.414  1.3502  0.3966 -1.0011
17937TIP3    H275227   3.861   1.959  16.465  1.0040 -0.2583  0.6933
17938TIP3   OH275228   1.748   5.144  15.686  0.6935 -0.4622  0.0744
17938TIP3    H175229   1.662   5.176  15.660 -0.7343 -3.0712  1.4288
17938TIP3    H275230   1.789   5.220  15.729 -1.0366  0.7064 -0.2856
17939TIP3   OH275231   1.088   2.939   0.567 -0.1279  0.0131 -0.3794
17939TIP3    H175232   1.034   3.017   0.558  0.0122 -0.0408 -1.8533
17939TIP3    H275233   1.057   2.896   0.647 -1.0347  0.9232 -0.2476
17940TIP3   OH275234   0.407   0.822   0.971  0.8372  0.0494  0.0653
17940TIP3    H175235   0.374   0.902   0.931  0.2180  0.1005  0.6612
17940TIP3    H275236   0.336   0.793   1.028  0.7419 -1.3321 -0.7169
17941TIP3   OH275237   3.131   4.967   3.122 -0.2572 -0.1888 -0.0054
17941TIP3    H175238   3.150   4.878   3.153 -0.8611 -0.3654 -0.1269
17941TIP3    H275239   3.041   4.983   3.150 -0.0356  0.5144  0.3061
17942TIP3   OH275240   3.173   4.072  15.547 -0.0461 -0.2411  0.5674
17942TIP3    H175241   3.094   4.126  15.546 -0.2120 -0.4862  0.4415
17942TIP3    H275242   3.171   4.029  15.632  1.2878  1.7215  1.6040
17943TIP3   OH275243   2.172   0.408  12.288 -0.9997 -0.0418  0.1437
17943TIP3    H175244   2.179   0.493  12.333  0.4756 -0.0969  0.0441
17943TIP3    H275245   2.078   0.390  12.286 -1.2636  1.1375  1.0198
17944TIP3   OH275246   3.504   2.258   1.634 -0.0109 -0.2386  0.2750
17944TIP3    H175247   3.517   2.248   1.729  2.8754 -3.3050 -0.3538
17944TIP3    H275248   3.590   2.283   1.601 -0.3872 -1.6413 -1.8263
17945TIP3   OH275249   0.754   0.645   5.922 -0.6431  0.6700 -0.1740
17945TIP3    H175250   0.723   0.711   5.860 -0.0543  0.3232 -0.8423
17945TIP3    H275251   0.847   0.635   5.902 -0.7928 -0.5768 -0.2683
17946TIP3   OH275252   5.688   2.899  11.983  0.2826 -0.2003  0.1736
17946TIP3    H175253   5.672   2.950  11.903 -2.7399  1.8611  1.9847
17946TIP3    H275254   5.625   2.826  11.977  1.3465 -1.0987 -0.1896
17947TIP3   OH275255   1.811   5.515  13.545  0.1178  0.9092  0.6636
17947TIP3    H175256   1.836   5.606  13.561  0.3669  0.8327  0.7041
17947TIP3    H275257   1.805   5.508  13.450  2.8921  0.2206  0.5178
17948TIP3   OH275258   4.920   2.430   3.006 -0.0862  0.5369 -0.5224
17948TIP3    H175259   4.896   2.344   2.973 -0.6424  0.5910 -0.2634
17948TIP3    H275260   4.863   2.443   3.082  0.9684  0.5331  0.2833
17949TIP3   OH275261   2.775   3.617   0.482 -0.0674  0.4553  0.1016
17949TIP3    H175262   2.825   3.536   0.497  0.5605  0.8353  0.0923
17949TIP3    H275263   2.842   3.685   0.476 -0.5756  0.9287 -0.2252
17950TIP3   OH275264   6.183   2.407  15.666 -0.5931  0.2677  0.3495
17950TIP3    H175265   6.194   2.498  15.694 -1.2457  0.2821  0.5565
17950TIP3    H275266   6.156   2.414  15.574  1.8597  0.2136 -0.4265
17951TIP3   OH275267   3.628   2.629  14.041 -0.0275  0.0482 -0.2999
17951TIP3    H175268   3.700   2.675  14.084 -0.9865  0.2084  1.1458
17951TIP3    H275269   3.672   2.566  13.984  1.2773 -0.0149  0.7398
17952TIP3   OH275270   0.793   5.896  13.755  0.5146  0.4747  0.1864
17952TIP3    H175271   0.719   5.845  13.788 -0.0254  0.4824 -0.9913
17952TIP3    H275272   0.828   5.940  13.833 -0.2908 -0.0562  0.8644
17953TIP3   OH275273   0.040   0.680   4.079  0.2504 -0.1135  0.5449
17953TIP3    H175274   0.003   0.594   4.099  0.6109 -0.9135 -1.9924
17953TIP3    H275275   0.034   0.687   3.984  1.2240  2.2243  0.6190
17954TIP3   OH275276   3.676   3.007   0.057 -0.2448  0.0106  0.2650
17954TIP3    H175277   3.607   2.978   0.116 -0.8989  0.3804 -0.3032
17954TIP3    H275278   3.701   2.928   0.009 -1.6625  0.2476 -0.9187
17955TIP3   OH275279   3.105   0.653   4.223 -0.6222 -0.0598  0.0035
17955TIP3    H175280   3.045   0.709   4.273 -2.4036 -1.5661 -0.4098
17955TIP3    H275281   3.095   0.566   4.263 -0.2846 -0.7686 -1.4363
17956TIP3   OH275282   1.002   3.276   2.195 -0.4347  0.4363  0.0348
17956TIP3    H175283   0.967   3.301   2.280  1.9845 -2.2818  1.9256
17956TIP3    H275284   1.088   3.316   2.191 -0.1209 -0.2849 -0.6727
17957TIP3   OH275285   1.889   1.417   1.025 -0.2578 -0.5600 -0.2271
17957TIP3    H175286   1.873   1.488   0.963  0.1707 -0.0252  0.2699
17957TIP3    H275287   1.804   1.373   1.035 -0.4293 -0.3699 -0.8441
17958TIP3   OH275288   3.323   0.275  14.372 -0.3508  0.0491  0.1991
17958TIP3    H175289   3.312   0.266  14.278  0.5109 -0.6917  0.1565
17958TIP3    H275290   3.361   0.191  14.400  0.8321  0.8293  0.9772
17959TIP3   OH275291   4.192   2.321  15.218  0.0491  0.3122  0.3219
17959TIP3    H175292   4.114   2.268  15.203 -0.8414  1.2685  1.4635
17959TIP3    H275293   4.174   2.368  15.300  1.8729  0.4497  0.6663
17960TIP3   OH275294   5.358   5.506   5.716 -0.1717  0.4141  0.1100
17960TIP3    H175295   5.355   5.548   5.630 -1.5398  0.5815  0.2211
17960TIP3    H275296   5.266   5.492   5.738  0.1819  0.2749  1.5032
17961TIP3   OH275297   6.586   3.989   4.223 -0.4789 -0.2202 -0.1552
17961TIP3    H175298   6.551   3.941   4.147 -2.1305  0.1584  0.3530
17961TIP3    H275299   6.590   4.080   4.194  3.3450 -0.6775 -1.3723
17962TIP3   OH275300   5.061   2.943  14.208  0.0347 -0.0816 -0.6805
17962TIP3    H175301   4.970   2.962  14.185 -0.9168 -3.9883 -0.4830
17962TIP3    H275302   5.107   2.941  14.125 -0.0817  1.7286 -0.7989
17963TIP3   OH275303   3.643   4.471   3.290  0.0957 -0.2234  0.0846
17963TIP3    H175304   3.673   4.388   3.254  0.5756 -0.1400  0.2895
17963TIP3    H275305   3.672   4.469   3.382 -2.4961 -1.1420  0.9408
17964TIP3   OH275306   5.979   3.039  15.428  0.1921 -0.0825  0.2100
17964TIP3    H175307   5.884   3.040  15.415  0.0547 -0.3267  1.1641
17964TIP3    H275308   5.992   2.980  15.502  1.1028 -0.1394  0.0030
17965TIP3   OH275309   3.657   3.260  14.233  0.1794  0.0351  0.3220
17965TIP3    H175310   3.588   3.323  14.252  2.0203  1.8505  1.2233
17965TIP3    H275311   3.697   3.291  14.152 -0.0050 -0.9575 -0.1541
17966TIP3   OH275312   1.518   0.861   4.087  0.5578  0.3947  0.2177
17966TIP3    H175313   1.456   0.930   4.110  0.4657  0.5476 -0.4525
17966TIP3    H275314   1.576   0.901   4.022 -0.4587 -0.5964 -1.3565
17967TIP3   OH275315   0.835   5.866  16.360 -0.1363  0.1900 -0.4681
17967TIP3    H175316   0.772   5.937  16.370 -0.2703  0.0302 -0.1856
17967TIP3    H275317   0.782   5.789  16.340 -0.0454  0.0170 -0.0373
17968TIP3   OH275318   1.400   4.117  16.887  0.1439 -0.0467 -0.1140
17968TIP3    H175319   1.356   4.130  16.971 -2.2686 -1.5286 -1.0805
17968TIP3    H275320   1.415   4.205  16.854 -0.4694  0.5236  1.0877
17969TIP3   OH275321   3.748   4.114  15.899 -0.6574 -0.2693  0.3185
17969TIP3    H175322   3.723   4.068  15.979  1.2102 -1.8293  0.0306
17969TIP3    H275323   3.828   4.161  15.922 -0.9639  0.5244 -0.2067
17970TIP3   OH275324   0.152   3.247  15.176  0.5957 -0.5390 -0.0595
17970TIP3    H175325   0.061   3.272  15.196  0.5603  0.6282 -1.6442
17970TIP3    H275326   0.146   3.155  15.149 -0.3718  0.0529 -1.9017
17971TIP3   OH275327   2.238   6.356  13.461 -0.0513  0.1220  0.8677
17971TIP3    H175328   2.171   6.304  13.506 -0.6852 -0.3527 -0.6059
17971TIP3    H275329   2.318   6.304  13.468 -0.4375 -0.5473  0.3516
17972TIP3   OH275330   0.405   3.230  10.795  0.1203 -0.1132  0.0713
17972TIP3    H175331   0.318   3.269  10.806  0.1585  0.4197 -1.3720
17972TIP3    H275332   0.389   3.153  10.740  0.6141  0.2153 -0.5326
17973TIP3   OH275333   2.021   3.856   3.808 -0.4652 -0.2970  0.1506
17973TIP3    H175334   1.974   3.780   3.844  0.2617 -0.7789  0.0912
17973TIP3    H275335   2.040   3.911   3.883  1.0869 -1.3196  0.5252
17974TIP3   OH275336   4.222   2.377  12.591 -0.0672 -0.5106  0.0810
17974TIP3    H175337   4.209   2.282  12.603 -0.0677 -0.6920 -1.2959
17974TIP3    H275338   4.316   2.387  12.581 -0.2774 -0.6840 -2.3023
17975TIP3   OH275339   1.140   0.339  11.913  0.8417 -0.1211 -0.3430
17975TIP3    H175340   1.158   0.417  11.862  1.2405  0.1983  0.2841
17975TIP3    H275341   1.051   0.313  11.886  0.4698  0.8922 -0.1016
17976TIP3   OH275342   0.878   4.494  11.741  0.3453 -0.0382 -0.1512
17976TIP3    H175343   0.821   4.471  11.667 -0.6290 -1.7088  1.0858
17976TIP3    H275344   0.853   4.584  11.762  1.4159  0.8607 -2.5392
17977TIP3   OH275345   5.011   4.325  12.843 -0.6449 -0.4845  0.2759
17977TIP3    H175346   4.989   4.237  12.813  0.0172 -0.0943 -1.4528
17977TIP3    H275347   4.941   4.380  12.806  1.0765  0.2370 -2.0770
17978TIP3   OH275348   3.654   0.031   2.626 -0.0275  0.4298 -0.2829
17978TIP3    H175349   3.708   0.056   2.702 -0.2717  0.3651 -0.0898
17978TIP3    H275350   3.718   0.018   2.556  0.4424 -2.0083  0.5500
17979TIP3   OH275351   3.735   6.234  14.740  0.1841 -0.1440 -0.4641
17979TIP3    H175352   3.658   6.196  14.782 -0.0474 -0.4136 -1.1245
17979TIP3    H275353   3.746   6.320  14.782  1.2736 -1.3055  1.7036
17980TIP3   OH275354   5.891   2.092   1.578 -0.2091 -0.7056 -0.2067
17980TIP3    H175355   5.891   2.092   1.483  0.4676  1.1666 -0.2162
17980TIP3    H275356   5.868   2.182   1.603 -2.5044 -1.6640  1.4177
17981TIP3   OH275357   4.379   2.942  16.625  0.9168 -0.0925  0.2967
17981TIP3    H175358   4.342   2.962  16.539  0.3511 -1.2591  0.2462
17981TIP3    H275359   4.471   2.922  16.608  0.9166  0.1389  0.0241
17982TIP3   OH275360   0.652   5.805  14.748  0.3998  0.3483  0.6248
17982TIP3    H175361   0.743   5.828  14.729  0.0429 -0.3039 -2.0556
17982TIP3    H275362   0.601   5.846  14.677 -1.5036  1.4028  2.5379
17983TIP3   OH275363   5.132   6.652   3.203 -0.3422 -0.0182 -0.2542
17983TIP3    H175364   5.084   6.646   3.286 -0.4237  1.2217 -0.1915
17983TIP3    H275365   5.224   6.641   3.227 -0.3083  0.9832  0.1014
17984TIP3   OH275366   0.544   3.577   4.094  0.1413 -0.9494 -0.0202
17984TIP3    H175367   0.512   3.628   4.168  1.4461  1.8148 -1.2871
17984TIP3    H275368   0.552   3.488   4.128  0.4575  0.1955  3.0732
17985TIP3   OH275369   2.916   5.172  13.798  0.6737  0.4428  0.1826
17985TIP3    H175370   2.870   5.091  13.774  0.5977  0.2585  0.9438
17985TIP3    H275371   2.952   5.204  13.715 -0.8244  0.5814 -0.4312
17986TIP3   OH275372   4.613   1.198   4.582 -0.1294  0.0177  0.3174
17986TIP3    H175373   4.519   1.215   4.588 -0.1440  0.6737 -1.4072
17986TIP3    H275374   4.624   1.108   4.613 -1.4790 -0.4331 -0.4910
17987TIP3   OH275375   2.681   1.502  14.144  0.3782 -0.5658  0.1113
17987TIP3    H175376   2.739   1.433  14.112  1.2107  0.2843 -0.2316
17987TIP3    H275377   2.733   1.549  14.208 -0.5632 -0.9288  1.1711
17988TIP3   OH275378   2.119   0.919  15.247 -0.2192  0.1830 -0.1467
17988TIP3    H175379   2.096   0.962  15.165  0.6166  1.8271  0.4535
17988TIP3    H275380   2.107   0.826  15.230 -0.4609  0.5399 -1.9945
17989TIP3   OH275381   4.574   2.343  12.453 -0.2332  0.4497  0.1110
17989TIP3    H175382   4.620   2.346  12.370 -1.1805 -1.7654 -0.5264
17989TIP3    H275383   4.557   2.250  12.468 -1.0956  0.9107  2.2024
17990TIP3   OH275384   6.054   2.526  11.378  0.0711  0.0764  0.1187
17990TIP3    H175385   6.072   2.619  11.385 -2.7706  0.7940 -1.2483
17990TIP3    H275386   5.981   2.512  11.438  2.0665 -1.8018  2.1942
17991TIP3   OH275387   2.523   6.320  15.616  0.2854 -0.4985  0.3043
17991TIP3    H175388   2.521   6.398  15.561  0.5341 -0.9021 -0.2830
17991TIP3    H275389   2.431   6.305  15.640 -0.0326 -1.2351 -1.3203
17992TIP3   OH275390   1.783   0.736  12.823 -0.5456 -0.7773  0.6868
17992TIP3    H175391   1.708   0.689  12.859 -0.5794 -1.4274 -0.2141
17992TIP3    H275392   1.860   0.693  12.861 -0.5887 -1.2115  0.2822
17993TIP3   OH275393   5.946   3.970   1.905 -0.3004 -0.1131 -0.6316
17993TIP3    H175394   5.950   4.030   1.831 -0.5110  1.0531  0.2999
17993TIP3    H275395   6.035   3.933   1.910 -0.0783  0.3667 -0.9859
17994TIP3   OH275396   6.404   6.591  12.786 -0.0485 -0.4419  0.0515
17994TIP3    H175397   6.480   6.553  12.832  1.9734  0.0782 -2.7211
17994TIP3    H275398   6.377   6.664  12.842  1.9105 -0.2563  0.8172
17995TIP3   OH275399   1.779   4.674   3.085  0.0441 -0.3085 -0.0058
17995TIP3    H175400   1.780   4.723   3.168  0.5264 -0.1238 -0.1184
17995TIP3    H275401   1.693   4.691   3.048 -0.5485 -1.1784  0.9299
17996TIP3   OH275402   0.178   5.028  12.604  0.0463  0.0598 -0.0753
17996TIP3    H175403   0.216   5.111  12.572 -1.9336  1.1795  0.4089
17996TIP3    H275404   0.089   5.051  12.629  0.0194 -1.8709  1.6814
17997TIP3   OH275405   4.507   1.048  14.564 -0.0754  0.6415 -0.3616
17997TIP3    H175406   4.505   1.069  14.471 -0.8377  1.2500 -0.2143
17997TIP3    H275407   4.599   1.053  14.588  0.4203 -1.8177 -1.5941
17998TIP3   OH275408   3.059   5.746  16.831  0.1572 -0.0214  0.1572
17998TIP3    H175409   3.101   5.830  16.849 -1.2684  0.5889  0.6781
17998TIP3    H275410   2.988   5.740  16.895 -1.2174 -0.5479 -1.3843
17999TIP3   OH275411   5.938   4.592  11.687  0.0681 -0.1443 -0.3349
17999TIP3    H175412   6.018   4.555  11.722  0.7149  0.6121 -0.9925
17999TIP3    H275413   5.966   4.646  11.613 -0.8332  1.6100  0.5583
18000TIP3   OH275414   3.589   3.996   4.611 -0.4106  0.2331 -0.5596
18000TIP3    H175415   3.564   4.088   4.604 -2.3431 -0.3026 -0.9662
18000TIP3    H275416   3.561   3.957   4.527  2.1547 -0.3309 -1.1920
18001TIP3   OH275417   4.364   6.346   3.238  0.0242  0.4437 -0.6422
18001TIP3    H175418   4.459   6.358   3.246  0.0768  0.1972 -0.8590
18001TIP3    H275419   4.334   6.421   3.188  0.1711  0.2801 -0.9722
18002TIP3   OH275420   3.933   5.140  11.153 -0.0104  0.1793 -0.5888
18002TIP3    H175421   3.959   5.100  11.070  0.7549  0.8479 -0.6848
18002TIP3    H275422   3.947   5.234  11.139  2.8180  0.0721  1.2312
18003TIP3   OH275423   5.783   0.744  15.026 -0.1049 -0.5254  0.1460
18003TIP3    H175424   5.814   0.741  15.116  0.1785  0.0558  0.0639
18003TIP3    H275425   5.723   0.669  15.019 -0.2833 -0.4498  0.8686
18004TIP3   OH275426   0.239   5.155  13.358  1.0006  0.6309  0.1891
18004TIP3    H175427   0.159   5.177  13.407 -0.0352  2.3173 -2.1726
18004TIP3    H275428   0.303   5.221  13.387  1.3061 -0.1874  1.4309
18005TIP3   OH275429   2.591   3.663  14.254 -0.0935 -0.3355 -0.0532
18005TIP3    H175430   2.645   3.713  14.315 -1.7522  2.6981 -0.9857
18005TIP3    H275431   2.647   3.590  14.226  2.4293  1.0491  1.2625
18006TIP3   OH275432   5.173   2.609   5.727 -0.4333  0.1881  0.0233
18006TIP3    H175433   5.095   2.561   5.756 -0.5313 -0.2354 -0.9271
18006TIP3    H275434   5.241   2.541   5.720  0.0414  0.5666  0.9150
18007TIP3   OH275435   4.184   5.634   1.683  0.1161  0.1781 -0.3776
18007TIP3    H175436   4.101   5.624   1.637  0.3291  0.0242 -0.7300
18007TIP3    H275437   4.244   5.576   1.636  0.1274 -0.6068  0.6069
18008TIP3   OH275438   0.947   4.659   2.444 -0.5707 -0.7772 -0.1147
18008TIP3    H175439   0.976   4.655   2.353 -0.5218 -2.0563 -0.0410
18008TIP3    H275440   0.868   4.712   2.442  0.8065  1.3355 -0.5567
18009TIP3   OH275441   3.933   3.878   5.016 -0.4346  0.3442 -0.4166
18009TIP3    H175442   3.885   3.800   5.044 -0.0887  0.3694  0.2881
18009TIP3    H275443   3.916   3.885   4.922 -0.1587 -0.8045 -0.5651
18010TIP3   OH275444   2.353   1.050  15.820 -0.1820 -0.0346 -0.6682
18010TIP3    H175445   2.321   0.968  15.783  1.5616 -0.0494 -2.2334
18010TIP3    H275446   2.416   1.023  15.887 -0.5857  0.0179 -0.2661
18011TIP3   OH275447   4.612   5.586  12.613  0.4083 -0.2921  0.1903
18011TIP3    H175448   4.572   5.671  12.597 -0.6301 -0.9819 -1.0019
18011TIP3    H275449   4.690   5.585  12.558 -0.0049 -0.3936 -0.4071
18012TIP3   OH275450   3.179   2.128   3.879  0.1557 -0.4851 -0.0574
18012TIP3    H175451   3.166   2.223   3.880 -0.2380 -0.5079 -1.3359
18012TIP3    H275452   3.182   2.102   3.971 -1.5867  0.5311  0.2963
18013TIP3   OH275453   5.615   4.323  13.709  0.2855  0.2899 -0.3693
18013TIP3    H175454   5.693   4.377  13.696  1.3855 -0.8641  1.1875
18013TIP3    H275455   5.622   4.254  13.644 -1.1799  2.0271 -2.4366
18014TIP3   OH275456   1.861   0.463  17.090 -0.2805  0.5083 -0.0836
18014TIP3    H175457   1.777   0.430  17.059 -0.4529  0.3450  0.5611
18014TIP3    H275458   1.882   0.535  17.030 -0.4927  0.0333 -0.7367
18015TIP3   OH275459   1.460   5.004  15.906  0.2440  0.1107  0.2120
18015TIP3    H175460   1.390   4.999  15.971  1.5694  1.2416  1.7516
18015TIP3    H275461   1.470   5.098  15.889  0.6115 -0.1184 -0.8636
18016TIP3   OH275462   6.704   3.309   5.387  0.5258  0.3494  0.2238
18016TIP3    H175463   6.695   3.243   5.456  2.5127  1.0738  1.2192
18016TIP3    H275464   6.720   3.258   5.307  1.8337 -0.4155  0.9450
18017TIP3   OH275465   1.845   0.494  13.059 -0.0249 -0.1060 -0.7653
18017TIP3    H175466   1.768   0.532  13.015  1.7589  1.2690 -2.7919
18017TIP3    H275467   1.910   0.564  13.057  2.4468 -2.3893 -2.1390
18018TIP3   OH275468   6.089   6.166  15.069 -0.0287  0.4297 -0.3249
18018TIP3    H175469   6.085   6.243  15.012 -0.2052  0.6546 -0.0104
18018TIP3    H275470   6.105   6.093  15.009 -2.5135  0.3486 -0.9340
18019TIP3   OH275471   2.274   2.763   2.209 -0.1684 -0.7031 -0.3021
18019TIP3    H175472   2.349   2.737   2.155  0.8562 -0.6750  1.0907
18019TIP3    H275473   2.198   2.730   2.161  0.4360  2.4099 -3.6122
18020TIP3   OH275474   0.857   6.532   1.246  0.0137  0.5014 -0.1099
18020TIP3    H175475   0.766   6.539   1.274  0.0851  1.7912 -0.1505
18020TIP3    H275476   0.888   6.450   1.284 -0.9777  0.3872  0.4584
18021TIP3   OH275477   3.878   1.362  16.755  0.0990 -0.0856  0.0283
18021TIP3    H175478   3.870   1.449  16.716 -0.3758  0.1915  0.7160
18021TIP3    H275479   3.805   1.358  16.817 -0.2854 -1.2434 -0.4978
18022TIP3   OH275480   6.406   4.419   4.276  0.2477  0.0755  0.4731
18022TIP3    H175481   6.364   4.470   4.207 -0.2238 -0.4692  0.3564
18022TIP3    H275482   6.335   4.402   4.339  0.5560  0.1298  0.8387
18023TIP3   OH275483   3.084   4.016  14.094 -0.2811 -0.3166 -0.0964
18023TIP3    H175484   3.055   3.926  14.107  0.8495 -0.5661  0.7384
18023TIP3    H275485   3.024   4.051  14.029 -1.6274 -1.2292  0.6402
18024TIP3   OH275486   5.424   5.793   1.707  0.3433 -0.0831  0.5953
18024TIP3    H175487   5.345   5.831   1.669  1.0325 -1.6022 -2.4778
18024TIP3    H275488   5.471   5.868   1.743 -1.5027  1.0883  0.6513
18025TIP3   OH275489   5.774   2.997  13.172  0.1224  0.7194 -0.0493
18025TIP3    H175490   5.813   2.969  13.255 -0.8299  0.4835  0.3192
18025TIP3    H275491   5.684   3.019  13.194 -0.9353 -1.8776 -1.4975
18026TIP3   OH275492   3.037   1.150  13.280  0.6020  0.0491  0.2495
18026TIP3    H175493   3.123   1.147  13.324  1.6053  1.7234 -1.5290
18026TIP3    H275494   3.003   1.237  13.298 -0.4226 -0.3664  0.3609
18027TIP3   OH275495   3.242   3.161   5.118 -0.0932  0.0125  0.4701
18027TIP3    H175496   3.190   3.226   5.073  0.9814 -0.5200 -1.6161
18027TIP3    H275497   3.192   3.139   5.197 -2.9522 -0.4215 -1.3994
18028TIP3   OH275498   6.520   0.737   5.709  0.2023 -0.1154 -0.6737
18028TIP3    H175499   6.432   0.771   5.721 -0.7057 -2.2538 -1.0406
18028TIP3    H275500   6.539   0.689   5.790  0.3418 -1.1117 -1.2907
18029TIP3   OH275501   2.854   5.251   5.819 -0.3805  0.0678  0.4696
18029TIP3    H175502   2.767   5.241   5.857  0.3586  0.4153  2.3287
18029TIP3    H275503   2.914   5.230   5.891  1.0713  0.4089 -0.6113
18030TIP3   OH275504   0.953   6.416  12.364 -0.4858  0.2276 -0.0853
18030TIP3    H175505   1.033   6.467  12.349  0.2499 -0.5783  0.9973
18030TIP3    H275506   0.889   6.481  12.394  0.1804  0.6686  0.4143
18031TIP3   OH275507   0.894   2.668  17.208 -0.0295  0.4245 -0.1664
18031TIP3    H175508   0.964   2.611  17.242  1.4230  1.6299 -1.0915
18031TIP3    H275509   0.929   2.757  17.217 -1.8763  1.1281  0.3230
18032TIP3   OH275510   2.922   1.307   0.982 -0.4090  0.0295 -0.3958
18032TIP3    H175511   2.950   1.217   0.999  0.0062  0.3702  0.8056
18032TIP3    H275512   3.003   1.356   0.973 -0.6244  0.5446  0.4139
18033TIP3   OH275513   5.149   6.082  13.869 -0.5808 -0.4478 -0.1312
18033TIP3    H175514   5.072   6.127  13.833  0.3492  1.1605 -0.1662
18033TIP3    H275515   5.166   6.011  13.808 -1.9235 -0.7019 -0.2294
18034TIP3   OH275516   1.694   2.561  14.666  0.1988 -0.3761  0.4398
18034TIP3    H175517   1.752   2.507  14.718 -0.2932 -1.3398 -0.0062
18034TIP3    H275518   1.617   2.506  14.650 -0.9227  0.9239  1.1670
18035TIP3   OH275519   5.836   4.801   5.054 -0.8051 -0.8616 -0.2998
18035TIP3    H175520   5.784   4.723   5.039 -1.9092  0.0029 -1.0074
18035TIP3    H275521   5.815   4.859   4.981  0.3054 -0.0564 -0.0019
18036TIP3   OH275522   0.758   2.164   2.033  0.8211  0.7417  0.5762
18036TIP3    H175523   0.842   2.184   2.073  0.3612  2.6279  0.6323
18036TIP3    H275524   0.695   2.221   2.077 -0.6216 -1.1165  0.9997
18037TIP3   OH275525   5.114   3.012  15.532  0.5104 -0.1159 -0.1822
18037TIP3    H175526   5.115   2.917  15.530 -0.5112 -0.1287 -0.8596
18037TIP3    H275527   5.022   3.035  15.518  0.5983  0.9541  0.9401
18038TIP3   OH275528   5.784   3.964  14.169  0.4180 -0.4441  0.6124
18038TIP3    H175529   5.789   4.016  14.089  0.9853 -1.1138  0.2081
18038TIP3    H275530   5.769   3.875  14.139 -0.0921 -0.5961  1.2854
18039TIP3   OH275531   2.859   0.376   3.800 -0.1174  0.3881  0.6089
18039TIP3    H175532   2.924   0.373   3.730 -0.5423  0.1872  0.2247
18039TIP3    H275533   2.815   0.291   3.796  0.9142 -0.2533  2.1239
18040TIP3   OH275534   2.728   3.393  11.593  0.0553  0.3675  0.2045
18040TIP3    H175535   2.735   3.312  11.543  0.5374  0.9795 -0.7256
18040TIP3    H275536   2.634   3.399  11.614  0.3234 -1.5424  2.1895
18041TIP3   OH275537   1.797   5.907   2.594  0.1038  0.2242 -0.1131
18041TIP3    H175538   1.750   5.964   2.655  0.7186  1.6581 -0.9552
18041TIP3    H275539   1.884   5.899   2.633 -0.0381 -0.3084  0.1009
18042TIP3   OH275540   4.108   4.281  16.820  0.2826  0.1125  0.3813
18042TIP3    H175541   4.027   4.295  16.771  0.1828 -0.1505  0.4683
18042TIP3    H275542   4.080   4.269  16.910  0.4993  1.0090  0.5688
18043TIP3   OH275543   4.028   3.298  14.967 -0.6504 -0.8569  0.5118
18043TIP3    H175544   3.963   3.246  15.015 -1.9932 -0.6683 -1.0493
18043TIP3    H275545   4.060   3.361  15.031 -0.3100 -2.4427  1.9406
18044TIP3   OH275546   4.216   1.648   6.484  0.4017 -0.2169  0.2850
18044TIP3    H175547   4.284   1.714   6.472  0.5415 -0.5719 -0.9485
18044TIP3    H275548   4.223   1.592   6.407 -2.9609  1.2224 -1.1461
18045TIP3   OH275549   3.927   4.776   3.828 -0.8746 -0.2585  0.2253
18045TIP3    H175550   3.850   4.787   3.773 -1.1640 -1.5349  0.3594
18045TIP3    H275551   3.986   4.721   3.775 -0.3904  0.0525  0.4426
18046TIP3   OH275552   6.051   3.506  13.182 -0.0309  0.1279 -0.5328
18046TIP3    H175553   6.139   3.542  13.195  0.4788 -1.2159 -0.2339
18046TIP3    H275554   6.042   3.499  13.087 -0.1360  1.0279 -0.5983
18047TIP3   OH275555   0.408   2.815   3.669 -0.0596  0.3912 -0.0877
18047TIP3    H175556   0.390   2.741   3.611 -0.5979  0.2583  0.2465
18047TIP3    H275557   0.461   2.875   3.616  3.7698 -1.9814  0.8420
18048TIP3   OH275558   3.376   4.548  14.319  0.1503  0.2662  0.3610
18048TIP3    H175559   3.434   4.473  14.332 -0.1581  0.3226  2.1664
18048TIP3    H275560   3.407   4.588  14.237  2.5436  0.1756  1.1821
18049TIP3   OH275561   4.161   2.570   4.208  0.3118  0.6168 -0.2656
18049TIP3    H175562   4.132   2.559   4.299 -0.7841  0.0636 -0.6859
18049TIP3    H275563   4.104   2.639   4.173 -1.6064 -1.5922 -1.5664
18050TIP3   OH275564   5.338   4.212  15.788 -0.0921  0.0771  0.0900
18050TIP3    H175565   5.361   4.127  15.827 -3.3407 -0.7330  0.3814
18050TIP3    H275566   5.375   4.208  15.700  1.5291 -0.7918  0.7649
18051TIP3   OH275567   1.444   1.204  14.196  0.0023  0.1394  0.0535
18051TIP3    H175568   1.489   1.134  14.242  2.5719  1.5902 -0.1319
18051TIP3    H275569   1.381   1.239  14.259  0.3430 -0.8064  0.9119
18052TIP3   OH275570   5.401   1.331   2.244 -0.1882  0.9236 -0.0682
18052TIP3    H175571   5.413   1.271   2.317 -1.3895  2.2277  1.2329
18052TIP3    H275572   5.429   1.281   2.167 -1.3955 -1.3893  0.9436
18053TIP3   OH275573   3.064   6.395  11.938 -0.6820  0.7158  0.5649
18053TIP3    H175574   3.102   6.307  11.946 -0.5511  0.8849  2.1064
18053TIP3    H275575   3.047   6.421  12.029 -0.5713  2.3539  0.1239
18054TIP3   OH275576   1.892   0.063   5.410  0.2797 -0.0121 -0.5239
18054TIP3    H175577   1.811   0.106   5.436  0.9011  1.3108 -0.7335
18054TIP3    H275578   1.956   0.090   5.476  0.5788 -0.9667 -0.4135
18055TIP3   OH275579   0.792   0.516   4.678  0.0835 -0.0999 -0.3817
18055TIP3    H175580   0.832   0.475   4.755  0.4453 -1.2101 -1.1477
18055TIP3    H275581   0.781   0.608   4.703  2.9771  0.2262 -0.0724
18056TIP3   OH275582   2.776   2.874   1.366 -0.4311 -0.8506  0.8837
18056TIP3    H175583   2.852   2.873   1.424 -0.4575 -2.6977  0.9205
18056TIP3    H275584   2.726   2.797   1.391 -1.1528 -0.9132 -0.6791
18057TIP3   OH275585   3.700   2.247   2.475  0.3667  0.3083 -0.1012
18057TIP3    H175586   3.767   2.283   2.416 -0.3453 -0.3344 -1.3241
18057TIP3    H275587   3.749   2.222   2.553  1.6829 -0.7749 -1.2367
18058TIP3   OH275588   3.994   6.064   3.140 -0.2532 -0.9976 -0.0493
18058TIP3    H175589   3.997   5.974   3.172 -2.7437 -0.0024  3.3209
18058TIP3    H275590   3.904   6.074   3.107 -0.4501  0.6473  0.9367
18059TIP3   OH275591   2.222   5.816  14.261  0.7386  0.1154  0.2520
18059TIP3    H175592   2.293   5.880  14.266 -1.1180  2.1007  2.0500
18059TIP3    H275593   2.143   5.868  14.251 -0.4819 -2.0723 -2.3235
18060TIP3   OH275594   6.524   2.449  14.555  1.3620 -0.3648 -0.2658
18060TIP3    H175595   6.495   2.539  14.541  0.1142 -0.5872  0.8043
18060TIP3    H275596   6.618   2.450  14.533  1.0974  0.9217 -1.3631
18061TIP3   OH275597   3.251   1.739   0.631 -0.2908 -0.5997 -0.2256
18061TIP3    H175598   3.333   1.701   0.662 -0.0578 -0.7661 -1.0490
18061TIP3    H275599   3.267   1.759   0.539 -0.6515  0.8453  0.0276
18062TIP3   OH275600   1.550   4.152   1.860 -0.6033 -0.0061  0.1871
18062TIP3    H175601   1.519   4.215   1.795  1.7587  0.6738 -0.3128
18062TIP3    H275602   1.591   4.082   1.809 -0.8645 -0.6723  0.8693
18063TIP3   OH275603   1.513   3.140  11.630  0.1671 -0.0985  0.2706
18063TIP3    H175604   1.582   3.179  11.683  1.1190  0.1735 -1.1495
18063TIP3    H275605   1.559   3.094  11.560 -1.0958  1.2641 -1.5240
18064TIP3   OH275606   2.482   1.376  12.801 -0.4878  0.0677  0.2491
18064TIP3    H175607   2.438   1.436  12.741  0.2444  0.2476 -0.1041
18064TIP3    H275608   2.425   1.299  12.803 -3.0311  1.9050  3.0171
18065TIP3   OH275609   3.890   1.760  12.543  0.4782 -0.2483 -0.7973
18065TIP3    H175610   3.942   1.735  12.619  2.1286  2.4194 -0.9666
18065TIP3    H275611   3.800   1.763  12.575  0.8536 -1.5372  0.4113
18066TIP3   OH275612   1.950   3.105  16.450  0.4974 -0.6837  0.1576
18066TIP3    H175613   2.012   3.113  16.378  0.2334  0.2141  0.0129
18066TIP3    H275614   1.994   3.050  16.514  0.3610 -2.2819 -1.0837
18067TIP3   OH275615   1.948   6.760   2.647  0.1245 -0.0011  0.3149
18067TIP3    H175616   2.036   6.783   2.679 -0.3655  0.9109  1.0272
18067TIP3    H275617   1.889   6.815   2.698 -0.7954  0.1749 -0.9303
18068TIP3   OH275618   1.342   6.252   2.200  0.1885 -0.0039  0.1819
18068TIP3    H175619   1.350   6.330   2.145 -1.2197  0.8997  1.2048
18068TIP3    H275620   1.425   6.207   2.191  0.5425  0.9492 -1.4549
18069TIP3   OH275621   0.094   5.302  14.682  0.1305 -0.0439  0.0124
18069TIP3    H175622   0.028   5.241  14.649  2.2217 -2.6333  0.4478
18069TIP3    H275623   0.150   5.319  14.607  0.4478  0.1521  0.2931
18070TIP3   OH275624   3.904   6.779  17.037  0.4453 -0.3067  0.2777
18070TIP3    H175625   3.828   6.721  17.042 -2.4187  3.4040  1.7938
18070TIP3    H275626   3.938   6.782  17.126  1.8863 -1.2346 -0.2193
18071TIP3   OH275627   1.712   5.901   0.967 -0.0384 -0.6181  0.8207
18071TIP3    H175628   1.778   5.949   1.017  1.5929 -0.8009 -1.1304
18071TIP3    H275629   1.683   5.962   0.900 -1.6685 -0.6430  1.4671
18072TIP3   OH275630   1.654   2.200   3.741  0.6058  0.5968  0.0739
18072TIP3    H175631   1.714   2.185   3.814  0.1463  0.0922  0.3454
18072TIP3    H275632   1.679   2.135   3.676 -0.1212 -0.0840  0.4772
18073TIP3   OH275633   1.628   5.020   2.167  0.2609  0.3656 -0.4895
18073TIP3    H175634   1.566   4.973   2.112  0.7436  0.0573 -0.7754
18073TIP3    H275635   1.714   4.984   2.143  0.4271 -0.1987  0.8791
18074TIP3   OH275636   0.345   2.535   0.746  0.6610  0.6696 -0.1728
18074TIP3    H175637   0.333   2.444   0.719  1.5824  0.0531  1.4145
18074TIP3    H275638   0.305   2.586   0.676 -0.4752 -0.9704 -0.7598
18075TIP3   OH275639   4.079   4.623   1.348 -0.2986 -0.1677 -0.5165
18075TIP3    H175640   4.128   4.691   1.395  0.3628 -0.1220 -1.2381
18075TIP3    H275641   3.988   4.638   1.370  0.0787 -0.7237  1.4654
18076TIP3   OH275642   5.436   0.767   5.966 -0.0022 -0.3607  0.2341
18076TIP3    H175643   5.504   0.764   6.034 -0.7757 -2.1206  0.9791
18076TIP3    H275644   5.356   0.791   6.013 -0.4471 -1.1035 -0.1293
18077TIP3   OH275645   0.697   3.777   0.399 -0.0271 -0.2553 -0.2685
18077TIP3    H175646   0.619   3.741   0.359  0.8025 -1.3330 -0.9343
18077TIP3    H275647   0.674   3.789   0.491 -0.4250 -2.2180 -0.0934
18078TIP3   OH275648   1.628   4.112  13.074  0.2325  0.2330  0.1905
18078TIP3    H175649   1.659   4.136  13.161  1.3196 -0.3892 -0.0180
18078TIP3    H275650   1.599   4.022  13.082 -1.9722  0.9373  0.4827
18079TIP3   OH275651   6.451   0.921   1.365  0.4461 -0.0173 -0.1738
18079TIP3    H175652   6.506   0.901   1.440  0.3651  2.5206  0.6134
18079TIP3    H275653   6.508   0.907   1.289  0.5648 -2.4540  0.3332
18080TIP3   OH275654   6.529   5.052   5.877 -0.2088  0.4163 -0.7147
18080TIP3    H175655   6.526   4.992   5.951  0.7327 -1.6519 -2.2934
18080TIP3    H275656   6.467   5.121   5.899 -0.4895 -0.5510  1.6538
18081TIP3   OH275657   4.266   3.301   6.064 -0.3302 -0.1566  0.4396
18081TIP3    H175658   4.347   3.250   6.073 -0.7220 -0.9023 -0.2801
18081TIP3    H275659   4.208   3.246   6.013 -1.5994  0.0390  1.6400
18082TIP3   OH275660   0.498   6.610   0.722  0.8911  0.3360 -0.5539
18082TIP3    H175661   0.584   6.581   0.692  0.3132 -1.6928 -0.2745
18082TIP3    H275662   0.515   6.652   0.806  1.1709 -3.6452  1.5026
18083TIP3   OH275663   1.889   6.608   4.512 -0.3026 -0.1689  0.4114
18083TIP3    H175664   1.810   6.589   4.561 -1.2337  0.5345 -0.7911
18083TIP3    H275665   1.909   6.526   4.466 -1.0409  0.0105 -0.2437
18084TIP3   OH275666   6.128   1.831   2.229  0.2892 -0.6312  0.1567
18084TIP3    H175667   6.165   1.805   2.144  1.0072  0.7029  0.0508
18084TIP3    H275668   6.139   1.926   2.232  1.1722 -0.7626  2.1638
18085TIP3   OH275669   3.801   3.910  13.731  0.3736 -0.3039 -1.0549
18085TIP3    H175670   3.752   3.837  13.693 -1.3055  0.9135 -1.3000
18085TIP3    H275671   3.756   3.988  13.698  2.5935  0.8697 -1.4222
18086TIP3   OH275672   5.823   1.457  12.820 -0.8536  0.2524  0.4779
18086TIP3    H175673   5.804   1.497  12.735  0.0248 -0.7615 -0.2132
18086TIP3    H275674   5.747   1.478  12.874 -2.1792 -0.4819 -1.0544
18087TIP3   OH275675   5.544   5.468  15.107  0.3028 -0.0272  0.0352
18087TIP3    H175676   5.453   5.487  15.131 -0.0854 -0.0172 -1.3800
18087TIP3    H275677   5.583   5.432  15.186 -0.7383  0.6634  0.8724
18088TIP3   OH275678   6.484   5.750   5.520 -0.3272 -0.0227 -0.1879
18088TIP3    H175679   6.428   5.826   5.510 -1.0454 -0.4153  0.8467
18088TIP3    H275680   6.558   5.781   5.573 -0.9789 -0.2334  0.8401
18089TIP3   OH275681   6.233   5.514  10.244  0.0276 -0.6583 -0.0548
18089TIP3    H175682   6.189   5.567  10.177 -0.2728  1.6985  1.9296
18089TIP3    H275683   6.326   5.535  10.232 -0.1438  0.8782  1.1438
18090TIP3   OH275684   4.756   6.739  13.080  0.4860 -0.0847  0.5209
18090TIP3    H175685   4.834   6.789  13.104  0.5651 -1.1761  2.7443
18090TIP3    H275686   4.781   6.648  13.094 -0.8900 -0.4950  0.3791
18091TIP3   OH275687   5.842   1.295  13.934  1.0318  0.2163  0.7598
18091TIP3    H175688   5.769   1.348  13.902  1.2948  0.2880  0.2585
18091TIP3    H275689   5.898   1.357  13.981  1.2030  0.3332  0.4048
18092TIP3   OH275690   1.692   4.817  12.153 -0.1010  0.0974 -0.3066
18092TIP3    H175691   1.686   4.830  12.058 -0.7369  1.3759 -0.0994
18092TIP3    H275692   1.602   4.831  12.184  0.0658 -0.5288  0.4603
18093TIP3   OH275693   1.665   2.599   1.886 -0.2461 -0.0267  0.3777
18093TIP3    H175694   1.697   2.525   1.835 -0.9904 -0.0171 -0.1196
18093TIP3    H275695   1.612   2.649   1.824  1.2299  1.5788  0.3941
18094TIP3   OH275696   1.079   1.683   0.489 -0.2352  0.3544 -0.2099
18094TIP3    H175697   1.098   1.642   0.405  0.7583  0.2398  0.0725
18094TIP3    H275698   0.999   1.734   0.473 -0.3690 -0.1194 -1.0670
18095TIP3   OH275699   2.450   5.331   6.304 -0.1293  0.1094 -0.5253
18095TIP3    H175700   2.523   5.367   6.254  0.3730  1.2530  0.9731
18095TIP3    H275701   2.376   5.333   6.244  0.7959  0.1010 -1.6729
18096TIP3   OH275702   3.168   2.767   4.382  0.1618  0.0050  0.4044
18096TIP3    H175703   3.090   2.789   4.331  0.1920 -1.2376 -0.2226
18096TIP3    H275704   3.164   2.824   4.458 -0.0379  1.7106 -0.8423
18097TIP3   OH275705   3.253   4.023   1.595 -0.4551  0.4677 -0.3448
18097TIP3    H175706   3.231   4.074   1.672 -0.8714 -0.0311 -0.1299
18097TIP3    H275707   3.177   3.967   1.580 -0.2686  0.3657 -0.9555
18098TIP3   OH275708   4.965   4.940   4.744  0.7893 -0.2001 -0.4417
18098TIP3    H175709   4.925   4.911   4.662 -2.6689  0.1843  1.0217
18098TIP3    H275710   5.004   5.025   4.724  0.1423 -0.2054 -1.7347
18099TIP3   OH275711   1.227   1.376  16.278 -0.3750  0.2842  0.3228
18099TIP3    H175712   1.134   1.394  16.271 -0.2356  0.9534  0.1940
18099TIP3    H275713   1.248   1.327  16.198 -0.5501  0.4129  0.1958
18100TIP3   OH275714   5.715   3.979  13.291 -0.1499  0.1967  0.4507
18100TIP3    H175715   5.687   3.986  13.200 -2.2573 -1.3605  0.9200
18100TIP3    H275716   5.746   3.889  13.299  2.1289  0.9862  0.7406
18101TIP3   OH275717   2.336   1.361  13.020 -0.0781 -0.1654 -0.4081
18101TIP3    H175718   2.271   1.327  12.959 -2.1453  1.3957  0.8742
18101TIP3    H275719   2.414   1.377  12.966 -0.7355 -1.9983 -1.9594
18102TIP3   OH275720   3.364   5.174   2.115 -0.1696 -0.3659  0.0612
18102TIP3    H175721   3.426   5.101   2.120 -0.8034 -0.8978  0.1891
18102TIP3    H275722   3.298   5.154   2.181 -0.4346  0.2470 -0.0157
18103TIP3   OH275723   3.316   0.685  15.323 -0.1664  0.0682 -0.2314
18103TIP3    H175724   3.303   0.771  15.283  1.7340  0.8546  0.7924
18103TIP3    H275725   3.401   0.656  15.291 -0.3833 -1.0350  0.1574
18104TIP3   OH275726   2.462   4.523  12.843  0.7534 -0.4155  0.5565
18104TIP3    H175727   2.500   4.448  12.890  1.4462  0.8661  2.1028
18104TIP3    H275728   2.401   4.562  12.906  0.2033  0.1664 -0.3273
18105TIP3   OH275729   6.645   2.589  15.312  0.0296  0.1462 -0.4376
18105TIP3    H175730   6.677   2.664  15.362  0.1534 -0.1174 -0.1280
18105TIP3    H275731   6.691   2.514  15.348  0.5398  0.0268 -1.3120
18106TIP3   OH275732   4.532   1.417   3.583  0.1027  0.3428 -0.3630
18106TIP3    H175733   4.610   1.361   3.586  0.3554  0.7791  1.2212
18106TIP3    H275734   4.465   1.367   3.630 -0.0746  0.7517 -0.1820
18107TIP3   OH275735   3.793   0.638   5.567  0.4599  0.5985  0.5914
18107TIP3    H175736   3.881   0.647   5.530  0.5618  2.6194  1.2842
18107TIP3    H275737   3.738   0.694   5.512 -0.8440 -2.2525 -1.1464
18108TIP3   OH275738   6.342   1.195  13.144  0.2969  0.4110  0.0654
18108TIP3    H175739   6.330   1.101  13.129  1.3566  0.6820 -2.8902
18108TIP3    H275740   6.437   1.207  13.146  0.1798  1.6171 -1.0221
18109TIP3   OH275741   3.806   0.148   4.677 -0.4445 -0.3327 -0.2394
18109TIP3    H175742   3.792   0.068   4.728  0.3204 -1.1591 -1.3013
18109TIP3    H275743   3.791   0.219   4.740  0.0637 -1.3256  1.0371
18110TIP3   OH275744   3.214   3.075   6.022 -0.4333  0.6480 -0.1710
18110TIP3    H175745   3.177   3.153   5.982  0.3082  1.3169  0.4362
18110TIP3    H275746   3.281   3.108   6.081  1.2340 -0.5692 -1.3590
18111TIP3   OH275747   2.924   3.362  12.501 -0.7019  0.1504 -0.0017
18111TIP3    H175748   3.004   3.316  12.475  0.0547  1.4437 -0.0138
18111TIP3    H275749   2.941   3.454  12.480 -1.0700  0.8657  2.6526
18112TIP3   OH275750   3.863   6.190  11.358 -0.0533 -0.3187  0.1839
18112TIP3    H175751   3.909   6.273  11.342 -0.5465  0.2481  1.6357
18112TIP3    H275752   3.819   6.203  11.442 -2.4598 -1.0537 -0.9473
18113TIP3   OH275753   3.764   2.467  17.049 -0.0568 -0.3725 -0.0456
18113TIP3    H175754   3.803   2.531  16.990  1.3424  0.1746  1.4598
18113TIP3    H275755   3.672   2.464  17.022 -0.3653  2.9159  0.4011
18114TIP3   OH275756   6.334   4.510  12.991 -0.3174 -0.1955  0.4943
18114TIP3    H175757   6.243   4.529  13.014 -0.1238  1.7095 -0.2225
18114TIP3    H275758   6.328   4.457  12.912 -0.8172 -0.8720  0.9790
18115TIP3   OH275759   2.006   2.246  11.020 -0.9052 -0.2224 -0.1252
18115TIP3    H175760   1.998   2.280  10.931  0.5863  1.8909  0.4956
18115TIP3    H275761   2.016   2.152  11.009 -1.7955 -0.1098 -2.1356
18116TIP3   OH275762   0.511   2.846   5.057 -0.1609 -0.0244  0.7656
18116TIP3    H175763   0.461   2.868   4.978  0.5717  1.2584  0.6507
18116TIP3    H275764   0.447   2.854   5.128 -1.1204 -2.3609  0.1834
18117TIP3   OH275765   1.992   3.553  11.940 -0.6834 -0.1640  0.1292
18117TIP3    H175766   1.912   3.539  11.890 -0.3249 -0.6750 -0.3055
18117TIP3    H275767   2.048   3.605  11.883 -0.1871 -0.9369 -0.0975
18118TIP3   OH275768   1.381   5.818  14.220  0.0462 -0.0450 -0.2694
18118TIP3    H175769   1.310   5.865  14.175 -0.1202  0.3561  0.3945
18118TIP3    H275770   1.458   5.831  14.164 -0.2285  0.1785 -0.5994
18119TIP3   OH275771   3.218   0.282  10.562 -0.8357 -0.6534 -0.4306
18119TIP3    H175772   3.223   0.199  10.514 -0.3538 -0.9243  0.0926
18119TIP3    H275773   3.271   0.343  10.510  0.9883 -1.3500  0.5918
18120TIP3   OH275774   5.216   2.980  14.796 -0.4837  0.0641  0.2221
18120TIP3    H175775   5.277   2.978  14.722 -1.0331 -0.7303 -0.2051
18120TIP3    H275776   5.214   2.891  14.829 -0.6821  0.2927  0.8479
18121TIP3   OH275777   4.240   5.250   4.671 -0.5275  0.0126 -0.1972
18121TIP3    H175778   4.311   5.313   4.686 -0.8831  0.5048 -0.5463
18121TIP3    H275779   4.279   5.165   4.687  0.2247  0.2664 -0.6951
18122TIP3   OH275780   2.354   0.247  14.381 -0.1164  0.0141  0.3131
18122TIP3    H175781   2.310   0.163  14.364  1.0704 -0.8558  1.4070
18122TIP3    H275782   2.392   0.271  14.297  1.9432 -2.0058  0.6305
18123TIP3   OH275783   5.291   2.553  14.504  0.0098  0.0009 -0.6062
18123TIP3    H175784   5.373   2.569  14.550 -0.4098 -0.5461  0.3456
18123TIP3    H275785   5.306   2.587  14.416  1.6699 -1.1429 -0.7936
18124TIP3   OH275786   5.053   3.553  17.220  0.0930 -0.0602  0.1512
18124TIP3    H175787   5.034   3.510  17.136 -2.4546  1.1904  0.0274
18124TIP3    H275788   5.042   3.484  17.285 -0.7283 -0.3797 -0.3199
18125TIP3   OH275789   1.286   4.197  13.432  0.3751 -0.3440 -0.0512
18125TIP3    H175790   1.310   4.228  13.345  0.0082  0.0745 -0.0059
18125TIP3    H275791   1.348   4.126  13.451 -0.0221 -0.9393 -0.9631
18126TIP3   OH275792   5.190   0.514  10.631 -0.8053  1.1503 -0.0031
18126TIP3    H175793   5.254   0.443  10.625 -1.9526  0.0429  0.4077
18126TIP3    H275794   5.136   0.491  10.707  0.4848  3.9063  1.7972
18127TIP3   OH275795   1.183   0.644   4.648 -0.4091 -0.1566  0.0112
18127TIP3    H175796   1.249   0.649   4.579 -0.4081 -1.2963 -0.0872
18127TIP3    H275797   1.217   0.700   4.718  1.1369 -1.4685  0.3504
18128TIP3   OH275798   3.849   6.693   4.537 -0.2136 -0.1179  0.9098
18128TIP3    H175799   3.807   6.641   4.606 -1.0913  0.7727  1.0565
18128TIP3    H275800   3.878   6.628   4.473 -4.5757 -0.6397 -0.7116
18129TIP3   OH275801   1.754   1.989  15.411 -0.5399 -0.2460 -0.0278
18129TIP3    H175802   1.719   1.932  15.479  0.0470  1.5481  1.8346
18129TIP3    H275803   1.837   2.020  15.446  0.0672  0.2282 -1.8444
18130TIP3   OH275804   6.114   1.367  15.790  0.1459 -0.0888 -0.2580
18130TIP3    H175805   6.056   1.439  15.814 -0.2250 -0.9453  1.5709
18130TIP3    H275806   6.181   1.366  15.859  0.4239 -1.1856 -0.5287
18131TIP3   OH275807   4.125   6.209  12.070 -0.5776  0.1669 -0.2637
18131TIP3    H175808   4.044   6.168  12.040 -1.1836  1.0126  0.1850
18131TIP3    H275809   4.155   6.153  12.142 -0.7356 -0.1788 -0.4665
18132TIP3   OH275810   6.600   5.369  12.462  0.1116 -0.5848 -0.0631
18132TIP3    H175811   6.519   5.341  12.505  0.2065  2.6059  2.4056
18132TIP3    H275812   6.664   5.374  12.532  1.7696 -0.5324 -1.5531
18133TIP3   OH275813   2.108   0.909  12.638 -0.3306  0.3585  0.2787
18133TIP3    H175814   2.034   0.939  12.691 -2.5674 -2.0481 -1.3395
18133TIP3    H275815   2.097   0.814  12.635  2.8609 -0.0360 -0.0245
18134TIP3   OH275816   0.213   1.474  17.194 -0.3064  0.1959 -0.5389
18134TIP3    H175817   0.163   1.527  17.132 -0.5960  0.8431  0.2431
18134TIP3    H275818   0.223   1.530  17.271 -0.5618 -0.8548  0.2683
18135TIP3   OH275819   3.776   4.767  16.276  0.0083  0.3748  0.0112
18135TIP3    H175820   3.854   4.745  16.328 -0.2725 -1.0644 -0.1301
18135TIP3    H275821   3.811   4.790  16.190  0.2481 -1.1698 -0.3270
18136TIP3   OH275822   1.542   5.825   1.743 -0.0724 -0.1374  0.0297
18136TIP3    H175823   1.522   5.899   1.686 -0.7653 -0.9039 -0.7438
18136TIP3    H275824   1.492   5.752   1.705  1.8016 -1.3582 -0.1159
18137TIP3   OH275825   0.707   5.941  16.645  0.2512  0.0686 -0.3602
18137TIP3    H175826   0.701   5.849  16.671 -0.1213  0.9752  3.0945
18137TIP3    H275827   0.795   5.967  16.671  0.0912  0.8766 -0.6277
18138TIP3   OH275828   6.141   6.082  13.367 -0.1379 -0.2528  0.5369
18138TIP3    H175829   6.167   5.998  13.406  0.7561  0.0813  0.6715
18138TIP3    H275830   6.054   6.066  13.330 -0.2204 -1.0735  1.0877
18139TIP3   OH275831   6.651   2.917  16.494  0.4650  0.0542  0.2442
18139TIP3    H175832   6.622   2.964  16.416 -0.8243 -1.4118 -0.1730
18139TIP3    H275833   6.628   2.826  16.478 -0.3625 -0.1865  2.5825
18140TIP3   OH275834   0.288   1.649  11.885 -0.1320 -0.0018  0.0961
18140TIP3    H175835   0.301   1.713  11.956 -0.2873  0.2188 -0.0724
18140TIP3    H275836   0.361   1.666  11.825 -1.2154  1.2882 -0.8909
18141TIP3   OH275837   3.188   0.472   0.237  0.1885 -0.1834 -0.4968
18141TIP3    H175838   3.151   0.534   0.300  1.0136 -1.1700  0.9893
18141TIP3    H275839   3.282   0.492   0.237  0.5608 -1.8905  0.5228
18142TIP3   OH275840   3.348   0.862   0.368 -0.6721  0.8224 -0.4595
18142TIP3    H175841   3.336   0.803   0.442 -0.3819  0.3465 -0.7912
18142TIP3    H275842   3.268   0.915   0.368 -1.1044  0.1849 -0.3821
18143TIP3   OH275843   5.142   0.878   2.741 -0.3425 -0.0821 -0.3380
18143TIP3    H175844   5.225   0.870   2.694  0.3694  1.1325  0.6732
18143TIP3    H275845   5.083   0.819   2.695  1.1407 -1.1374 -0.9415
18144TIP3   OH275846   3.772   5.934  14.355 -0.2680 -0.4992  0.1654
18144TIP3    H175847   3.688   5.931  14.309 -0.7196  3.3738  0.5473
18144TIP3    H275848   3.750   5.930  14.448 -0.3434  3.2035  0.3801
18145TIP3   OH275849   6.088   5.164   0.218 -0.0936 -0.2317  0.0095
18145TIP3    H175850   6.022   5.102   0.249 -1.2033 -0.3424 -2.4847
18145TIP3    H275851   6.039   5.244   0.200  0.2285 -0.6840 -3.0215
18146TIP3   OH275852   4.479   2.406  15.328 -0.2522  0.0120  0.2589
18146TIP3    H175853   4.445   2.480  15.278 -1.3492 -0.1385  0.7676
18146TIP3    H275854   4.564   2.387  15.288  0.4201  2.0543  0.6449
18147TIP3   OH275855   6.202   1.721  17.097 -0.1712  0.2011 -0.0645
18147TIP3    H175856   6.180   1.810  17.070 -0.2987  0.4661  0.9027
18147TIP3    H275857   6.282   1.731  17.149  0.2608 -0.3441 -0.6212
18148TIP3   OH275858   0.885   1.518   2.700  0.5579 -0.3129 -0.0008
18148TIP3    H175859   0.948   1.508   2.628  0.8339 -0.3335  0.2388
18148TIP3    H275860   0.939   1.510   2.779  0.4218  0.7446  0.2099
18149TIP3   OH275861   5.435   5.110  12.734  0.0678 -0.1053  0.2623
18149TIP3    H175862   5.426   5.025  12.690  0.2417 -0.1081  0.2291
18149TIP3    H275863   5.394   5.172  12.674  0.4933 -0.0801 -0.0003
18150TIP3   OH275864   3.155   6.061   3.137 -0.0126  0.2561  0.0299
18150TIP3    H175865   3.123   6.021   3.056 -0.4026 -0.9090  0.7537
18150TIP3    H275866   3.228   6.117   3.109 -0.8143  0.6649 -1.2549
18151TIP3   OH275867   1.425   0.674  13.576  0.0448  0.5484 -0.0186
18151TIP3    H175868   1.430   0.735  13.502 -0.2648  2.3876  1.4420
18151TIP3    H275869   1.339   0.634  13.568 -0.3254  1.3697 -0.1791
18152TIP3   OH275870   5.944   3.735  16.318  0.1152 -0.7225  0.1025
18152TIP3    H175871   5.990   3.758  16.399 -0.4166 -2.0416  0.8003
18152TIP3    H275872   5.864   3.693  16.348 -1.1074  0.7038 -1.1159
18153TIP3   OH275873   0.476   6.275  16.463 -1.0841  0.5074  0.0534
18153TIP3    H175874   0.565   6.258  16.493 -0.7035  3.9400  1.1545
18153TIP3    H275875   0.481   6.273  16.368 -0.2041 -0.9364  0.1218
18154TIP3   OH275876   6.051   2.821  12.256 -0.4548 -0.0737 -0.2134
18154TIP3    H175877   6.025   2.746  12.309 -0.5949 -0.1240 -0.3544
18154TIP3    H275878   6.040   2.792  12.166 -0.0464 -0.0464 -0.2741
18155TIP3   OH275879   5.257   0.594   1.085 -0.0945  0.2362 -0.3424
18155TIP3    H175880   5.179   0.568   1.134  0.9636 -1.9046  0.3095
18155TIP3    H275881   5.300   0.511   1.064  3.2481  1.4045  1.4225
18156TIP3   OH275882   4.695   0.653   0.829  0.1810  0.5807 -0.0073
18156TIP3    H175883   4.785   0.684   0.827  0.8386 -1.1798  1.6698
18156TIP3    H275884   4.691   0.585   0.762  0.7271 -0.9901  1.5418
18157TIP3   OH275885   3.131   1.049   1.929 -0.0014  0.4816 -0.1441
18157TIP3    H175886   3.109   1.134   1.891 -0.1911 -0.2778 -1.7639
18157TIP3    H275887   3.200   1.069   1.993  0.8819  1.6861 -1.4404
18158TIP3   OH275888   1.678   3.742  12.496 -0.3892  0.3311 -0.0078
18158TIP3    H175889   1.716   3.669  12.446 -1.7919  0.4268 -1.2599
18158TIP3    H275890   1.601   3.768  12.445 -0.7445  1.7205  1.2102
18159TIP3   OH275891   1.118   5.214  14.818  0.3041  0.1991 -0.1094
18159TIP3    H175892   1.024   5.200  14.834  0.5781  0.8570  2.3156
18159TIP3    H275893   1.128   5.309  14.818  1.2859  0.1170  1.7652
18160TIP3   OH275894   0.374   2.530   1.952 -0.0984  0.0966 -0.6273
18160TIP3    H175895   0.353   2.570   2.036  0.6415 -0.2617 -0.2664
18160TIP3    H275896   0.419   2.599   1.903  0.0985  0.0848 -0.4631
18161TIP3   OH275897   0.251   6.693  14.555  0.1591  0.1580  0.1172
18161TIP3    H175898   0.161   6.726  14.545 -0.9266 -2.9514 -0.8163
18161TIP3    H275899   0.249   6.640  14.634  1.3028  0.4019  0.3196
18162TIP3   OH275900   4.906   0.776  12.650 -0.0562  0.3424  0.2936
18162TIP3    H175901   4.916   0.830  12.571 -0.5918  0.6510  0.4349
18162TIP3    H275902   4.860   0.698  12.619  1.8644 -0.6306 -0.1631
18163TIP3   OH275903   3.515   3.659   5.302 -0.0387  0.3505  0.1561
18163TIP3    H175904   3.470   3.679   5.384  0.9670 -0.7566  0.9877
18163TIP3    H275905   3.594   3.713   5.304  1.0625 -1.2337  0.9261
18164TIP3   OH275906   3.288   3.109   1.396  0.2604 -0.3556 -0.2853
18164TIP3    H175907   3.326   3.114   1.308 -0.3211 -0.9703 -0.5791
18164TIP3    H275908   3.310   3.193   1.437  0.1115  0.1335 -1.1947
18165TIP3   OH275909   4.472   2.611  11.079 -0.3587  0.0117 -0.0814
18165TIP3    H175910   4.437   2.610  11.168 -0.2042 -0.7436 -0.0301
18165TIP3    H275911   4.556   2.655  11.086 -1.2247  1.7249 -0.1823
18166TIP3   OH275912   6.483   0.401   1.508 -0.7003  0.0458  0.3528
18166TIP3    H175913   6.529   0.483   1.491 -0.3205 -0.2246  0.0812
18166TIP3    H275914   6.507   0.379   1.598  2.6590 -1.9786 -0.9325
18167TIP3   OH275915   6.221   2.064   4.743 -0.0189 -0.8667 -0.3819
18167TIP3    H175916   6.229   1.988   4.686  1.5868 -0.3840 -0.8437
18167TIP3    H275917   6.292   2.123   4.714 -0.5515  0.3206  0.6753
18168TIP3   OH275918   3.051   5.132  14.237  0.0934  0.1652  0.1483
18168TIP3    H175919   3.017   5.065  14.179 -1.3573  0.2299  0.9123
18168TIP3    H275920   3.065   5.208  14.180  3.2404 -1.2090 -1.0404
18169TIP3   OH275921   2.443   0.561  16.338 -0.0290 -0.0717 -0.2276
18169TIP3    H175922   2.498   0.488  16.364  0.1905  0.7435  1.6828
18169TIP3    H275923   2.436   0.554  16.242  1.6122 -1.4178 -0.2551
18170TIP3   OH275924   1.564   2.702  14.992 -0.0655  0.4177 -0.2496
18170TIP3    H175925   1.605   2.649  15.060 -4.2347  0.5555  2.6031
18170TIP3    H275926   1.509   2.641  14.944  1.2705  0.7289 -2.2184
18171TIP3   OH275927   4.650   2.309   2.791  0.4398  0.1233  0.2734
18171TIP3    H175928   4.599   2.244   2.742  0.5101 -1.7082  2.5278
18171TIP3    H275929   4.735   2.267   2.803  1.3461  1.7239 -0.4359
18172TIP3   OH275930   3.310   4.632   2.503  0.7234 -0.2287 -0.5982
18172TIP3    H175931   3.269   4.588   2.428 -0.1535 -0.5031  0.0269
18172TIP3    H275932   3.239   4.684   2.542  0.2064 -2.8451  2.1373
18173TIP3   OH275933   6.748   2.318   5.005  0.0456 -0.5153  0.5595
18173TIP3    H175934   6.716   2.398   5.045 -0.3255 -1.3216  1.9199
18173TIP3    H275935   6.757   2.257   5.078  4.1182 -0.5219  0.1539
18174TIP3   OH275936   4.545   3.428  12.970  0.4600  0.5426 -0.0469
18174TIP3    H175937   4.608   3.358  12.990 -1.5586 -2.0675 -2.3609
18174TIP3    H275938   4.503   3.447  13.054  1.4451 -0.6490  0.7416
18175TIP3   OH275939   6.269   2.073  13.722 -0.2878 -0.5856 -0.1627
18175TIP3    H175940   6.187   2.024  13.722 -0.6206 -0.0448  1.5281
18175TIP3    H275941   6.338   2.007  13.732 -0.5408 -0.9872 -1.0354
18176TIP3   OH275942   0.919   4.155   1.483  0.8918 -0.4954 -0.3019
18176TIP3    H175943   0.860   4.122   1.551  0.4506 -1.6589 -1.2311
18176TIP3    H275944   1.002   4.112   1.501  0.4812 -1.6696 -1.1420
18177TIP3   OH275945   6.198   3.484   1.189 -0.6310 -0.0178  0.0230
18177TIP3    H175946   6.132   3.427   1.229 -0.3612  1.1774  2.2406
18177TIP3    H275947   6.151   3.529   1.119 -1.9867  0.2807  1.1012
18178TIP3   OH275948   6.062   1.871  15.559  0.4840 -0.2741 -0.2799
18178TIP3    H175949   6.013   1.790  15.577 -0.1761 -0.1522 -1.4791
18178TIP3    H275950   6.153   1.847  15.576  0.0103 -0.3368  2.5809
18179TIP3   OH275951   5.355   0.823  11.931  0.3284  0.2152  0.0174
18179TIP3    H175952   5.329   0.744  11.978  1.0778  0.7693  1.4068
18179TIP3    H275953   5.349   0.799  11.838  1.1475 -1.6781  0.4195
18180TIP3   OH275954   1.309   0.582  12.282 -0.2159  0.1111 -0.1847
18180TIP3    H175955   1.381   0.560  12.340 -0.9552 -0.3057  0.5917
18180TIP3    H275956   1.333   0.666  12.243  1.8068 -1.1682 -1.7786
18181TIP3   OH275957   1.401   2.182   5.212  0.4847 -0.1643 -0.6344
18181TIP3    H175958   1.311   2.150   5.206 -0.0418  1.1322  0.1687
18181TIP3    H275959   1.447   2.114   5.262 -0.8720  0.7626  1.9874
18182TIP3   OH275960   6.007   6.037  14.599  0.3036 -0.0785  0.3301
18182TIP3    H175961   5.961   6.011  14.519  1.1391  1.5662 -0.7222
18182TIP3    H275962   5.938   6.068  14.658 -0.2461 -0.6613  0.0005
18183TIP3   OH275963   4.274   4.973   2.944 -0.1985  0.0390  0.2863
18183TIP3    H175964   4.202   4.971   2.881 -0.7158 -1.7825  0.9116
18183TIP3    H275965   4.341   4.915   2.907 -0.4028 -0.8464  1.2861
18184TIP3   OH275966   1.347   5.203  15.445  0.4689 -0.1199  0.8992
18184TIP3    H175967   1.330   5.233  15.356 -0.1445  1.4428  1.5206
18184TIP3    H275968   1.412   5.134  15.435 -0.7806 -1.0653 -0.8830
18185TIP3   OH275969   3.214   3.964   0.406 -0.0168  0.0513 -0.0951
18185TIP3    H175970   3.293   3.993   0.361 -0.5388 -1.0448 -1.7685
18185TIP3    H275971   3.159   4.042   0.410  0.4121  0.3795 -0.5498
18186TIP3   OH275972   2.952   1.152   4.509  0.3845 -0.1817 -0.1890
18186TIP3    H175973   2.961   1.069   4.461 -0.3405  0.2150 -1.0313
18186TIP3    H275974   2.870   1.142   4.557  1.3119 -0.7341  1.2984
18187TIP3   OH275975   4.818   2.730   6.083 -0.3794 -0.2903 -0.2496
18187TIP3    H175976   4.907   2.698   6.071  0.6131  1.9164  0.9755
18187TIP3    H275977   4.786   2.682   6.160  0.6140  0.6367  0.7528
18188TIP3   OH275978   0.039   0.429  11.512 -0.2502 -0.1991  0.6417
18188TIP3    H175979   0.116   0.453  11.461 -0.1687 -0.3448  0.6949
18188TIP3    H275980  -0.011   0.372  11.454  0.0102 -0.6424  0.8395
18189TIP3   OH275981   4.494   0.961   3.999  0.4278  0.4414 -0.2892
18189TIP3    H175982   4.477   0.902   3.925 -0.5359  2.6687 -1.8950
18189TIP3    H275983   4.533   1.039   3.959  1.7889  0.8553  1.8110
18190TIP3   OH275984   2.378   6.770  10.902  1.0579 -0.0405 -0.5777
18190TIP3    H175985   2.337   6.757  10.816  0.5890 -0.2333 -0.3292
18190TIP3    H275986   2.410   6.683  10.926  0.5808 -0.1337 -0.2579
18191TIP3   OH275987   5.216   3.240  16.632  0.0949 -0.2134 -0.0500
18191TIP3    H175988   5.144   3.185  16.663  0.5826  0.1585  1.8239
18191TIP3    H275989   5.282   3.179  16.601  0.6809 -0.7195  2.1179
18192TIP3   OH275990   3.825   3.999  11.081 -0.1883  0.4891 -0.5680
18192TIP3    H175991   3.831   3.909  11.115  0.4469 -0.1847 -2.4014
18192TIP3    H275992   3.781   4.048  11.150  1.8680 -0.6463  1.6206
18193TIP3   OH275993   5.986   2.699   2.426 -0.1888 -0.6049  0.2839
18193TIP3    H175994   5.931   2.631   2.386  1.0519  0.1568 -2.8678
18193TIP3    H275995   6.068   2.696   2.376  0.0391  2.9244  0.2988
18194TIP3   OH275996   5.664   1.683   0.829 -0.5267  0.1991  0.0582
18194TIP3    H175997   5.597   1.733   0.783  1.5213  0.5249 -2.7149
18194TIP3    H275998   5.705   1.747   0.888 -0.6696  0.7629 -0.4446
18195TIP3   OH275999   3.046   1.354   4.672 -0.4249  0.1039 -0.8473
18195TIP3    H176000   3.005   1.288   4.617 -0.4056 -1.1855  0.6690
18195TIP3    H276001   3.063   1.310   4.755  2.5320  1.0454 -0.8758
18196TIP3   OH276002   5.152   3.281  13.053 -0.4312 -0.2796 -0.3770
18196TIP3    H176003   5.161   3.340  13.127  0.1718  0.4806 -1.0414
18196TIP3    H276004   5.173   3.195  13.088 -1.3761 -0.1231  0.6170
18197TIP3   OH276005   4.500   0.959  16.763 -0.1232  0.3043 -0.4139
18197TIP3    H176006   4.495   1.052  16.782  0.7832 -0.0515  1.6966
18197TIP3    H276007   4.413   0.936  16.731 -0.8705  1.5250  0.7000
18198TIP3   OH276008   6.606   4.795  13.868 -0.1305 -0.0073 -0.1135
18198TIP3    H176009   6.657   4.769  13.791 -1.3457  0.6862 -1.1874
18198TIP3    H276010   6.657   4.863  13.910  1.5892 -1.9027  0.9476
18199TIP3   OH276011   6.156   1.435   5.587 -0.1049  0.2561 -0.6400
18199TIP3    H176012   6.196   1.498   5.647 -0.0903  0.5248 -0.9312
18199TIP3    H276013   6.137   1.358   5.642  1.1489 -0.0197 -0.5732
18200TIP3   OH276014   2.131   3.530  12.546  0.4900  0.0069 -0.6766
18200TIP3    H176015   2.157   3.479  12.622 -1.9281 -1.0024 -0.4794
18200TIP3    H276016   2.035   3.525  12.545  0.3521  2.0601 -2.3704
18201TIP3   OH276017   4.660   5.703   0.483 -0.2997 -0.2596  0.1753
18201TIP3    H176018   4.643   5.614   0.451  1.6549 -1.1310  1.4274
18201TIP3    H276019   4.605   5.711   0.562 -1.0902 -0.0528 -0.3932
18202TIP3   OH276020   4.789   2.216  14.328 -0.0978  0.4876  0.0920
18202TIP3    H176021   4.821   2.138  14.282 -0.1933  0.8825 -0.6488
18202TIP3    H276022   4.721   2.183  14.387 -1.6324  0.2859 -1.7389
18203TIP3   OH276023   4.487   0.423  13.496 -0.4923 -0.4236 -0.0805
18203TIP3    H176024   4.395   0.394  13.500 -1.0308  1.0125 -1.6316
18203TIP3    H276025   4.490   0.483  13.422  1.3184  0.9948  1.0986
18204TIP3   OH276026   5.092   2.071  13.374  0.6760  0.6840 -0.0128
18204TIP3    H176027   5.064   2.142  13.432 -0.3966  1.1302 -1.0583
18204TIP3    H276028   5.186   2.087  13.360  0.2526  2.4898 -1.0191
18205TIP3   OH276029   0.212   2.238  15.238 -0.0776  0.3461 -0.1140
18205TIP3    H176030   0.196   2.332  15.249  2.3933  0.9366 -1.3646
18205TIP3    H276031   0.153   2.212  15.168 -1.9955  0.5800  1.3674
18206TIP3   OH276032   1.676   0.540   0.333 -0.3226  0.1749 -0.1080
18206TIP3    H176033   1.724   0.459   0.317  1.4086  0.6920  2.2021
18206TIP3    H276034   1.663   0.578   0.246  1.6687 -0.9997 -0.9428
18207TIP3   OH276035   1.261   1.755   6.192  0.3894 -0.5113 -0.8008
18207TIP3    H176036   1.262   1.838   6.144  0.3481  0.8971  1.5476
18207TIP3    H276037   1.350   1.745   6.224  0.2081 -0.9890 -0.4434
18208TIP3   OH276038   3.376   5.763   2.714 -0.6054 -0.5076  0.6397
18208TIP3    H176039   3.459   5.727   2.746 -0.3184  0.0041  0.4801
18208TIP3    H276040   3.318   5.687   2.707  0.1465 -1.0092 -0.1956
18209TIP3   OH276041   2.057   6.128  15.285  0.5983 -0.0706 -0.2569
18209TIP3    H176042   2.108   6.121  15.365 -0.4291 -1.6119  0.2814
18209TIP3    H276043   2.035   6.221  15.278 -1.6866 -0.3181  2.7549
18210TIP3   OH276044   3.454   6.686  13.553 -0.4115 -0.1697 -0.2930
18210TIP3    H176045   3.471   6.779  13.537 -0.3568  0.0472  0.9803
18210TIP3    H276046   3.458   6.677  13.648 -2.2106 -1.1340 -0.2941
18211TIP3   OH276047   0.180   2.970  10.901 -0.6092  0.4170  0.7152
18211TIP3    H176048   0.092   2.970  10.938 -0.6468  2.6728  0.6557
18211TIP3    H276049   0.238   2.982  10.975 -0.5009  1.5219  0.4587
18212TIP3   OH276050   6.318   3.102   2.513 -0.2854 -0.2841  0.6204
18212TIP3    H176051   6.403   3.063   2.493 -0.2571 -0.5347  1.2143
18212TIP3    H276052   6.303   3.080   2.605 -0.6573  0.3850  0.7194
18213TIP3   OH276053   5.909   4.742  11.944  0.4355  0.5010  0.4195
18213TIP3    H176054   5.821   4.780  11.953  1.0229  2.3061 -1.1509
18213TIP3    H276055   5.911   4.708  11.854  1.2177  0.1377  0.5683
18214TIP3   OH276056   3.238   3.510   3.674 -0.1090 -0.0840 -0.1514
18214TIP3    H176057   3.147   3.527   3.698 -0.0702 -1.8329  1.3771
18214TIP3    H276058   3.231   3.446   3.603 -0.0596 -1.7943  1.3530
18215TIP3   OH276059   1.380   1.938  15.568 -0.7139 -0.0807  0.2712
18215TIP3    H176060   1.342   2.024  15.551  0.9719  0.8744  1.1754
18215TIP3    H276061   1.381   1.894  15.483  0.1692  1.5225 -0.5620
18216TIP3   OH276062   3.527   6.302   2.304  0.1512 -0.2742 -0.2312
18216TIP3    H176063   3.443   6.347   2.301 -0.6069 -1.7755 -2.0804
18216TIP3    H276064   3.584   6.354   2.247 -0.4721 -1.1077 -1.6403
18217TIP3   OH276065   3.205   0.051   6.125  0.0314  0.0705  0.4841
18217TIP3    H176066   3.222   0.101   6.205  0.9137 -0.0570  0.3852
18217TIP3    H276067   3.270  -0.018   6.126 -1.3363 -1.2312  0.7379
18218TIP3   OH276068   0.913   1.677  11.349 -0.0935  0.7137  0.6640
18218TIP3    H176069   0.939   1.656  11.439 -0.0120 -1.5236  0.1443
18218TIP3    H276070   0.993   1.663  11.298  0.1663  3.1090  0.3931
18219TIP3   OH276071   5.732   6.577  13.135 -0.6769  0.3797  0.0090
18219TIP3    H176072   5.713   6.507  13.072 -2.1086  0.5161  0.2751
18219TIP3    H276073   5.808   6.622  13.098  1.6259 -2.6076  0.8988
18220TIP3   OH276074   2.375   0.066   6.330 -0.1176  0.0558 -0.3020
18220TIP3    H176075   2.442   0.008   6.294 -0.7316  0.4479 -2.1052
18220TIP3    H276076   2.418   0.107   6.405  1.3010 -0.5317 -0.7676
18221TIP3   OH276077   3.061   2.406   4.200  0.0678  0.2794 -0.1581
18221TIP3    H176078   3.053   2.494   4.164  1.1645  1.3285  2.0936
18221TIP3    H276079   2.979   2.392   4.248 -0.5467 -0.3564 -1.3568
18222TIP3   OH276080   4.465   1.587  13.940 -0.2342  0.1875  0.7198
18222TIP3    H176081   4.418   1.660  13.900 -2.2144  0.5361  3.5476
18222TIP3    H276082   4.397   1.527  13.970  1.3874 -3.1651 -2.0292
18223TIP3   OH276083   6.111   2.650   5.159 -0.3019  0.0254  0.3391
18223TIP3    H176084   6.140   2.739   5.142  0.5601 -0.2611  0.2525
18223TIP3    H276085   6.053   2.629   5.086  0.8784 -0.0918 -0.5892
18224TIP3   OH276086   6.391   2.328   3.540  0.3879 -0.0970 -0.6559
18224TIP3    H176087   6.397   2.401   3.603 -0.3382  0.7060 -1.5017
18224TIP3    H276088   6.482   2.313   3.514  0.7514 -0.7440  0.9219
18225TIP3   OH276089   0.083   2.162   2.030  0.6528  0.0764  0.4435
18225TIP3    H176090   0.178   2.167   2.022  0.6461 -0.3450  0.0554
18225TIP3    H276091   0.054   2.253   2.040  1.0091  0.2900 -0.4739
18226TIP3   OH276092   0.940   3.497   6.408  0.1056 -0.0547 -0.1281
18226TIP3    H176093   1.031   3.521   6.394  0.1703 -1.6239 -2.9400
18226TIP3    H276094   0.928   3.419   6.353 -2.7281 -0.2796  0.7393
18227TIP3   OH276095   3.695   5.898   5.591  0.1650  0.1395  0.0784
18227TIP3    H176096   3.704   5.921   5.683 -0.9836 -2.1233  0.7819
18227TIP3    H276097   3.750   5.820   5.580 -1.3798 -0.8875 -0.6215
18228TIP3   OH276098   2.341   1.392   3.255  0.6430 -0.1969  0.2362
18228TIP3    H176099   2.257   1.424   3.221  0.8219 -0.3531 -0.3554
18228TIP3    H276100   2.348   1.432   3.341 -0.7164 -1.2907  0.8872
18229TIP3   OH276101   3.999   6.563   1.729 -0.2297  0.1742  0.5890
18229TIP3    H176102   4.006   6.527   1.817  0.0877 -0.5092  0.2920
18229TIP3    H276103   4.065   6.515   1.678 -0.7756  0.1763 -0.1412
18230TIP3   OH276104   2.784   5.338   1.873  0.2182 -0.1285  0.3958
18230TIP3    H176105   2.809   5.246   1.885  0.4581 -0.0495  0.4911
18230TIP3    H276106   2.780   5.373   1.962  2.0462  0.4711  0.2512
18231TIP3   OH276107   3.033   5.715  14.633 -0.5199 -0.2734  0.2180
18231TIP3    H176108   3.026   5.770  14.711 -2.0408 -0.0778 -0.0474
18231TIP3    H276109   3.096   5.648  14.657 -0.3185  0.2951  1.3173
18232TIP3   OH276110   0.606   4.535   3.964 -0.1283 -0.0846  0.0597
18232TIP3    H176111   0.670   4.472   3.997 -0.2322 -1.2573 -1.8686
18232TIP3    H276112   0.533   4.481   3.933 -1.6633  1.1821  1.3502
18233TIP3   OH276113   1.798   1.694   5.270  0.0376  0.7320  0.1279
18233TIP3    H176114   1.784   1.747   5.192  1.5202 -0.8304 -1.2412
18233TIP3    H276115   1.892   1.702   5.288  0.4186 -1.8907 -0.4933
18234TIP3   OH276116   3.663   2.045  12.567 -0.0527 -0.3491 -0.1034
18234TIP3    H176117   3.747   2.078  12.598 -0.7129 -1.4472  2.9876
18234TIP3    H276118   3.678   2.024  12.475  2.8240  0.1436  0.2178
18235TIP3   OH276119   4.356   3.818  15.699 -0.0647  0.1255  0.0492
18235TIP3    H176120   4.328   3.841  15.787 -0.0951 -1.7807  0.5623
18235TIP3    H276121   4.449   3.800  15.707  0.2223  1.2568 -0.5956
18236TIP3   OH276122   3.051   1.346  16.362 -0.4795 -0.5165 -0.6026
18236TIP3    H176123   3.078   1.269  16.313 -1.0916 -2.1903  1.6208
18236TIP3    H276124   2.959   1.331  16.383 -0.3093  0.2832  0.7848
18237TIP3   OH276125   6.680   1.632  16.854  0.0292 -0.1768 -0.3504
18237TIP3    H176126   6.709   1.668  16.771 -0.5418  0.5304 -0.2473
18237TIP3    H276127   6.688   1.704  16.916  3.0129 -1.4252  0.7981
18238TIP3   OH276128   4.673   1.986   4.413  0.5799  0.8666 -0.4393
18238TIP3    H176129   4.748   2.027   4.458 -0.5779  0.8956  1.5371
18238TIP3    H276130   4.650   2.048   4.344  0.6671  2.2080  0.6929
18239TIP3   OH276131   4.066   1.999   0.104 -0.2100  0.1235 -0.0086
18239TIP3    H176132   4.053   2.015   0.198  0.0710  1.0867 -0.1353
18239TIP3    H276133   3.978   1.976   0.072 -0.5580  1.1160  0.2295
18240TIP3   OH276134   3.335   4.241   2.259  0.6425  0.0980 -0.1211
18240TIP3    H176135   3.323   4.147   2.242 -0.1098  0.5753 -2.3252
18240TIP3    H276136   3.346   4.280   2.172  2.7494  1.8278  0.8778
18241TIP3   OH276137   2.456   6.574  13.317  0.0615 -0.2177  0.2229
18241TIP3    H176138   2.377   6.549  13.270 -0.0231 -0.3142  0.4149
18241TIP3    H276139   2.435   6.660  13.355  0.4933  0.3419 -0.7756
18242TIP3   OH276140   0.776   1.614   5.632 -0.4390 -0.1639 -0.0811
18242TIP3    H176141   0.783   1.520   5.616  2.6506  0.1179 -0.7194
18242TIP3    H276142   0.782   1.654   5.545 -0.7840  0.6785  0.2714
18243TIP3   OH276143   0.811   0.549   6.446  0.4393  0.4353 -0.1765
18243TIP3    H176144   0.892   0.538   6.496  1.1850  1.7323 -1.0837
18243TIP3    H276145   0.792   0.642   6.449 -0.0495  0.3964 -1.4602
18244TIP3   OH276146   4.270   3.623  16.481 -0.0667 -0.0310 -0.4349
18244TIP3    H176147   4.251   3.669  16.399 -2.3327 -1.9417 -1.0196
18244TIP3    H276148   4.247   3.686  16.549 -0.9006  0.5346 -1.2318
18245TIP3   OH276149   4.976   6.303  13.161  0.4762  0.0439 -0.7049
18245TIP3    H176150   4.946   6.262  13.242  0.1693  0.2986 -0.6853
18245TIP3    H276151   5.066   6.329  13.179  0.5736 -0.3485 -0.6179
18246TIP3   OH276152   5.384   1.745   4.218  0.6056 -0.6684 -0.2815
18246TIP3    H176153   5.358   1.799   4.143  1.5510 -1.5454 -1.2567
18246TIP3    H276154   5.468   1.782   4.246 -1.1036  1.4834  2.1897
18247TIP3   OH276155   6.756   0.116  14.015 -0.3288  0.5523 -0.3920
18247TIP3    H176156   6.713   0.075  13.940  1.3575 -0.5288 -0.7990
18247TIP3    H276157   6.722   0.070  14.092 -1.7112  1.3527 -0.5041
18248TIP3   OH276158   5.297   0.948   5.625  0.3575 -0.3317 -0.2760
18248TIP3    H176159   5.268   0.997   5.701 -0.1064 -0.5184 -0.3307
18248TIP3    H276160   5.340   0.870   5.661  2.1796  0.6937 -0.1618
18249TIP3   OH276161   1.289   4.986  13.448  0.1568 -0.2854  0.2980
18249TIP3    H176162   1.371   4.939  13.468  0.3735 -0.2627 -0.5162
18249TIP3    H276163   1.227   4.916  13.427 -0.3743 -0.3721  2.0968
18250TIP3   OH276164   5.224   0.461   1.708 -0.4060  0.3931 -0.2102
18250TIP3    H176165   5.294   0.397   1.715 -1.5122 -0.5739  3.0263
18250TIP3    H276166   5.144   0.411   1.723 -1.3753  2.3040  1.2572
18251TIP3   OH276167   3.741   0.170   3.256 -0.0415  0.1554  0.4060
18251TIP3    H176168   3.799   0.188   3.182 -2.7931  0.9222 -1.6412
18251TIP3    H276169   3.755   0.244   3.316  0.7215  0.5811 -0.2970
18252TIP3   OH276170   6.590   2.783   2.646 -0.1867 -0.6047 -0.4973
18252TIP3    H176171   6.640   2.740   2.576  1.9319  3.3288 -1.5995
18252TIP3    H276172   6.499   2.781   2.616  0.1634 -2.3439 -1.5165
18253TIP3   OH276173   6.457   6.595  14.348  0.0821 -0.1703  0.2804
18253TIP3    H176174   6.411   6.675  14.373  0.8743 -0.0020  1.2200
18253TIP3    H276175   6.415   6.568  14.266 -0.9207  0.5970  0.5318
18254TIP3   OH276176   0.027   4.960   0.706 -0.0326  0.3144 -0.3724
18254TIP3    H176177  -0.063   4.991   0.722  1.1205  2.5630  2.2421
18254TIP3    H276178   0.057   5.012   0.632  0.2362  2.0921  0.9370
18255TIP3   OH276179   6.550   0.178   6.389  0.0992 -0.0588  0.0994
18255TIP3    H176180   6.494   0.154   6.315 -1.2287 -0.9935  1.3664
18255TIP3    H276181   6.507   0.254   6.428  0.9031  0.5538 -0.2234
18256TIP3   OH276182   0.436   2.886  12.652 -0.1147  0.2702 -0.5274
18256TIP3    H176183   0.528   2.899  12.672  0.0938 -0.1262 -1.2205
18256TIP3    H276184   0.431   2.886  12.557 -1.1087  2.1469 -0.5005
18257TIP3   OH276185   6.018   3.078   3.493  0.9047  0.0371  0.3189
18257TIP3    H176186   6.052   3.148   3.548  0.3440 -0.4356  1.2772
18257TIP3    H276187   6.063   2.999   3.524 -0.5925 -0.4887  1.1733
18258TIP3   OH276188   4.333   5.133   3.966 -0.5485 -0.2991  0.1331
18258TIP3    H176189   4.320   5.059   4.025  0.3265 -2.5214 -2.3613
18258TIP3    H276190   4.246   5.168   3.950 -0.8154  0.2519  2.5572
18259TIP3   OH276191   0.942   6.740  12.234  0.3676  0.4647 -0.0120
18259TIP3    H176192   1.001   6.812  12.257  0.2602  0.5961 -0.1422
18259TIP3    H276193   0.951   6.732  12.139 -1.0191  1.5484 -0.2558
18260TIP3   OH276194   5.609   2.109  10.811  0.1638  0.4709 -0.6320
18260TIP3    H176195   5.614   2.188  10.757  0.0175  0.8852 -0.0489
18260TIP3    H276196   5.655   2.042  10.761  0.8981  1.1091 -0.8180
18261TIP3   OH276197   0.129   0.457  16.459  0.1430  0.1293  0.3390
18261TIP3    H176198   0.073   0.501  16.395 -1.2053 -1.5055  0.3498
18261TIP3    H276199   0.208   0.435  16.411  0.0950  1.0017 -0.1381
18262TIP3   OH276200   3.939   0.876   3.360  0.2861  0.3096  0.2374
18262TIP3    H176201   3.870   0.811   3.346  0.4887  0.3176 -0.8060
18262TIP3    H276202   3.963   0.865   3.452 -0.0348 -0.7476  0.2089
18263TIP3   OH276203   0.676   4.196   0.238  0.1158 -0.0430 -0.0176
18263TIP3    H176204   0.629   4.223   0.317 -0.6573 -0.0065 -0.4836
18263TIP3    H276205   0.734   4.126   0.268  0.1538  0.2806  0.6722
18264TIP3   OH276206   0.320   4.500   4.946 -0.7838  0.4282 -0.4019
18264TIP3    H176207   0.372   4.509   5.026  0.2500 -0.8520 -0.9153
18264TIP3    H276208   0.304   4.591   4.918  0.6725  0.8527  0.0878
18265TIP3   OH276209   5.694   4.846   1.768  0.3203  0.0391  0.5311
18265TIP3    H176210   5.646   4.900   1.830 -1.1389  0.4866 -0.9564
18265TIP3    H276211   5.642   4.766   1.761  0.7138 -0.1921  0.2273
18266TIP3   OH276212   4.198   0.641  11.498  0.1254  0.0520  0.1205
18266TIP3    H176213   4.244   0.558  11.487  0.0528  0.0683 -0.2993
18266TIP3    H276214   4.251   0.689  11.562  1.1774  0.4241 -1.0022
18267TIP3   OH276215   4.599   0.619  16.998  0.1826 -0.5066 -0.7963
18267TIP3    H176216   4.625   0.528  17.011 -1.7688 -0.9348  0.3744
18267TIP3    H276217   4.516   0.614  16.952  0.3110  0.7179 -1.1827
18268TIP3   OH276218   2.115   3.438  16.339  0.0871 -0.5647  0.4946
18268TIP3    H176219   2.170   3.368  16.374  0.8116  0.0380  0.5687
18268TIP3    H276220   2.034   3.433  16.391  0.2986 -1.0711  0.7869
18269TIP3   OH276221   2.210   1.805  16.040  0.3981  0.5648  0.7234
18269TIP3    H176222   2.210   1.758  16.123  1.5710  1.5607  1.2867
18269TIP3    H276223   2.282   1.866  16.046 -0.1713  1.3956 -0.6159
18270TIP3   OH276224   5.863   0.679  17.129  0.1877  0.2590 -0.4082
18270TIP3    H176225   5.878   0.622  17.205 -1.3605  0.8226  0.3295
18270TIP3    H276226   5.951   0.709  17.105  0.6507  0.4341  1.4380
18271TIP3   OH276227   0.264   1.490  13.346 -0.0697  0.0961  0.1786
18271TIP3    H176228   0.226   1.559  13.291 -1.7548 -0.5863  0.4562
18271TIP3    H276229   0.208   1.488  13.424  0.3838 -1.1203  0.4818
18272TIP3   OH276230   5.146   6.681  14.243 -0.0627  0.4292 -0.2292
18272TIP3    H176231   5.050   6.684  14.244 -0.1099 -0.6221 -0.1721
18272TIP3    H276232   5.172   6.702  14.332 -0.2120  1.2647 -0.3775
18273TIP3   OH276233   1.345   0.867  16.270  0.5733 -0.1462 -0.5074
18273TIP3    H176234   1.275   0.904  16.324  2.0878 -0.1725  1.5484
18273TIP3    H276235   1.386   0.943  16.229  0.8534  0.0982  0.2090
18274TIP3   OH276236   3.125   2.598  11.178  0.4961  0.3499 -0.2098
18274TIP3    H176237   3.050   2.546  11.205 -0.1902  1.2611 -0.3270
18274TIP3    H276238   3.089   2.685  11.159  1.4923  0.6577 -0.7718
18275TIP3   OH276239   6.275   6.368  16.254 -0.5267 -0.8243 -0.2229
18275TIP3    H176240   6.326   6.292  16.281  4.0690  1.9572 -0.4994
18275TIP3    H276241   6.261   6.355  16.160  0.2046 -1.3687 -0.2568
18276TIP3   OH276242   0.009   5.094   5.762  0.3738  0.3187 -0.4152
18276TIP3    H176243  -0.054   5.065   5.828  0.3223 -1.3183 -1.1418
18276TIP3    H276244   0.088   5.115   5.812 -0.4332  1.4644  0.3976
18277TIP3   OH276245   6.250   0.746   5.209 -0.3757 -0.2919 -0.2644
18277TIP3    H176246   6.162   0.780   5.227 -0.7158 -1.1914 -0.2105
18277TIP3    H276247   6.304   0.824   5.197 -1.1238  0.2672 -0.0121
18278TIP3   OH276248   1.835   2.804  14.643 -0.5122 -0.5024  0.0476
18278TIP3    H176249   1.775   2.735  14.669  0.4006 -2.2116 -2.2370
18278TIP3    H276250   1.781   2.866  14.595 -0.5937 -1.7061 -1.4332
18279TIP3   OH276251   1.044   1.572  13.802  0.2358  0.0302 -0.1786
18279TIP3    H176252   1.056   1.645  13.864 -1.1712 -1.2426  1.6503
18279TIP3    H276253   1.013   1.500  13.857  0.1317 -1.4909 -2.2153
18280TIP3   OH276254   3.884   5.438  12.558 -0.5759 -0.1412  0.0763
18280TIP3    H176255   3.842   5.401  12.636 -0.9287 -0.3771 -0.2229
18280TIP3    H276256   3.900   5.530  12.581 -1.6044  0.0473  0.0564
18281TIP3   OH276257   0.195   4.658   3.939 -0.1943 -0.6346 -0.2830
18281TIP3    H176258   0.174   4.725   3.874 -1.1807 -0.4130  0.2537
18281TIP3    H276259   0.110   4.622   3.964 -0.0333  0.7819  2.4801
18282TIP3   OH276260   4.212   1.969   0.606  0.0336  0.0495 -0.5497
18282TIP3    H176261   4.189   1.993   0.696 -1.1453  1.2063 -1.1510
18282TIP3    H276262   4.280   1.902   0.616  0.1581  0.4097  1.1965
18283TIP3   OH276263   4.102   1.197   0.111 -0.6224 -0.0369  0.1592
18283TIP3    H176264   4.170   1.265   0.106 -0.5730  0.2179  3.3047
18283TIP3    H276265   4.151   1.115   0.120 -0.6809  0.1000  1.9447
18284TIP3   OH276266   6.302   1.574   1.654  0.2770  0.0107  0.0689
18284TIP3    H176267   6.352   1.627   1.715 -0.7320  1.6345 -0.4927
18284TIP3    H276268   6.213   1.574   1.688 -0.4816  1.6339 -1.8096
18285TIP3   OH276269   3.323   1.360  12.483  0.8158  0.5150  0.1645
18285TIP3    H176270   3.391   1.426  12.473  2.1781 -1.0242 -1.0840
18285TIP3    H276271   3.315   1.346  12.577  1.2912  1.6464  0.3737
18286TIP3   OH276272   5.357   0.592   3.363 -0.1879 -0.7382 -0.0796
18286TIP3    H176273   5.287   0.597   3.298 -0.4478  3.2671  0.3927
18286TIP3    H276274   5.437   0.592   3.312 -0.4149  1.5812 -0.4848
18287TIP3   OH276275   6.281   5.966  14.488  0.6883  0.4852 -0.0442
18287TIP3    H176276   6.202   6.000  14.529  1.5806  0.4213  1.7861
18287TIP3    H276277   6.314   6.039  14.436  0.0993  0.9162  0.1771
18288TIP3   OH276278   4.269   3.953   3.712 -0.4622 -0.1809  0.1972
18288TIP3    H176279   4.314   3.963   3.628 -2.1974 -2.3565 -1.0310
18288TIP3    H276280   4.223   4.037   3.724  0.2532  0.3562 -0.7252
18289TIP3   OH276281   1.214   4.202   4.371  0.1485  1.0481  0.4547
18289TIP3    H176282   1.284   4.144   4.402 -1.3378 -1.7061 -1.1103
18289TIP3    H276283   1.135   4.164   4.408 -1.0374  1.0912 -1.9670
18290TIP3   OH276284   0.760   6.717   2.460 -0.5007 -0.0567 -0.6112
18290TIP3    H176285   0.846   6.760   2.455 -1.3163  1.9380  1.6293
18290TIP3    H276286   0.706   6.765   2.397 -0.3507 -0.3661 -0.9740
18291TIP3   OH276287   4.539   6.356  15.513  0.1205 -0.6600 -0.5201
18291TIP3    H176288   4.500   6.269  15.506 -0.4413 -0.3701 -1.0979
18291TIP3    H276289   4.503   6.404  15.439  0.4831  0.0433 -0.2441
18292TIP3   OH276290   4.531   2.036  15.189  0.4421  0.0523 -0.4903
18292TIP3    H176291   4.566   1.960  15.142  0.7003  1.5650 -2.8432
18292TIP3    H276292   4.494   2.091  15.120  0.5789  2.2342  1.1422
18293TIP3   OH276293   5.296   2.908  13.720  0.3641  0.0770 -0.5579
18293TIP3    H176294   5.304   2.982  13.781 -1.0100 -0.7939  0.6798
18293TIP3    H276295   5.240   2.845  13.765 -0.8896 -0.4751 -2.8232
18294TIP3   OH276296   5.006   1.827   2.512  0.6651  0.0672  0.2946
18294TIP3    H176297   5.061   1.826   2.590  1.1902  1.7730 -0.0339
18294TIP3    H276298   4.926   1.873   2.539 -0.0036 -1.1214  0.3723
18295TIP3   OH276299   5.463   5.622  17.225  0.1920  0.4137 -0.0042
18295TIP3    H176300   5.443   5.715  17.213 -0.4895  0.0540 -1.7400
18295TIP3    H276301   5.381   5.584  17.256  0.0910  0.1494 -0.5958
18296TIP3   OH276302   2.786   2.766  13.263  0.6111 -0.5678  0.4186
18296TIP3    H176303   2.799   2.792  13.172 -2.1044 -0.5047  0.0190
18296TIP3    H276304   2.873   2.772  13.302  1.2386  2.5689 -1.3306
18297TIP3   OH276305   6.231   5.493   4.590  0.3577 -0.5080 -0.1493
18297TIP3    H176306   6.307   5.550   4.597 -0.0787  0.0615  0.0068
18297TIP3    H276307   6.188   5.521   4.509  0.3049 -0.8166 -0.2297
18298TIP3   OH276308   4.203   4.164  12.424 -0.0487 -0.1139  0.0053
18298TIP3    H176309   4.265   4.232  12.397 -0.6874  0.4113 -0.1612
18298TIP3    H276310   4.123   4.212  12.447 -0.2628 -0.7457  0.6207
18299TIP3   OH276311   1.101   1.613   0.739  0.3029 -0.5787  0.0631
18299TIP3    H176312   1.022   1.574   0.776 -0.8216  0.9845 -0.6531
18299TIP3    H276313   1.082   1.624   0.646  1.0571  0.5641  0.0294
18300TIP3   OH276314   4.700   0.355  16.625  0.0937 -0.1938  0.3295
18300TIP3    H176315   4.773   0.368  16.564 -0.4026  0.2039 -0.1772
18300TIP3    H276316   4.712   0.425  16.690 -0.6249  0.7253 -0.5182
18301TIP3   OH276317   5.631   3.095   0.385  0.0661 -0.6063 -0.6801
18301TIP3    H176318   5.710   3.069   0.336 -0.3639 -1.3109 -1.0214
18301TIP3    H276319   5.659   3.169   0.439  1.2296 -1.4992 -0.0227
18302TIP3   OH276320   6.256   6.501   2.850  0.2062 -0.0581 -0.1132
18302TIP3    H176321   6.202   6.474   2.775  1.4421 -2.1861 -0.2636
18302TIP3    H276322   6.343   6.516   2.813  0.2367  1.3423  0.4890
18303TIP3   OH276323   3.074   5.037   0.901 -0.1937  0.4098  0.0840
18303TIP3    H176324   3.016   4.961   0.900 -2.4491  2.0335  0.6086
18303TIP3    H276325   3.113   5.039   0.813 -2.2149  0.1608 -0.8518
18304TIP3   OH276326   4.846   4.085   5.147  0.6537 -0.4947 -0.9486
18304TIP3    H176327   4.907   4.100   5.219 -1.3815 -0.9759  0.9536
18304TIP3    H276328   4.840   3.990   5.139  0.2080 -0.4526 -1.1549
18305TIP3   OH276329   5.285   0.917   0.464 -0.2369  0.1470 -0.6061
18305TIP3    H176330   5.200   0.883   0.434 -0.2729 -0.7182  0.4346
18305TIP3    H276331   5.323   0.957   0.386 -2.0051  1.3792 -0.8818
18306TIP3   OH276332   1.114   1.600   4.400 -0.3151 -0.2968 -0.4408
18306TIP3    H176333   1.130   1.556   4.317  0.5065  0.2369 -0.5747
18306TIP3    H276334   1.157   1.545   4.465  0.3338  0.0738 -0.5544
18307TIP3   OH276335   0.254   0.658   6.171 -0.0015  0.6521  0.1429
18307TIP3    H176336   0.266   0.680   6.264 -1.1590 -0.5848  0.6127
18307TIP3    H276337   0.184   0.592   6.171  1.4634 -0.9633 -1.4245
18308TIP3   OH276338   5.975   1.562  15.927  0.2585 -0.5238  0.4348
18308TIP3    H176339   5.953   1.635  15.869  0.3872 -1.1991 -0.4829
18308TIP3    H276340   6.030   1.600  15.995 -0.5780  0.4415  0.5840
18309TIP3   OH276341   3.132   3.552   1.941 -0.1520 -0.1836 -0.1644
18309TIP3    H176342   3.200   3.556   1.874  0.7258 -1.0926  0.6475
18309TIP3    H276343   3.136   3.462   1.973  0.7735  0.7119  2.4342
18310TIP3   OH276344   5.455   1.647   5.671  0.0721  0.6937 -0.2734
18310TIP3    H176345   5.401   1.706   5.724  0.2715  1.6682 -1.1389
18310TIP3    H276346   5.540   1.646   5.715 -0.9212 -1.7318  1.7454
18311TIP3   OH276347   1.864   3.246   5.502  0.3437  0.0086 -0.2830
18311TIP3    H176348   1.828   3.301   5.572  0.6979 -0.4571  0.2762
18311TIP3    H276349   1.952   3.225   5.532  1.4340  1.8735 -2.0622
18312TIP3   OH276350   0.619   4.969   3.544  0.8451  0.7121 -0.1825
18312TIP3    H176351   0.691   4.991   3.485  1.1520  0.4994  0.1062
18312TIP3    H276352   0.559   4.917   3.490 -0.2594  2.8516 -1.0694
18313TIP3   OH276353   6.032   3.688   5.654 -0.2297  0.1383 -0.2980
18313TIP3    H176354   5.997   3.767   5.696  1.2225 -0.0535  1.2735
18313TIP3    H276355   5.954   3.642   5.622 -1.4922 -0.3866  3.3629
18314TIP3   OH276356   1.491   4.127   5.812 -0.3607 -0.6684  0.5632
18314TIP3    H176357   1.409   4.106   5.857 -0.4694  0.7618  1.0526
18314TIP3    H276358   1.553   4.062   5.845 -1.0424 -1.1389  0.9413
18315TIP3   OH276359   0.376   2.947  11.703  0.5273  0.2972  0.4263
18315TIP3    H176360   0.358   3.039  11.724 -1.9887 -0.0367 -0.1111
18315TIP3    H276361   0.297   2.900  11.732  0.4408 -1.2509 -2.2139
18316TIP3   OH276362   5.074   4.259   1.999  0.2167 -0.5477 -1.4832
18316TIP3    H176363   5.023   4.209   2.061 -0.7989 -0.0412 -1.9018
18316TIP3    H276364   5.143   4.299   2.052 -1.0744  0.4776 -0.5439
18317TIP3   OH276365   4.839   4.771   3.464 -0.2438 -0.2292  0.0163
18317TIP3    H176366   4.854   4.786   3.558 -0.2783 -0.6409  0.0923
18317TIP3    H276367   4.758   4.818   3.445  0.3886  0.8368 -0.0775
18318TIP3   OH276368   3.469   2.041   4.158 -0.0279 -0.3578 -0.2540
18318TIP3    H176369   3.464   2.009   4.248  0.0910  1.8017  0.5493
18318TIP3    H276370   3.430   1.971   4.106  2.6747 -3.0147  1.0875
18319TIP3   OH276371   3.494   5.583  15.265 -0.3797  0.1184  0.8139
18319TIP3    H176372   3.529   5.599  15.178 -2.9884  3.3523  0.2432
18319TIP3    H276373   3.421   5.522  15.252 -0.7684  0.6008  0.7196
18320TIP3   OH276374   2.607   0.418   3.468  0.7771 -0.4918 -0.5900
18320TIP3    H176375   2.682   0.455   3.421  0.0159  0.5498 -1.0165
18320TIP3    H276376   2.569   0.355   3.407 -0.3358  1.0120 -1.5127
18321TIP3   OH276377   2.363   1.406   2.951  0.1485 -0.0061  0.2971
18321TIP3    H176378   2.345   1.460   2.874  2.9066  1.6799  0.7586
18321TIP3    H276379   2.400   1.325   2.915  1.4452  0.7829 -0.1640
18322TIP3   OH276380   2.593   2.881  13.456 -0.6976  0.0298 -0.6115
18322TIP3    H176381   2.664   2.941  13.479 -2.0131  1.0965  0.7652
18322TIP3    H276382   2.629   2.829  13.384  1.5863  0.3198  0.2645
18323TIP3   OH276383   0.589   3.928   3.324 -0.2534 -0.3864 -0.5863
18323TIP3    H176384   0.542   3.995   3.373 -0.7167 -0.9344 -0.2807
18323TIP3    H276385   0.681   3.952   3.335 -0.4496  0.7462 -1.2779
18324TIP3   OH276386   3.232   3.672  12.236  0.2341  0.2217 -0.2443
18324TIP3    H176387   3.266   3.747  12.186 -0.4485 -0.2591 -1.4546
18324TIP3    H276388   3.246   3.597  12.179  0.6198 -0.5402  0.8383
18325TIP3   OH276389   0.130   1.681  14.598  0.0552  0.3278  0.1122
18325TIP3    H176390   0.150   1.739  14.525 -1.8661 -0.9726 -1.4983
18325TIP3    H276391   0.161   1.595  14.569 -2.5740 -0.6100 -0.1043
18326TIP3   OH276392   2.909   3.959   3.971 -0.1118 -0.5010 -0.1329
18326TIP3    H176393   2.839   3.918   3.922 -1.1995 -1.3540  2.0758
18326TIP3    H276394   2.968   3.887   3.995  0.3554 -0.1146 -0.0993
18327TIP3   OH276395   4.609   2.420   0.190 -0.1546  0.0795  0.0341
18327TIP3    H176396   4.535   2.479   0.204 -0.5627 -0.4092 -0.0421
18327TIP3    H276397   4.669   2.469   0.135  1.2346  1.8603  3.0287
18328TIP3   OH276398   6.159   4.107  16.710 -0.7513 -0.2822  0.0801
18328TIP3    H176399   6.109   4.058  16.776  0.4360 -2.0368 -0.3008
18328TIP3    H276400   6.144   4.198  16.733 -2.5783 -0.8082  1.1374
18329TIP3   OH276401   4.733   2.658   1.651 -0.0755 -0.7970  0.0402
18329TIP3    H176402   4.673   2.703   1.712 -0.0879  0.9394 -1.2206
18329TIP3    H276403   4.705   2.687   1.564  2.3814 -0.2396 -0.5916
18330TIP3   OH276404   1.140   2.906   3.937 -0.1573 -0.3006  0.4583
18330TIP3    H176405   1.109   2.996   3.952 -1.0069 -0.4227 -0.5187
18330TIP3    H276406   1.060   2.855   3.926  0.3744 -0.7683 -1.3532
18331TIP3   OH276407   3.078   3.145  11.939 -0.0048  0.5329 -0.2127
18331TIP3    H176408   3.136   3.209  11.897 -0.1255  0.2829 -0.7559
18331TIP3    H276409   2.990   3.181  11.927 -0.0660  0.3008 -0.4499
18332TIP3   OH276410   5.646   1.334   3.468  0.2104  0.0947  0.0708
18332TIP3    H176411   5.653   1.303   3.378  0.5616 -0.4514  0.2872
18332TIP3    H276412   5.733   1.320   3.505  0.1290  0.5368  0.4267
18333TIP3   OH276413   1.163   2.304   3.242 -0.2147  0.2161 -0.0967
18333TIP3    H176414   1.138   2.395   3.259 -0.0812  0.5834 -1.7489
18333TIP3    H276415   1.181   2.267   3.328 -1.2555  1.4707  0.6640
18334TIP3   OH276416   2.482   2.801   3.621 -0.6047 -0.0082  0.1448
18334TIP3    H176417   2.519   2.775   3.537 -0.3946 -1.8272  0.7819
18334TIP3    H276418   2.467   2.719   3.667 -0.0570  0.9881  2.1717
18335TIP3   OH276419   1.480   1.178   6.464  0.3307  0.0461 -0.3475
18335TIP3    H176420   1.393   1.145   6.487  0.3449  0.2940  0.0801
18335TIP3    H276421   1.463   1.265   6.427  0.3736 -0.0131 -0.5033
18336TIP3   OH276422   3.289   3.512  13.983  0.6718  0.3266  0.2330
18336TIP3    H176423   3.351   3.523  14.055  1.1519 -0.5524 -0.0336
18336TIP3    H276424   3.284   3.417  13.971  0.5872  0.4701 -0.8904
18337TIP3   OH276425   6.230   0.978  10.989  0.2285  0.4470 -0.6602
18337TIP3    H176426   6.310   1.021  10.961  1.3405 -0.7955  0.5278
18337TIP3    H276427   6.209   1.018  11.073 -0.1028  0.4002 -0.7188
18338TIP3   OH276428   0.171   5.570   6.268 -0.0784 -0.0224 -0.0987
18338TIP3    H176429   0.262   5.544   6.263  0.1639  0.7449  0.2097
18338TIP3    H276430   0.167   5.631   6.342 -0.7006  0.5172 -0.5705
18339TIP3   OH276431   6.734   1.854   2.584 -0.3740 -0.1053 -0.2190
18339TIP3    H176432   6.822   1.848   2.622 -1.4818 -1.1556  2.2975
18339TIP3    H276433   6.700   1.765   2.585 -1.3101  0.2058 -1.6263
18340TIP3   OH276434   6.294   3.160  12.674 -0.2276  0.3013  0.1967
18340TIP3    H176435   6.304   3.184  12.582 -1.4080  0.7566  0.1721
18340TIP3    H276436   6.378   3.182  12.714  1.7713 -3.7457 -1.5601
18341TIP3   OH276437   2.946   6.487   1.274  0.3809  0.0098  0.2043
18341TIP3    H176438   2.932   6.576   1.307  0.6440  0.5891 -1.1627
18341TIP3    H276439   2.942   6.497   1.179  0.1725 -1.4943  0.0469
18342TIP3   OH276440   5.477   1.238   4.691  0.6754 -0.2037 -0.2795
18342TIP3    H176441   5.476   1.328   4.722  0.1338 -0.0555 -0.7140
18342TIP3    H276442   5.547   1.236   4.625 -0.1022  0.1978 -1.1276
18343TIP3   OH276443   0.886   5.558  16.041  0.2399  0.1666 -0.3679
18343TIP3    H176444   0.981   5.553  16.048  0.0182  0.0192  4.5344
18343TIP3    H276445   0.857   5.467  16.035  0.3158  0.0821  0.5014
18344TIP3   OH276446   6.327   5.359   0.081  0.2357 -0.1327 -0.0146
18344TIP3    H176447   6.378   5.437   0.061 -0.2070  0.1943  0.1274
18344TIP3    H276448   6.381   5.286   0.049  1.4331  0.1024  1.4211
18345TIP3   OH276449   2.708   5.497   2.401  0.4189  0.0757 -0.5366
18345TIP3    H176450   2.721   5.562   2.470 -2.2756  1.6085 -1.3882
18345TIP3    H276451   2.746   5.417   2.436 -0.8190  0.8505  2.7088
18346TIP3   OH276452   4.788   4.597   2.968 -0.3113 -0.1920  0.4490
18346TIP3    H176453   4.709   4.639   3.003 -0.4245 -0.0114 -0.0204
18346TIP3    H276454   4.846   4.589   3.044  0.5090  2.6473  0.1891
18347TIP3   OH276455   1.308   5.199   2.164 -0.1360  0.3021 -0.3425
18347TIP3    H176456   1.313   5.212   2.258  0.4984  0.3010 -0.3760
18347TIP3    H276457   1.387   5.242   2.129 -1.4002  2.1498 -1.0591
18348TIP3   OH276458   5.566   6.654  14.549  0.3292  0.1465  0.2623
18348TIP3    H176459   5.531   6.589  14.610 -1.5100  0.2491 -0.6430
18348TIP3    H276460   5.637   6.608  14.504 -1.5455 -1.5908 -1.0294
18349TIP3   OH276461   2.741   6.373   0.909 -0.1898  0.0691 -0.3093
18349TIP3    H176462   2.782   6.305   0.855  0.8252 -0.1086  0.6581
18349TIP3    H276463   2.670   6.408   0.855  0.6028 -0.3281 -1.6164
18350TIP3   OH276464   6.486   5.229   4.557  0.1403  0.4823  0.2651
18350TIP3    H176465   6.499   5.276   4.475 -0.0896 -2.1447 -1.3574
18350TIP3    H276466   6.431   5.287   4.610 -0.5324  1.8203 -1.8400
18351TIP3   OH276467   6.550   4.068  10.980  0.3394 -0.4412  0.3410
18351TIP3    H176468   6.563   4.015  10.902  0.0865 -0.2189  0.1476
18351TIP3    H276469   6.635   4.068  11.024  0.6007 -0.1804 -0.1715
18352TIP3   OH276470   6.418   1.949   3.093  0.4116 -0.7591  0.2893
18352TIP3    H176471   6.418   1.872   3.150  0.6683 -0.8925  0.1149
18352TIP3    H276472   6.475   1.923   3.019  1.4691  0.0371  0.8130
18353TIP3   OH276473   2.416   3.359  15.330 -0.5103  0.1348 -0.0793
18353TIP3    H176474   2.429   3.419  15.256 -1.1642  0.7541  0.2999
18353TIP3    H276475   2.491   3.375  15.387 -0.7489  0.6931  0.0828
18354TIP3   OH276476   4.920   6.446   6.178  0.0668  0.1683  0.0463
18354TIP3    H176477   4.850   6.458   6.242  0.6753  1.2284  0.5106
18354TIP3    H276478   4.986   6.394   6.224 -0.5925 -1.2159 -0.5336
18355TIP3   OH276479   6.582   2.692   1.353 -0.4763 -0.3277 -0.1334
18355TIP3    H176480   6.509   2.688   1.415 -0.5203 -0.0964 -0.1695
18355TIP3    H276481   6.620   2.779   1.367  0.3012 -0.7596  0.4607
18356TIP3   OH276482   1.871   4.020  16.717 -0.7784 -0.2321  0.4691
18356TIP3    H176483   1.866   3.974  16.634 -1.3872  1.3878 -0.4083
18356TIP3    H276484   1.789   3.998  16.762 -1.6359  0.9888 -0.4829
18357TIP3   OH276485   3.617   6.265   1.776  0.1096 -0.0309 -0.0676
18357TIP3    H176486   3.651   6.250   1.688  1.5679 -0.5759  0.5692
18357TIP3    H276487   3.694   6.292   1.827 -0.5462 -0.5432  1.2241
18358TIP3   OH276488   4.996   5.355  12.597 -0.1913 -0.3560 -0.2472
18358TIP3    H176489   4.938   5.294  12.551 -0.2083 -1.3352  1.0313
18358TIP3    H276490   4.951   5.371  12.681 -0.1882  1.4244 -0.5703
18359TIP3   OH276491   3.819   4.317   0.128 -0.1306 -0.4370  0.6006
18359TIP3    H176492   3.726   4.306   0.148 -0.3379  0.2444  0.0353
18359TIP3    H276493   3.820   4.369   0.047  0.6995 -2.6690 -0.8492
18360TIP3   OH276494   6.109   5.155  14.606  0.6005  0.0533 -0.0674
18360TIP3    H176495   6.026   5.136  14.650  0.6747 -0.3561 -0.1021
18360TIP3    H276496   6.173   5.103  14.654  0.2688 -2.6259 -2.4098
18361TIP3   OH276497   2.628   0.481  13.456  0.3758 -0.2110 -0.2083
18361TIP3    H176498   2.658   0.391  13.469  0.6276 -0.1096 -0.0875
18361TIP3    H276499   2.567   0.476  13.382 -0.2285 -0.6117  0.3143
18362TIP3   OH276500   6.682   5.829  11.769 -0.5147  0.8501 -0.0252
18362TIP3    H176501   6.600   5.865  11.734 -0.8338  0.0204 -0.1430
18362TIP3    H276502   6.656   5.783  11.849 -0.3839 -0.5614 -0.7712
18363TIP3   OH276503   2.560   3.024  13.901 -0.1561  0.1834 -0.5483
18363TIP3    H176504   2.509   3.019  13.820 -1.1280  0.5270  0.0290
18363TIP3    H276505   2.511   2.970  13.964  0.0180  0.7519  0.0900
18364TIP3   OH276506   2.605   6.582  12.772 -0.0486  0.0388  0.1377
18364TIP3    H176507   2.630   6.610  12.860 -0.1671 -1.4808  0.6841
18364TIP3    H276508   2.551   6.652  12.738  0.1236  0.7089  1.2252
18365TIP3   OH276509   3.493   1.216  12.276 -0.2833  0.4758 -0.0665
18365TIP3    H176510   3.463   1.294  12.322 -0.4242  0.9176 -0.8855
18365TIP3    H276511   3.549   1.250  12.206 -1.5003 -0.0618 -1.3149
18366TIP3   OH276512   3.615   5.484   2.697 -0.4454 -0.3139  0.0766
18366TIP3    H176513   3.632   5.416   2.633 -0.1805 -0.7080  0.5616
18366TIP3    H276514   3.558   5.442   2.762  0.5016 -0.3544  0.8821
18367TIP3   OH276515   0.699   2.515   0.551 -0.0587  0.1185  0.5973
18367TIP3    H176516   0.637   2.457   0.508  0.4454 -0.7970  1.0980
18367TIP3    H276517   0.742   2.460   0.616 -1.0039  1.5539  2.4657
18368TIP3   OH276518   3.568   0.759  12.392  0.0404 -0.0952 -0.0592
18368TIP3    H176519   3.474   0.738  12.388 -0.6201  2.7532 -0.7364
18368TIP3    H276520   3.598   0.751  12.302  0.3145 -0.4087  0.0599
18369TIP3   OH276521   5.921   6.733  14.090  0.6886  0.6601  0.0034
18369TIP3    H176522   6.011   6.735  14.057  0.7581 -0.4056  0.1219
18369TIP3    H276523   5.879   6.662  14.041  0.0148  0.9013  0.2210
18370TIP3   OH276524   4.392   6.649   3.640 -0.1659  0.2080  0.1362
18370TIP3    H176525   4.384   6.577   3.578 -0.6173 -1.5871  2.2093
18370TIP3    H276526   4.302   6.662   3.672 -0.4630  3.0897 -1.7020
18371TIP3   OH276527   2.311   1.084   3.828  0.2785 -0.7618 -0.3150
18371TIP3    H176528   2.317   1.006   3.885  3.2083  0.0339  0.5754
18371TIP3    H276529   2.256   1.145   3.877 -0.7547 -1.6876 -0.3051
18372TIP3   OH276530   3.486   2.771  12.584 -0.4372 -0.8331  0.0976
18372TIP3    H176531   3.435   2.761  12.503 -0.0892  1.6134 -0.4718
18372TIP3    H276532   3.425   2.810  12.646  0.2789  0.7224 -0.1371
18373TIP3   OH276533   5.807   1.770   3.619 -0.3937 -0.8181  0.2467
18373TIP3    H176534   5.855   1.834   3.672  2.4487 -1.7853 -1.0214
18373TIP3    H276535   5.771   1.821   3.547  2.4780 -0.6583 -1.1644
18374TIP3   OH276536   3.608   0.352   4.850 -0.9479  0.2347  0.2182
18374TIP3    H176537   3.538   0.352   4.785 -1.7516 -0.6847  1.0806
18374TIP3    H276538   3.634   0.260   4.858  0.9764  0.6637 -0.7432
18375TIP3   OH276539   2.216   2.215   1.759  0.2828  0.0344 -0.1467
18375TIP3    H176540   2.132   2.224   1.803  0.0760  0.5490 -0.6462
18375TIP3    H276541   2.266   2.293   1.785  1.4414 -1.3498  1.9437
18376TIP3   OH276542   5.457   1.875  15.944 -0.1619 -0.2307  0.2783
18376TIP3    H176543   5.461   1.962  15.982  0.5980  1.0386 -2.5760
18376TIP3    H276544   5.395   1.883  15.872 -1.4723 -2.5156  1.1197
18377TIP3   OH276545   0.611   1.164  10.997  0.7344  0.2607 -0.4779
18377TIP3    H176546   0.603   1.210  10.913  2.1949 -0.6493 -1.1260
18377TIP3    H276547   0.695   1.119  10.992  1.5605  1.4489  2.1166
18378TIP3   OH276548   3.861   5.432   2.166 -0.4684 -0.0530  0.2600
18378TIP3    H176549   3.802   5.470   2.100 -0.0816 -2.2872 -1.4595
18378TIP3    H276550   3.803   5.386   2.226 -0.5504 -2.8887 -1.8539
18379TIP3   OH276551   3.288   6.338   0.233  0.4680 -0.2277  0.0858
18379TIP3    H176552   3.271   6.428   0.261 -0.1477 -0.4558  0.4627
18379TIP3    H276553   3.365   6.344   0.177  1.3199  0.3233  1.3091
18380TIP3   OH276554   1.412   5.811  14.636  0.1522  0.3948  0.8415
18380TIP3    H176555   1.392   5.886  14.580  0.7827 -0.0717 -0.0218
18380TIP3    H276556   1.367   5.830  14.718  0.3690  1.7676  0.6654
18381TIP3   OH276557   6.189   2.783   4.324 -0.1086  0.2684 -0.3213
18381TIP3    H176558   6.176   2.854   4.387  1.7291  0.5348 -0.2194
18381TIP3    H276559   6.101   2.750   4.308 -0.8615  1.7291  0.6068
18382TIP3   OH276560   6.509   4.535   5.458 -0.4914 -0.1613  0.3185
18382TIP3    H176561   6.524   4.481   5.381 -0.3491 -1.0646  0.9736
18382TIP3    H276562   6.572   4.607   5.449 -1.0220  0.1776 -0.8029
18383TIP3   OH276563   3.017   0.477   0.565  0.0779  0.1110 -0.5656
18383TIP3    H176564   2.936   0.427   0.565 -0.7497  1.4376 -1.2942
18383TIP3    H276565   3.007   0.540   0.494  1.1965  1.1715  0.1907
18384TIP3   OH276566   4.673   3.221   1.527  0.6039  0.7752  0.3908
18384TIP3    H176567   4.719   3.288   1.578  1.1951  1.6745 -1.2962
18384TIP3    H276568   4.595   3.266   1.494  0.3454  0.2669  0.3090
18385TIP3   OH276569   1.532   0.305  15.762 -0.3928  0.2161 -0.3779
18385TIP3    H176570   1.451   0.291  15.713 -0.2454  0.8762 -0.8157
18385TIP3    H276571   1.542   0.400  15.766  0.5541  0.1325 -0.6545
18386TIP3   OH276572   0.037   5.104  15.229  0.1931  0.3575 -0.1541
18386TIP3    H176573   0.040   5.049  15.307  0.3033 -0.4964 -0.7506
18386TIP3    H276574   0.122   5.150  15.229  0.2977  0.1640  0.0825
18387TIP3   OH276575   1.092   6.367   2.642 -0.0542  0.2491 -0.9603
18387TIP3    H176576   1.055   6.282   2.665  1.5941 -0.3356 -0.3995
18387TIP3    H276577   1.124   6.356   2.552 -0.6246  0.5446 -1.2009
18388TIP3   OH276578   1.413   1.343  15.876 -0.2644 -0.6323 -0.1010
18388TIP3    H176579   1.344   1.328  15.941 -0.4141 -0.9926 -0.3400
18388TIP3    H276580   1.365   1.352  15.793 -0.0571 -0.4088 -0.1958
18389TIP3   OH276581   3.007   2.223   4.629 -0.1637  0.0534 -0.5399
18389TIP3    H176582   2.989   2.142   4.678 -0.5054  1.1428  1.1649
18389TIP3    H276583   3.043   2.192   4.546  1.6984 -1.8057  0.8892
18390TIP3   OH276584   5.240   0.959  16.104  0.1984  0.2650  0.3684
18390TIP3    H176585   5.186   0.887  16.138  2.8437 -1.7734  0.3929
18390TIP3    H276586   5.320   0.916  16.074 -0.1475  2.5638 -4.2375
18391TIP3   OH276587   6.708   6.580   0.691  0.0822  0.1815  0.3054
18391TIP3    H176588   6.718   6.539   0.777 -1.2701  1.7351  1.2308
18391TIP3    H276589   6.728   6.672   0.706 -1.4809  0.7029 -0.7483
18392TIP3   OH276590   5.076   6.094  16.159  0.1400  0.5319  0.5543
18392TIP3    H176591   5.044   6.054  16.239 -1.3692 -1.6462 -1.0803
18392TIP3    H276592   5.142   6.033  16.126 -0.2250  0.7235 -0.5604
18393TIP3   OH276593   2.962   2.799   0.575 -0.1129  0.1578  0.5579
18393TIP3    H176594   2.889   2.779   0.634  0.1230  1.0217  1.1595
18393TIP3    H276595   3.033   2.742   0.605  0.5064  1.7069  2.1554
18394TIP3   OH276596   1.825   4.159  14.302  0.9327  1.0915 -0.0414
18394TIP3    H176597   1.770   4.129  14.230  1.8239 -2.5431  0.6920
18394TIP3    H276598   1.906   4.188  14.260  1.1531 -0.2848 -0.6031
18395TIP3   OH276599   6.358   5.517   3.915 -0.4298  0.5012 -0.2542
18395TIP3    H176600   6.396   5.430   3.922 -0.7984  0.0737 -2.9238
18395TIP3    H276601   6.278   5.504   3.864  0.9130  2.7484 -3.1082
18396TIP3   OH276602   2.231   1.699  11.758  0.3007 -0.1101 -0.2936
18396TIP3    H176603   2.242   1.663  11.846  1.3104 -0.5023 -0.5729
18396TIP3    H276604   2.166   1.768  11.768  0.1731 -0.3709  0.7017
18397TIP3   OH276605   1.951   5.338   5.612  0.0246 -0.1804 -0.2533
18397TIP3    H176606   1.935   5.297   5.527  1.6636  2.2036 -1.7501
18397TIP3    H276607   1.987   5.267   5.666  1.1739 -1.1614 -2.2542
18398TIP3   OH276608   3.164   3.283   4.077  0.0628 -0.3666  0.3370
18398TIP3    H176609   3.144   3.191   4.055  1.0819 -0.7313  0.9172
18398TIP3    H276610   3.223   3.312   4.008  1.5010 -0.8313  1.3637
18399TIP3   OH276611   5.723   6.663  16.962 -0.0236 -0.1449  0.0057
18399TIP3    H176612   5.817   6.645  16.972 -0.6475 -2.7600  1.6599
18399TIP3    H276613   5.716   6.698  16.873  2.7316  1.8467  0.4864
18400TIP3   OH276614   1.513   4.869   1.079  0.1797 -0.6810  1.0101
18400TIP3    H176615   1.602   4.836   1.068  0.2280 -0.9156  2.0557
18400TIP3    H276616   1.522   4.945   1.137 -0.0997  0.3083 -0.2346
18401TIP3   OH276617   4.759   6.486  11.542 -0.2630 -0.1758 -0.3491
18401TIP3    H176618   4.732   6.400  11.510  0.4469 -0.4976 -0.0806
18401TIP3    H276619   4.813   6.522  11.472  0.2455 -0.3513 -0.0439
18402TIP3   OH276620   3.860   0.019   6.431  0.2101 -0.5080 -0.4951
18402TIP3    H176621   3.849   0.089   6.496  0.6807 -1.0803  0.2088
18402TIP3    H276622   3.951   0.025   6.405  0.7428 -1.9977  0.9123
18403TIP3   OH276623   1.591   6.297   1.929 -0.0137 -0.0467  0.1764
18403TIP3    H176624   1.633   6.286   2.014 -0.5435 -1.3303  0.2791
18403TIP3    H276625   1.557   6.211   1.907 -3.0655  1.0662  0.3234
18404TIP3   OH276626   5.420   2.632   4.319  0.1568 -0.3316  0.4723
18404TIP3    H176627   5.483   2.668   4.256  0.4456  0.5463  1.2393
18404TIP3    H276628   5.458   2.548   4.345 -0.1804 -0.8980 -0.8313
18405TIP3   OH276629   4.637   6.609   1.240 -0.0533 -0.1166 -0.5453
18405TIP3    H176630   4.658   6.702   1.232 -0.2514 -0.1599 -1.6932
18405TIP3    H276631   4.653   6.588   1.331 -2.9230  1.7722  0.4727
18406TIP3   OH276632   6.469   3.538   2.111  0.7973 -0.1636 -0.1847
18406TIP3    H176633   6.444   3.625   2.142 -0.8809 -0.8010  0.3399
18406TIP3    H276634   6.425   3.478   2.172  0.8379 -1.3881 -1.3476
18407TIP3   OH276635   0.130   0.566   2.135  0.4337  0.4625  0.2625
18407TIP3    H176636   0.137   0.494   2.072 -1.9495 -1.9355  2.5891
18407TIP3    H276637   0.186   0.539   2.208 -0.6819  0.8084  1.2625
18408TIP3   OH276638   2.721   2.804  15.849  0.2230  0.0289  0.5424
18408TIP3    H176639   2.771   2.857  15.911  0.9939  0.3674 -0.3552
18408TIP3    H276640   2.786   2.776  15.784 -0.6292 -0.0963 -0.2631
18409TIP3   OH276641   4.277   1.825  14.730 -0.0141  0.2203 -0.1677
18409TIP3    H176642   4.195   1.844  14.775  0.5603  0.3641  0.8380
18409TIP3    H276643   4.332   1.902  14.747  0.6806 -0.3150  0.0142
18410TIP3   OH276644   3.106   4.901   3.978  0.6616 -0.9290  0.0671
18410TIP3    H176645   3.182   4.947   3.942 -0.2409  1.1358  0.7308
18410TIP3    H276646   3.050   4.886   3.902  1.2287 -1.4662 -0.2508
18411TIP3   OH276647   2.031   2.599  16.891 -0.4256 -0.5314 -0.2507
18411TIP3    H176648   2.076   2.678  16.919  0.0547 -1.5275  1.9077
18411TIP3    H276649   1.997   2.560  16.972  1.0817 -3.5738 -0.9960
18412TIP3   OH276650   0.329   0.209  11.172  0.3775 -0.0139 -0.2002
18412TIP3    H176651   0.338   0.228  11.265 -2.4396  2.2300 -0.3226
18412TIP3    H276652   0.391   0.269  11.130 -0.5160  1.1187  0.0783
18413TIP3   OH276653   2.725   2.133  11.851  0.1299  0.4203  0.2120
18413TIP3    H176654   2.736   2.220  11.890 -0.2341  0.3516  0.4752
18413TIP3    H276655   2.640   2.137  11.808  1.2133  1.0114 -1.9429
18414TIP3   OH276656   2.075   6.681  11.069 -0.0873 -0.0589 -0.4105
18414TIP3    H176657   2.140   6.610  11.068 -0.3110 -0.2892  1.2592
18414TIP3    H276658   1.992   6.638  11.046 -0.2958 -0.4143  0.9974
18415TIP3   OH276659   6.562   3.730  14.049 -0.2460 -0.0087 -0.6570
18415TIP3    H176660   6.623   3.717  14.121  0.1675  0.9280 -0.8235
18415TIP3    H276661   6.617   3.726  13.970 -0.3580  1.0384 -0.7969
18416TIP3   OH276662   2.464   3.492  10.821  0.0950  0.1534 -0.2622
18416TIP3    H176663   2.503   3.424  10.765 -1.1537 -0.3856 -0.4971
18416TIP3    H276664   2.424   3.554  10.760  1.9641  1.5650 -0.0719
18417TIP3   OH276665   3.136   1.354   1.249  0.2871  0.4518  0.1690
18417TIP3    H176666   3.096   1.438   1.228 -0.5042  0.4863  1.7885
18417TIP3    H276667   3.200   1.374   1.317  0.5329 -0.1635  0.1219
18418TIP3   OH276668   1.237   0.668   3.719  0.0432  0.6491 -0.5400
18418TIP3    H176669   1.219   0.653   3.812 -0.3088  0.1955 -0.6809
18418TIP3    H276670   1.163   0.719   3.687 -0.6536 -0.5985 -0.9499
18419TIP3   OH276671   3.103   2.144   4.390  0.0929  0.2031  0.5799
18419TIP3    H176672   3.117   2.229   4.349  0.6227  0.3962  1.1565
18419TIP3    H276673   3.115   2.081   4.318  0.9758  0.5428  0.4236
18420TIP3   OH276674   4.242   2.452  14.591  0.0004  0.7918 -0.0009
18420TIP3    H176675   4.212   2.524  14.536  1.9390  0.9583 -0.8746
18420TIP3    H276676   4.198   2.466  14.675 -1.6205  1.5296 -0.9476
18421TIP3   OH276677   1.902   6.662   3.237 -0.0826  0.1383 -0.5178
18421TIP3    H176678   1.872   6.571   3.237  1.0860 -0.2536  0.4731
18421TIP3    H276679   1.824   6.712   3.214 -1.3110 -0.9267  1.2202
18422TIP3   OH276680   6.683   3.617   3.121 -0.2065 -0.0073  0.1608
18422TIP3    H176681   6.627   3.688   3.154 -0.4417 -0.4706  0.7531
18422TIP3    H276682   6.772   3.653   3.127 -0.3103  0.1822  0.6242
18423TIP3   OH276683   1.881   1.073  11.007  0.2315 -0.3439  0.1832
18423TIP3    H176684   1.865   0.981  11.026 -0.5779 -0.4314 -0.8553
18423TIP3    H276685   1.794   1.108  10.986  0.2866  1.0381  2.1526
18424TIP3   OH276686   4.049   1.581  16.312  0.3420  0.1601  0.0576
18424TIP3    H176687   4.060   1.488  16.293  1.3522  0.3467 -0.2783
18424TIP3    H276688   4.052   1.624  16.227 -2.5044  0.2917 -0.0273
18425TIP3   OH276689   4.960   4.727   0.664  0.2027 -0.5825  0.2548
18425TIP3    H176690   4.915   4.644   0.647 -0.6306 -0.0742 -0.0516
18425TIP3    H276691   4.910   4.768   0.734  0.6403 -0.3470  0.4333
18426TIP3   OH276692   2.661   0.868  14.217 -0.4582  0.1187  0.5961
18426TIP3    H176693   2.573   0.899  14.196  0.0165  0.4724 -0.9598
18426TIP3    H276694   2.715   0.946  14.215  0.3520 -0.4663 -1.1358
18427TIP3   OH276695   2.841   3.326   6.277  0.0980  0.3766  0.6963
18427TIP3    H176696   2.801   3.347   6.362 -0.3806  0.3272  0.4842
18427TIP3    H276697   2.798   3.385   6.216  0.3367  0.3048  0.4616
18428TIP3   OH276698   6.313   1.100  14.247 -0.1475  0.4472  0.3576
18428TIP3    H176699   6.285   1.018  14.289 -0.6632  0.4353 -0.0192
18428TIP3    H276700   6.273   1.169  14.300  0.0403  0.4511  0.4940
18429TIP3   OH276701   1.310   4.355   5.952  0.2744 -0.0878  0.1791
18429TIP3    H176702   1.216   4.356   5.965  0.1955  1.8658 -0.3821
18429TIP3    H276703   1.339   4.271   5.989 -1.6724 -0.7305  0.2757
18430TIP3   OH276704   6.018   3.613   6.010 -0.4205  0.6282 -0.0026
18430TIP3    H176705   6.005   3.638   6.102 -0.8574  0.5166 -0.0351
18430TIP3    H276706   6.040   3.696   5.967  1.0921  0.4757  0.4385
18431TIP3   OH276707   0.599   4.590  16.353  0.2088  0.1256  0.0906
18431TIP3    H176708   0.513   4.549  16.345 -2.2508  4.7635  1.1350
18431TIP3    H276709   0.621   4.580  16.445  1.2208 -1.7249 -0.3234
18432TIP3   OH276710   6.415   3.456  12.215  0.6213  0.0324  0.7999
18432TIP3    H176711   6.424   3.374  12.264 -1.7497  0.7269  2.4853
18432TIP3    H276712   6.354   3.436  12.145 -1.6054  0.8156  2.4462
18433TIP3   OH276713   4.623   0.640   4.037  0.5748 -0.6714  0.4676
18433TIP3    H176714   4.566   0.629   4.113 -1.3105 -0.4515 -0.8823
18433TIP3    H276715   4.702   0.681   4.073 -1.1063  1.3649  2.0036
18434TIP3   OH276716   3.347   5.675   0.325  0.4585  0.0508  0.4275
18434TIP3    H176717   3.261   5.633   0.321 -0.6328  2.2676 -0.1586
18434TIP3    H276718   3.405   5.606   0.356 -1.2049 -1.9912 -0.7891
18435TIP3   OH276719   3.477   4.317  13.989  0.4988 -0.2555  0.7402
18435TIP3    H176720   3.419   4.287  13.919 -0.0385  0.8513  0.7024
18435TIP3    H276721   3.462   4.255  14.061 -0.7395  0.0325  0.7380
18436TIP3   OH276722   5.965   5.834   2.587 -0.7411  0.0114  0.3479
18436TIP3    H176723   5.901   5.905   2.591  0.6149  1.4075 -1.6827
18436TIP3    H276724   6.044   5.874   2.552  0.5543 -2.1743  0.6551
18437TIP3   OH276725   4.971   4.624  16.730 -0.6126 -0.1597 -1.0621
18437TIP3    H176726   5.063   4.600  16.719  0.0793  1.6422  0.3884
18437TIP3    H276727   4.945   4.658  16.644  0.9516  1.9522 -0.7592
18438TIP3   OH276728   4.921   4.174   3.427  0.0893  0.1324 -0.4204
18438TIP3    H176729   4.892   4.134   3.345 -1.5260 -2.3463  1.2851
18438TIP3    H276730   5.002   4.126   3.449  0.2079  0.3887 -0.3018
18439TIP3   OH276731   1.549   3.145  15.851 -0.4440  0.2543 -0.4235
18439TIP3    H176732   1.517   3.110  15.934  1.1525  1.2552  0.6480
18439TIP3    H276733   1.481   3.206  15.823 -0.2989  1.0781  0.9603
18440TIP3   OH276734   3.619   3.500  16.648  0.0388  0.1912 -0.4081
18440TIP3    H176735   3.609   3.432  16.715  0.7413  2.7387  2.3557
18440TIP3    H276736   3.531   3.510  16.611 -0.5715 -0.6037  0.7864
18441TIP3   OH276737   5.546   5.865   3.905 -0.0857 -0.0368 -0.5951
18441TIP3    H176738   5.631   5.872   3.948 -0.1893 -1.3250 -0.1471
18441TIP3    H276739   5.537   5.772   3.885  0.0515  0.5551 -3.6058
18442TIP3   OH276740   1.333   5.571   3.241 -0.0768  0.0671 -0.4236
18442TIP3    H176741   1.256   5.514   3.243  0.8018 -1.1598 -0.7027
18442TIP3    H276742   1.339   5.607   3.329 -0.0887 -1.0632  0.0495
18443TIP3   OH276743   6.606   5.429  14.603  0.0051 -0.6682  0.0100
18443TIP3    H176744   6.525   5.449  14.648  1.3941  0.0970  2.2641
18443TIP3    H276745   6.604   5.334  14.590 -0.9267 -0.7437  0.6568
18444TIP3   OH276746   3.879   4.596  15.178  0.3688  0.1793  0.0291
18444TIP3    H176747   3.808   4.589  15.114 -0.2807  1.3447  0.6197
18444TIP3    H276748   3.938   4.523  15.156 -1.3297 -1.2030 -0.0302
18445TIP3   OH276749   4.010   1.270  14.685  0.0419 -0.0006 -0.0458
18445TIP3    H176750   4.104   1.275  14.700  0.2142 -0.3327 -0.9497
18445TIP3    H276751   3.996   1.181  14.651 -0.4635  0.3529 -0.7740
18446TIP3   OH276752   3.261   3.935   5.284  0.2939  0.5118 -0.3171
18446TIP3    H176753   3.268   4.028   5.262  0.7347  0.6042  0.2059
18446TIP3    H276754   3.316   3.925   5.362 -1.3296  0.1929  0.8000
18447TIP3   OH276755   6.294   2.950   3.251  0.0719  0.6344 -0.5342
18447TIP3    H176756   6.357   3.021   3.246 -1.0219  1.6350 -0.2554
18447TIP3    H276757   6.214   2.985   3.213 -0.6781 -0.2162  0.2158
18448TIP3   OH276758   6.450   1.395  16.712  0.4541  0.6745 -0.3761
18448TIP3    H176759   6.478   1.320  16.764  1.7085  0.5504 -1.2060
18448TIP3    H276760   6.424   1.461  16.776 -0.5323 -0.4161  0.3604
18449TIP3   OH276761   1.452   4.269   4.694 -0.5428  0.5027  0.4625
18449TIP3    H176762   1.505   4.191   4.709 -0.8372 -0.2598 -2.1970
18449TIP3    H276763   1.516   4.337   4.674 -0.4580 -0.3508 -2.4559
18450TIP3   OH276764   4.715   6.566   3.373 -0.5739  0.0367 -0.1291
18450TIP3    H176765   4.670   6.540   3.453  1.2345 -0.4672  0.7546
18450TIP3    H276766   4.662   6.530   3.302 -0.7456 -1.8467  0.9291
18451TIP3   OH276767   1.260   3.269  15.250 -0.0295 -0.2341 -0.3247
18451TIP3    H176768   1.167   3.289  15.235  0.6855  1.7871 -2.4688
18451TIP3    H276769   1.273   3.185  15.206 -0.6116 -0.0032 -0.9538
18452TIP3   OH276770   2.541   3.101  14.999  0.2230 -0.2520 -0.0757
18452TIP3    H176771   2.497   3.153  14.933 -1.3254 -0.8842  0.4487
18452TIP3    H276772   2.479   3.095  15.071  0.4203 -2.7326 -0.0845
18453TIP3   OH276773   4.161   3.395   0.983 -0.6393 -0.1677  0.1035
18453TIP3    H176774   4.222   3.340   0.934 -0.3931 -0.2773  0.5332
18453TIP3    H276775   4.084   3.341   0.995 -0.6572 -0.1805 -0.0675
18454TIP3   OH276776   2.052   5.042   1.266 -0.0766  0.5635  0.0092
18454TIP3    H176777   2.022   5.123   1.306 -2.0425 -1.2763  2.4557
18454TIP3    H276778   2.038   4.975   1.334  0.5758 -1.9737 -2.2642
18455TIP3   OH276779   1.227   4.856   1.738  0.0204 -0.3052  0.2848
18455TIP3    H176780   1.193   4.782   1.687 -0.8761 -1.0601  1.9448
18455TIP3    H276781   1.163   4.868   1.808  0.6752  1.4189  0.6024
18456TIP3   OH276782   0.944   4.598  17.143  0.3025  0.3164 -0.3396
18456TIP3    H176783   0.981   4.521  17.100  0.8448  1.4869 -2.0199
18456TIP3    H276784   0.853   4.600  17.113  0.5418  0.8460 -1.0373
18457TIP3   OH276785   2.915   3.044   2.451 -0.7591  0.5366 -0.0940
18457TIP3    H176786   2.826   3.048   2.415 -0.6240 -2.4343 -0.8382
18457TIP3    H276787   2.972   3.056   2.375 -0.4925  1.0757  0.1853
18458TIP3   OH276788   4.500   0.689  10.169  0.1092  0.2412  0.9266
18458TIP3    H176789   4.470   0.616  10.224 -2.1608  0.1711 -0.3642
18458TIP3    H276790   4.479   0.662  10.080  1.6245  1.3695  0.2231
18459TIP3   OH276791   6.147   4.253   3.804 -0.0562  0.0257 -0.0137
18459TIP3    H176792   6.189   4.276   3.722 -0.8799 -0.0168 -0.4541
18459TIP3    H276793   6.192   4.306   3.870 -0.6032  1.4257 -0.7461
18460TIP3   OH276794   1.646   2.985  14.522  0.0355 -0.4164  0.1802
18460TIP3    H176795   1.677   2.986  14.431  0.6001 -3.3355  0.2909
18460TIP3    H276796   1.565   2.934  14.519 -0.4737  0.3139  1.1838
18461TIP3   OH276797   5.628   3.160   0.665  0.1606 -0.5276 -0.2323
18461TIP3    H176798   5.699   3.151   0.728 -1.5747 -1.3049  1.6609
18461TIP3    H276799   5.595   3.248   0.678  0.3919 -0.3624 -0.7287
18462TIP3   OH276800   5.155   3.699   4.964 -0.6102  0.5311 -0.8690
18462TIP3    H176801   5.158   3.729   5.055 -0.8537 -0.8609 -0.3956
18462TIP3    H276802   5.236   3.650   4.952 -0.8305  0.2582 -1.2484
18463TIP3   OH276803   0.513   5.675  12.190 -0.2405 -0.2168  0.2900
18463TIP3    H176804   0.436   5.683  12.247  0.1430 -0.8369  0.9038
18463TIP3    H276805   0.551   5.763  12.189 -1.4267  0.2944 -0.6913
18464TIP3   OH276806   5.468   0.067   1.779 -0.2182  0.0769 -0.5203
18464TIP3    H176807   5.422   0.133   1.831  1.2576  1.3026 -0.7053
18464TIP3    H276808   5.414  -0.012   1.786 -0.9218  0.6947  1.4858
18465TIP3   OH276809   4.301   6.188  13.063  0.1764 -0.2071  0.2531
18465TIP3    H176810   4.257   6.242  12.997  0.4954  0.5241  0.6275
18465TIP3    H276811   4.252   6.205  13.144 -0.9116 -1.9597 -0.0153
18466TIP3   OH276812   3.892   5.349   0.509 -0.4740  0.0645 -0.4172
18466TIP3    H176813   3.867   5.261   0.483  0.1045 -0.2811  0.1942
18466TIP3    H276814   3.872   5.354   0.602  1.6032 -0.1946  0.0764
18467TIP3   OH276815   1.404   1.017   2.959 -0.0242  0.4848  0.1304
18467TIP3    H176816   1.444   1.018   3.046  0.1710 -1.0977  0.0820
18467TIP3    H276817   1.478   1.018   2.898 -0.1189  0.1670  0.0076
18468TIP3   OH276818   2.792   1.071  13.252 -0.3818 -0.3840  0.5035
18468TIP3    H176819   2.882   1.102  13.241 -0.6781  0.2324 -0.2181
18468TIP3    H276820   2.794   1.021  13.333  0.8269 -1.1969 -0.0143
18469TIP3   OH276821   4.742   0.717  14.219  0.6945  0.2303 -0.3977
18469TIP3    H176822   4.743   0.622  14.223 -0.3439  0.1472 -1.7154
18469TIP3    H276823   4.666   0.738  14.165  1.5968  1.7612 -1.1068
18470TIP3   OH276824   5.046   0.547  13.309  0.3270 -0.1890 -1.0559
18470TIP3    H176825   5.021   0.454  13.313 -1.4549  0.3530  1.0913
18470TIP3    H276826   5.102   0.561  13.384 -1.9933  1.1740  0.4877
18471TIP3   OH276827   0.231   3.074   2.185  0.4125  0.1060  0.5926
18471TIP3    H176828   0.292   3.148   2.187 -0.7668  1.0469  3.9266
18471TIP3    H276829   0.186   3.077   2.270 -0.4766 -3.7674  0.3257
18472TIP3   OH276830   6.087   0.209  13.838  0.0311  0.2793 -0.2376
18472TIP3    H176831   6.110   0.127  13.881  0.0326  0.5639  0.3007
18472TIP3    H276832   6.041   0.182  13.758  2.6647 -0.3121 -1.6063
18473TIP3   OH276833   0.406   1.745  14.309 -0.5783 -0.5478 -0.4654
18473TIP3    H176834   0.470   1.720  14.376 -0.0565  0.6830 -0.4898
18473TIP3    H276835   0.348   1.669  14.302 -0.1219 -1.0241  0.7596
18474TIP3   OH276836   2.153   2.387  16.268  0.1006 -0.0063  0.0462
18474TIP3    H176837   2.137   2.334  16.190 -1.4157  0.7499 -0.1739
18474TIP3    H276838   2.221   2.340  16.315  2.4753  0.5714 -2.7096
18475TIP3   OH276839   0.726   4.205   3.138  0.8413 -0.5998  0.6199
18475TIP3    H176840   0.707   4.259   3.061  3.3338 -0.2538  0.2121
18475TIP3    H276841   0.700   4.260   3.212  0.5677 -0.0239  0.1103
18476TIP3   OH276842   3.037   3.690  13.432 -0.6292  0.2371  0.6903
18476TIP3    H176843   3.047   3.775  13.475  1.1109  0.1865  0.4370
18476TIP3    H276844   2.992   3.710  13.350 -0.4437  0.8813  0.7400
18477TIP3   OH276845   4.657   5.350  13.120 -0.3014 -0.0039  0.2576
18477TIP3    H176846   4.572   5.309  13.134 -0.2348  0.6274  2.8774
18477TIP3    H276847   4.658   5.374  13.028 -2.6394 -0.7371  0.0168
18478TIP3   OH276848   4.817   4.498   3.604 -0.0668 -0.0988 -0.3471
18478TIP3    H176849   4.865   4.477   3.685  1.3768 -0.1990 -1.2150
18478TIP3    H276850   4.747   4.555   3.633  1.2410  0.9665  0.8249
18479TIP3   OH276851   5.508   1.518  14.606  0.1057  0.4681  0.1644
18479TIP3    H176852   5.463   1.507  14.522  0.6830  0.4310 -0.1360
18479TIP3    H276853   5.456   1.465  14.667  0.0034  0.0500 -0.2755
18480TIP3   OH276854   0.428   0.462  10.687  0.8834  0.1757  0.4710
18480TIP3    H176855   0.464   0.374  10.696  0.0123 -0.2872 -0.4812
18480TIP3    H276856   0.337   0.453  10.717  0.2827  0.3551 -1.2625
18481TIP3   OH276857   0.138   4.541   2.231  0.2286 -0.4731 -0.1681
18481TIP3    H176858   0.190   4.503   2.160  0.3108  2.2757 -1.6104
18481TIP3    H276859   0.201   4.591   2.283 -0.8854  2.7375 -1.8239
18482TIP3   OH276860   1.259   1.875   1.983  0.9607  0.8874 -0.5465
18482TIP3    H176861   1.175   1.919   1.969  0.0815 -1.3711 -2.7586
18482TIP3    H276862   1.316   1.911   1.915  1.0822  0.7035 -0.5422
18483TIP3   OH276863   5.076   0.934  13.113  0.3645  0.0383 -0.6253
18483TIP3    H176864   5.159   0.926  13.066  0.5467  0.5988 -0.4036
18483TIP3    H276865   5.011   0.949  13.045  0.4304 -0.5044 -0.8097
18484TIP3   OH276866   2.303   1.831  16.972  0.4123  0.1143  0.2274
18484TIP3    H176867   2.345   1.809  16.890  0.0178 -1.3014  0.3974
18484TIP3    H276868   2.225   1.776  16.975 -0.7009  1.6814  0.5717
18485TIP3   OH276869   1.930   0.596  14.742 -0.0089  0.0854  0.2627
18485TIP3    H176870   2.023   0.599  14.763  0.2382 -0.5150 -0.7116
18485TIP3    H276871   1.889   0.559  14.820  0.5600  0.3857  0.7073
18486TIP3   OH276872   2.902   5.238  11.827 -0.1493  0.2430 -0.2063
18486TIP3    H176873   2.970   5.299  11.798 -0.8131  0.7972 -0.6120
18486TIP3    H276874   2.931   5.153  11.797 -0.2469  0.6465 -1.4971
18487TIP3   OH276875   0.823   1.237  17.149 -0.0288 -0.1489  0.0109
18487TIP3    H176876   0.865   1.311  17.105  1.3442 -1.1991 -0.4734
18487TIP3    H276877   0.864   1.233  17.235 -2.9743  2.1308  1.6121
18488TIP3   OH276878   5.547   6.752  16.457 -0.1286 -0.6449  0.8085
18488TIP3    H176879   5.470   6.695  16.464 -1.2435  0.8146  0.6893
18488TIP3    H276880   5.551   6.776  16.365  1.8236 -2.5106  0.3658
18489TIP3   OH276881   4.473   0.068   3.243 -0.5861 -0.1481  0.0970
18489TIP3    H176882   4.538   0.085   3.311 -1.4806 -1.5349  1.3557
18489TIP3    H276883   4.514   0.005   3.185  0.6167  1.9038 -1.3577
18490TIP3   OH276884   0.334   2.013   5.932  0.0278 -0.1431  0.0284
18490TIP3    H176885   0.366   2.102   5.920 -0.2094 -0.2298 -1.3727
18490TIP3    H276886   0.274   2.018   6.007  1.9834  0.3384  1.5784
18491TIP3   OH276887   3.392   4.707   5.496  0.1785 -0.5702 -0.0463
18491TIP3    H176888   3.344   4.788   5.483  0.8869 -0.0204  0.6912
18491TIP3    H276889   3.483   4.735   5.510  0.5849 -1.5422 -0.6954
18492TIP3   OH276890   3.588   2.788   1.405  0.1265 -0.6152  0.7679
18492TIP3    H176891   3.666   2.828   1.442  0.1691  0.7286 -0.7411
18492TIP3    H276892   3.527   2.860   1.392  0.1167 -1.0428 -1.7631
18493TIP3   OH276893   4.179   3.979   1.537 -0.2125 -0.8044 -0.8609
18493TIP3    H176894   4.160   3.988   1.631  1.3920 -0.9309 -0.5054
18493TIP3    H276895   4.201   4.068   1.509  2.3950 -1.2436 -0.3794
18494TIP3   OH276896   1.851   4.956  13.132  0.0718 -0.1384 -0.7609
18494TIP3    H176897   1.909   4.946  13.207 -0.8032 -0.1109 -0.0781
18494TIP3    H276898   1.860   5.048  13.107 -1.5070  0.4749  0.8567
18495TIP3   OH276899   6.183   4.403  16.804  0.1345  0.1951  0.1857
18495TIP3    H176900   6.138   4.484  16.828 -0.6070 -0.2638  0.3519
18495TIP3    H276901   6.228   4.377  16.885  0.0544  0.2361  0.2439
18496TIP3   OH276902   5.774   4.098   6.342  0.0396  0.3206 -0.2468
18496TIP3    H176903   5.747   4.031   6.405 -0.9434  1.0595  0.1171
18496TIP3    H276904   5.692   4.130   6.304  0.5691  0.5755 -1.1888
18497TIP3   OH276905   3.650   3.720  13.608 -0.3588  0.7668 -0.5023
18497TIP3    H176906   3.588   3.666  13.658  1.2451 -0.2532  0.4438
18497TIP3    H276907   3.595   3.780  13.558 -2.2166 -2.0683 -1.9523
18498TIP3   OH276908   6.532   1.340   3.692 -0.1185 -0.2340  0.0118
18498TIP3    H176909   6.509   1.411   3.753 -0.6378 -0.9281  0.6368
18498TIP3    H276910   6.481   1.265   3.723  0.9867 -1.0757 -0.1979
18499TIP3   OH276911   6.458   5.424   5.692 -0.4250 -0.2127 -0.3833
18499TIP3    H176912   6.374   5.466   5.672 -0.7363 -2.0115 -3.1599
18499TIP3    H276913   6.441   5.372   5.770 -2.2596 -1.5120 -1.6022
18500TIP3   OH276914   5.371   4.918   0.399 -0.3984 -0.4449  0.2549
18500TIP3    H176915   5.365   4.984   0.330  0.2423  0.8716  1.4305
18500TIP3    H276916   5.282   4.881   0.405 -0.7251  0.2158 -0.5057
18501TIP3   OH276917   0.193   5.814   0.338  0.5365  0.7041 -0.4336
18501TIP3    H176918   0.190   5.850   0.249 -1.8536 -0.4387 -0.8709
18501TIP3    H276919   0.105   5.832   0.373  1.1150  0.1730  1.3006
18502TIP3   OH276920   0.536   5.438  16.386 -0.2105 -0.2818  0.0070
18502TIP3    H176921   0.552   5.366  16.324  0.1247 -1.4232  1.3961
18502TIP3    H276922   0.496   5.396  16.462 -0.6193  1.1074  0.5717
18503TIP3   OH276923   0.003   1.937   1.494  0.6020  0.0131 -0.5967
18503TIP3    H176924  -0.007   2.029   1.466  0.5406 -0.3126 -1.6753
18503TIP3    H276925   0.093   1.915   1.472  0.5262 -0.2730 -0.6213
18504TIP3   OH276926   5.857   2.832  12.975 -0.2114 -0.1176  0.3762
18504TIP3    H176927   5.816   2.882  13.045  0.9972 -1.3775  2.0370
18504TIP3    H276928   5.791   2.828  12.906 -1.1148  1.8479  1.0955
18505TIP3   OH276929   2.195   1.615   5.496  0.0110  0.1462  0.0163
18505TIP3    H176930   2.137   1.549   5.535 -0.3991  1.4852  1.7230
18505TIP3    H276931   2.283   1.576   5.502 -0.4676 -1.1074 -0.8895
18506TIP3   OH276932   1.068   4.843   1.967 -0.0357  0.5258 -0.2773
18506TIP3    H176933   1.089   4.883   2.052  1.1176 -0.4509 -0.0848
18506TIP3    H276934   1.013   4.768   1.988 -0.2657  0.6501 -0.4409
18507TIP3   OH276935   2.912   4.725   4.108  0.2062  0.3440 -0.3757
18507TIP3    H176936   2.963   4.745   4.029  0.3067 -0.5737 -0.5574
18507TIP3    H276937   2.914   4.629   4.113 -0.5260  0.3626  0.2664
18508TIP3   OH276938   0.020   4.831  14.463 -0.1143  0.1071  0.1064
18508TIP3    H176939  -0.017   4.745  14.448 -2.2597  1.0469 -0.1067
18508TIP3    H276940   0.071   4.850  14.384  0.6863 -1.1032  0.3227
18509TIP3   OH276941   6.685   0.808   5.342  0.0984 -0.3692 -0.0844
18509TIP3    H176942   6.742   0.815   5.418 -0.7699 -1.4114  0.6697
18509TIP3    H276943   6.697   0.719   5.309 -0.1125 -0.1803 -0.6966
18510TIP3   OH276944   3.910   6.479  13.438 -0.1508 -0.0063  0.3690
18510TIP3    H176945   3.895   6.386  13.455 -0.1273 -0.0062  0.3890
18510TIP3    H276946   3.842   6.524  13.488  1.0983  0.0849  2.0299
18511TIP3   OH276947   4.105   5.384  16.423 -0.2125 -0.0127  0.2589
18511TIP3    H176948   4.134   5.332  16.499  0.5438 -0.9629 -0.6546
18511TIP3    H276949   4.011   5.393  16.435 -0.7084 -3.3685 -0.5804
18512TIP3   OH276950   4.826   2.585   1.048  0.1323 -0.0241 -0.3119
18512TIP3    H176951   4.876   2.666   1.057  0.7513 -0.5294  0.8277
18512TIP3    H276952   4.892   2.517   1.040 -0.3809 -0.6949  1.1920
18513TIP3   OH276953   0.260   1.431   3.019 -0.3047 -0.0326 -0.1379
18513TIP3    H176954   0.186   1.490   3.007  0.3851  1.3034  1.9809
18513TIP3    H276955   0.244   1.388   3.103  1.5344  0.6125  0.5655
18514TIP3   OH276956   0.588   1.659   0.059 -0.6676  0.0933 -0.2394
18514TIP3    H176957   0.646   1.599   0.012 -1.2773 -1.6174  1.1246
18514TIP3    H276958   0.645   1.729   0.090  0.3607 -0.6188 -0.4949
18515TIP3   OH276959   0.755   5.722  14.112 -0.4326  0.5099 -0.0975
18515TIP3    H176960   0.759   5.811  14.077 -0.8860  1.6508  2.6572
18515TIP3    H276961   0.845   5.690  14.106  0.2195  2.0405  1.1023
18516TIP3   OH276962   6.151   2.913   5.071 -0.0797  0.3253 -0.3342
18516TIP3    H176963   6.067   2.956   5.086 -0.3032 -0.2263  0.0295
18516TIP3    H276964   6.204   2.935   5.148  1.0655  2.8829 -1.7657
18517TIP3   OH276965   2.251   1.242  16.082 -0.0053  0.3089 -0.5302
18517TIP3    H176966   2.178   1.277  16.132  1.0552 -2.1820  2.9942
18517TIP3    H276967   2.211   1.177  16.024 -0.8153  0.1854  0.1498
18518TIP3   OH276968   6.419   6.358   3.341  0.4098  0.7237  0.1185
18518TIP3    H176969   6.418   6.269   3.376  0.1184 -0.3309 -2.4928
18518TIP3    H276970   6.511   6.381   3.333  0.5060  0.1824 -0.3451
18519TIP3   OH276971   4.601   5.921  15.029 -0.0828 -0.3080  0.0718
18519TIP3    H176972   4.610   5.944  14.937 -1.5137 -3.6800 -0.9776
18519TIP3    H276973   4.517   5.960  15.055  0.2478  0.5126 -0.0824
18520TIP3   OH276974   2.301   1.166  12.512 -0.1395  0.5565 -0.3302
18520TIP3    H176975   2.362   1.135  12.445 -0.4029 -1.8411  0.5080
18520TIP3    H276976   2.230   1.101  12.511 -0.6360  1.0547  1.5814
18521TIP3   OH276977   5.478   6.307   1.501 -0.2252 -0.4825  0.1083
18521TIP3    H176978   5.391   6.270   1.485 -0.5917 -0.9643  2.9594
18521TIP3    H276979   5.499   6.281   1.590  1.5486  2.2207  0.5336
18522TIP3   OH276980   1.431   3.691  12.883 -0.0115  0.3095  0.0264
18522TIP3    H176981   1.491   3.699  12.809  1.8413  3.1897  1.7342
18522TIP3    H276982   1.463   3.755  12.947 -2.2315 -1.2987  2.8672
18523TIP3   OH276983   6.437   5.337   5.104  0.4038  0.3289 -0.0638
18523TIP3    H176984   6.494   5.262   5.084 -0.0223 -0.1800  0.6117
18523TIP3    H276985   6.486   5.413   5.073  0.3897 -0.3166 -1.7484
18524TIP3   OH276986   2.828   0.620  11.623 -0.2204  0.1853 -0.1258
18524TIP3    H176987   2.923   0.614  11.623 -0.2067  0.3142 -1.2533
18524TIP3    H276988   2.798   0.531  11.639  0.0918  0.1451  0.2311
18525TIP3   OH276989   3.934   0.169  13.389 -0.6543 -0.0133 -0.0705
18525TIP3    H176990   3.846   0.153  13.423 -1.2384 -2.0071 -2.4574
18525TIP3    H276991   3.926   0.250  13.339 -1.3711 -0.7216 -1.1106
18526TIP3   OH276992   5.932   0.634  16.493 -0.1231  0.4132  0.4172
18526TIP3    H176993   5.849   0.602  16.528 -0.2001  1.5217  1.2637
18526TIP3    H276994   5.908   0.707  16.436  0.4239  2.3807  2.6283
18527TIP3   OH276995   4.996   6.244   5.196 -0.3544  0.0426 -0.1491
18527TIP3    H176996   4.955   6.161   5.221 -0.7438 -0.1957 -1.5246
18527TIP3    H276997   5.050   6.268   5.271  0.3118 -1.8074 -0.0245
18528TIP3   OH276998   3.557   4.969   5.669 -0.0823 -0.4700 -0.1700
18528TIP3    H176999   3.570   4.944   5.760 -0.1325 -0.5678 -0.1891
18528TIP3    H277000   3.591   4.896   5.618 -0.6899 -0.7266 -0.2182
18529TIP3   OH277001   4.956   1.600   4.479 -0.1979 -0.3259 -0.1987
18529TIP3    H177002   5.004   1.683   4.489  2.1029 -1.3527 -1.9859
18529TIP3    H277003   4.884   1.621   4.420  1.8249 -0.0457 -2.6827
18530TIP3   OH277004   5.570   6.588   1.208  0.5275  0.5496 -0.5634
18530TIP3    H177005   5.521   6.668   1.225  0.3064  0.3798 -0.3924
18530TIP3    H277006   5.633   6.584   1.280 -0.7108 -0.4034  0.5098
18531TIP3   OH277007   1.256   4.640   3.886  0.5572 -0.1631  0.3568
18531TIP3    H177008   1.180   4.689   3.855 -0.3438 -1.5515  0.3289
18531TIP3    H277009   1.311   4.629   3.808  0.1159 -0.3834  0.0785
18532TIP3   OH277010   3.257   1.152   5.583  0.2587 -0.1270 -0.0201
18532TIP3    H177011   3.212   1.073   5.551  0.6570 -0.7841  0.9978
18532TIP3    H277012   3.321   1.118   5.646  0.9737  0.9526 -0.1705
18533TIP3   OH277013   0.099   1.687   4.546 -0.4770  0.4929  0.1385
18533TIP3    H177014   0.038   1.653   4.612 -1.4334  0.4843 -0.7377
18533TIP3    H277015   0.065   1.655   4.463  0.2195  1.2417 -0.4465
18534TIP3   OH277016   6.014   1.767   4.399  0.2178 -0.1803 -0.5694
18534TIP3    H177017   6.078   1.819   4.351 -0.5830  0.6092 -0.8047
18534TIP3    H277018   5.940   1.827   4.412  0.1073 -0.6181  0.9604
18535TIP3   OH277019   4.339   0.291  13.144  0.0576 -0.7627 -0.7905
18535TIP3    H177020   4.305   0.370  13.184  0.0740 -1.1324 -0.0441
18535TIP3    H277021   4.306   0.220  13.199  0.1963 -1.2627 -1.3455
18536TIP3   OH277022   2.793   3.387  16.853 -0.0603 -0.2721 -0.1297
18536TIP3    H177023   2.753   3.300  16.863 -1.8812  0.4849 -0.5627
18536TIP3    H277024   2.887   3.371  16.862 -0.4987 -1.9846  1.8600
18537TIP3   OH277025   3.674   1.280  12.062  0.4142  0.3301  0.3847
18537TIP3    H177026   3.671   1.247  11.972 -0.7756  0.0605  0.5098
18537TIP3    H277027   3.681   1.375  12.052 -1.2984  0.4291 -0.0174
18538TIP3   OH277028   6.114   2.543  16.811 -0.3150 -0.0377  0.1566
18538TIP3    H177029   6.118   2.517  16.719 -0.1679  0.3067  0.0638
18538TIP3    H277030   6.157   2.629  16.813 -3.2968  1.5438 -0.0323
18539TIP3   OH277031   6.729   4.418   0.561  0.5594  0.1437 -0.0628
18539TIP3    H177032   6.718   4.502   0.605  0.7351 -0.4483  1.1207
18539TIP3    H277033   6.818   4.421   0.525  0.0623  1.0216 -1.2608
18540TIP3   OH277034   6.322   2.763   3.451 -0.3538  0.2449  0.4602
18540TIP3    H177035   6.317   2.821   3.374  1.7159  0.1456  0.2382
18540TIP3    H277036   6.347   2.678   3.416  3.3773  0.8337  1.4845
18541TIP3   OH277037   5.261   2.140  14.621  0.6027 -0.3961 -0.8837
18541TIP3    H177038   5.293   2.081  14.553  3.0323  0.8863 -0.8935
18541TIP3    H277039   5.334   2.149  14.682 -0.9409 -0.1390  0.9877
18542TIP3   OH277040   3.491   6.279  16.293 -0.2073  0.2885 -0.1532
18542TIP3    H177041   3.452   6.350  16.345  0.4655  0.6125 -0.0928
18542TIP3    H277042   3.416   6.239  16.248 -0.7382  0.3199  0.6742
18543TIP3   OH277043   1.409   0.725   0.726 -0.0244  0.3730  0.2542
18543TIP3    H177044   1.325   0.698   0.762  0.0680 -0.5856 -0.2261
18543TIP3    H277045   1.400   0.710   0.631  0.6298  0.4014  0.1853
18544TIP3   OH277046   2.247   6.152   4.100  0.3231 -0.5513  0.3774
18544TIP3    H177047   2.175   6.164   4.038  1.0536 -2.8425 -0.9613
18544TIP3    H277048   2.306   6.225   4.084  0.2198 -0.8144 -1.2605
18545TIP3   OH277049   3.003   3.495   0.897 -0.1065  0.2585  0.1780
18545TIP3    H177050   2.920   3.544   0.902 -0.0168  0.2809  1.3927
18545TIP3    H277051   3.050   3.519   0.977 -0.0898 -1.8958  0.8201
18546TIP3   OH277052   3.073   4.198   3.930  0.0339 -0.1062  0.2548
18546TIP3    H177053   3.008   4.128   3.941 -0.3038  0.1185 -0.2851
18546TIP3    H277054   3.097   4.193   3.838  1.9460 -1.2052  0.7732
18547TIP3   OH277055   3.427   6.656   2.673  0.5694  0.1391 -0.0251
18547TIP3    H177056   3.448   6.563   2.682  1.8494  0.5992  2.2250
18547TIP3    H277057   3.512   6.700   2.674 -0.0594  1.3818 -0.2378
18548TIP3   OH277058   0.903   3.313  11.413  0.2627 -0.1732  0.3120
18548TIP3    H177059   0.985   3.362  11.412 -0.2207  0.6759  1.8328
18548TIP3    H277060   0.898   3.276  11.501 -0.9928 -0.2108  0.2397
18549TIP3   OH277061   4.436   2.537   6.369 -0.4822 -0.1026 -0.1405
18549TIP3    H177062   4.352   2.514   6.329  0.6823 -1.0504 -2.1456
18549TIP3    H277063   4.413   2.588   6.446 -2.8837  0.9440 -1.4831
18550TIP3   OH277064   5.171   4.557   2.536  0.5803 -0.1097 -0.1212
18550TIP3    H177065   5.112   4.590   2.605 -1.1134 -1.8163 -0.7049
18550TIP3    H277066   5.227   4.494   2.581 -1.2052 -1.9940 -0.4298
18551TIP3   OH277067   5.665   4.220  11.638 -0.9075  0.0727 -0.2502
18551TIP3    H177068   5.749   4.190  11.675 -0.9103  0.2994 -0.0627
18551TIP3    H277069   5.623   4.139  11.608  0.6316  0.2434 -2.9763
18552TIP3   OH277070   3.881   4.119   1.408 -0.0755 -0.4399 -0.5351
18552TIP3    H177071   3.803   4.108   1.354 -1.1982  0.8356  0.7899
18552TIP3    H277072   3.872   4.053   1.477  0.3172 -0.6825 -0.7129
18553TIP3   OH277073   3.476   0.968  13.692 -0.0475 -0.9542 -0.2828
18553TIP3    H177074   3.489   0.950  13.785  0.4619  1.2477  0.0945
18553TIP3    H277075   3.463   1.063  13.687 -1.5599 -1.2417 -2.2927
18554TIP3   OH277076   0.880   2.885  14.278 -0.6106 -0.6976  0.0623
18554TIP3    H177077   0.942   2.842  14.218  0.0003 -1.0082  0.9143
18554TIP3    H277078   0.911   2.862  14.365 -0.3789  1.3513  0.5349
18555TIP3   OH277079   3.665   4.084  12.664  0.2829 -0.0848  0.3542
18555TIP3    H177080   3.616   4.010  12.628  1.2917 -1.0621  0.9284
18555TIP3    H277081   3.723   4.044  12.729  0.0216  1.3769  1.5039
18556TIP3   OH277082   5.011   3.546   0.626  0.2368  0.5878 -0.2437
18556TIP3    H177083   4.958   3.470   0.601  0.0308  0.9716 -1.0004
18556TIP3    H277084   4.987   3.563   0.717  1.3054 -1.1026  0.3701
18557TIP3   OH277085   2.246   5.031   1.715 -0.0144 -0.2989  0.2729
18557TIP3    H177086   2.335   5.000   1.700 -0.1262 -0.9145  0.8231
18557TIP3    H277087   2.255   5.125   1.730  0.3696 -0.1013 -1.1210
18558TIP3   OH277088   2.013   6.041   0.707  0.2697  0.2889 -0.5841
18558TIP3    H177089   1.954   6.075   0.774 -0.9086 -0.2654 -1.3337
18558TIP3    H277090   2.018   5.947   0.724 -1.1594 -0.0895 -2.1150
18559TIP3   OH277091   6.252   6.060   2.988  0.1697  0.2720 -0.2191
18559TIP3    H177092   6.308   6.043   3.064  0.9367  0.6222 -0.6996
18559TIP3    H277093   6.240   5.974   2.947 -0.2268  0.0876  0.2851
18560TIP3   OH277094   4.941   3.020   3.410  0.8565 -0.4691 -0.3005
18560TIP3    H177095   4.997   3.036   3.335  1.0182  1.7312  0.2566
18560TIP3    H277096   4.981   2.946   3.455  1.4849 -0.9647 -1.6605
18561TIP3   OH277097   3.369   2.029   5.973 -0.1533  0.3499  0.1262
18561TIP3    H177098   3.405   2.118   5.977  0.7087 -0.0009  0.3031
18561TIP3    H277099   3.390   1.991   6.059 -1.2930  0.2663  0.3791
18562TIP3   OH277100   5.032   1.032  16.434 -0.3924 -0.2575  0.0528
18562TIP3    H177101   4.963   1.069  16.380  0.3407 -0.2280 -0.8772
18562TIP3    H277102   4.991   1.018  16.520 -1.4470  0.0703 -0.3936
18563TIP3   OH277103   2.879   2.049  14.222 -0.1058 -0.6643 -0.2293
18563TIP3    H177104   2.819   2.123  14.229  0.6571 -0.2685  2.9554
18563TIP3    H277105   2.961   2.088  14.191  0.3168 -0.1118  1.5104
18564TIP3   OH277106   6.105   3.635   4.959 -0.1556  0.1883  0.3252
18564TIP3    H177107   6.139   3.672   5.041 -0.3721  0.2052  0.4090
18564TIP3    H277108   6.175   3.649   4.896 -0.0421  0.3037  0.4741
18565TIP3   OH277109   3.979   5.244  14.324 -0.3463 -0.2956 -0.2340
18565TIP3    H177110   4.043   5.314  14.338 -0.3764 -0.6284  1.8603
18565TIP3    H277111   3.894   5.285  14.341 -0.3677 -0.7886  0.9406
18566TIP3   OH277112   3.034   6.127   3.636  0.6081 -0.0528 -0.0063
18566TIP3    H177113   3.074   6.125   3.549  1.9780  1.4931  0.5685
18566TIP3    H277114   3.039   6.218   3.663 -1.4768 -0.1817  0.9631
18567TIP3   OH277115   1.389   6.492  11.154 -0.0005 -0.2895 -0.9922
18567TIP3    H177116   1.468   6.471  11.104 -0.4806 -1.8837 -1.1018
18567TIP3    H277117   1.360   6.408  11.190 -1.5834  0.2997 -0.8467
18568TIP3   OH277118   4.298   0.493  12.210  0.1795 -0.1284 -0.5061
18568TIP3    H177119   4.368   0.458  12.265 -0.0037  1.0105  0.4572
18568TIP3    H277120   4.241   0.417  12.193  0.1833 -0.4734  0.9590
18569TIP3   OH277121   0.880   4.544  14.988  0.3293 -0.1707  0.0206
18569TIP3    H177122   0.968   4.536  15.026  0.0453  0.1140  0.7512
18569TIP3    H277123   0.883   4.490  14.909  0.4869 -1.9972  1.2384
18570TIP3   OH277124   4.568   5.581   3.024 -0.4783  0.0207 -0.5504
18570TIP3    H177125   4.600   5.536   2.945  0.9351 -0.3320  0.2103
18570TIP3    H277126   4.483   5.540   3.041  0.7503 -2.3454  0.0785
18571TIP3   OH277127   4.076   4.143   3.533  0.5843 -0.1754  0.6326
18571TIP3    H177128   4.081   4.205   3.606  1.7513  0.9247 -0.3524
18571TIP3    H277129   4.160   4.151   3.488  0.0889 -1.2087 -0.5343
18572TIP3   OH277130   6.193   5.534   5.371  0.2616 -0.1212  0.2732
18572TIP3    H177131   6.167   5.535   5.279  0.3053  2.7232  0.2277
18572TIP3    H277132   6.218   5.444   5.389 -0.3598 -0.8406 -2.3263
18573TIP3   OH277133   1.210   1.414   4.567  0.0358  0.5171  0.5570
18573TIP3    H177134   1.251   1.331   4.543 -0.2560  0.9964 -1.6914
18573TIP3    H277135   1.279   1.464   4.609  0.1815 -0.8998  2.0763
18574TIP3   OH277136   4.508   5.432   6.046 -0.5658  0.1967  0.1590
18574TIP3    H177137   4.448   5.489   6.093  0.5906  1.7627 -0.1895
18574TIP3    H277138   4.595   5.468   6.066  0.1632 -1.3080 -0.2696
18575TIP3   OH277139   4.744   1.004  13.379  0.5755 -0.2151 -0.1581
18575TIP3    H177140   4.759   1.037  13.290 -0.4483  0.9758  0.1103
18575TIP3    H277141   4.771   1.075  13.436  0.9650 -0.8784  0.4905
18576TIP3   OH277142   4.901   0.968  12.867  0.1801  0.5634 -0.1955
18576TIP3    H177143   4.914   0.897  12.805  1.5135  1.9273 -1.5203
18576TIP3    H277144   4.810   0.996  12.854 -0.0724 -0.2899 -0.2913
18577TIP3   OH277145   2.803   1.459   4.830 -0.3166 -0.7802  0.2908
18577TIP3    H177146   2.851   1.523   4.882 -0.4773  0.4031 -0.9775
18577TIP3    H277147   2.848   1.458   4.745 -0.2615 -2.4229  0.3249
18578TIP3   OH277148   1.316   3.571   3.641 -0.0982  0.0090  0.2063
18578TIP3    H177149   1.335   3.550   3.549 -2.7925  2.3330 -0.9667
18578TIP3    H277150   1.266   3.495   3.673  0.2893 -0.5307 -0.4489
18579TIP3   OH277151   1.223   4.929  16.063  0.4925  0.3150  0.1049
18579TIP3    H177152   1.137   4.969  16.056 -0.0981 -0.9609 -0.0549
18579TIP3    H277153   1.215   4.865  16.134  1.1118 -0.2845 -0.3496
18580TIP3   OH277154   3.937   2.149  15.742  0.1785 -0.0682  0.4037
18580TIP3    H177155   3.994   2.195  15.681 -0.0534  0.0325  0.2594
18580TIP3    H277156   3.916   2.213  15.810 -1.7257  0.6808 -0.8325
18581TIP3   OH277157   1.971   0.755   0.023  0.4384  0.2042  0.4712
18581TIP3    H177158   2.064   0.778   0.025  0.8146 -1.1399 -0.6788
18581TIP3    H277159   1.931   0.823  -0.031  0.5541  1.4023  1.8590
18582TIP3   OH277160   0.846   6.487   5.675 -0.1426  0.0590  0.3897
18582TIP3    H177161   0.880   6.554   5.735 -1.1242  1.4514 -0.5886
18582TIP3    H277162   0.902   6.493   5.598 -0.1335 -0.3657  0.3624
18583TIP3   OH277163   0.967   6.280  14.413 -0.1066 -0.4764  0.6272
18583TIP3    H177164   0.984   6.340  14.486 -0.0973 -1.6876  1.6588
18583TIP3    H277165   0.871   6.275  14.409 -0.2072  2.2257 -1.7060
18584TIP3   OH277166   6.364   1.781   5.164 -0.0088  0.6172 -0.2966
18584TIP3    H177167   6.372   1.720   5.091  0.6530  1.0149 -0.5622
18584TIP3    H277168   6.293   1.745   5.217  0.4451 -0.4574 -0.3892
18585TIP3   OH277169   0.940   3.669  11.459 -0.5600 -0.3545 -0.6484
18585TIP3    H177170   1.006   3.602  11.477 -0.2777  0.2293  0.5551
18585TIP3    H277171   0.963   3.704  11.373  1.2123  0.4147  0.1081
18586TIP3   OH277172   5.665   1.710   2.320 -0.8539 -0.3456  0.4013
18586TIP3    H177173   5.613   1.747   2.249 -1.3476 -0.3006  0.7849
18586TIP3    H277174   5.602   1.663   2.374 -0.6412  0.4618  1.3629
18587TIP3   OH277175   5.576   3.284   2.579  0.5329 -0.3014  0.2232
18587TIP3    H177176   5.613   3.219   2.518 -1.0979 -0.9480 -0.1239
18587TIP3    H277177   5.626   3.272   2.660  0.2201 -2.0802  0.1925
18588TIP3   OH277178   5.108   3.867  13.618 -0.4736 -0.3225 -0.5294
18588TIP3    H177179   5.122   3.939  13.556  0.4347 -0.3025 -0.3007
18588TIP3    H277180   5.154   3.894  13.697  1.9050 -2.2031 -1.2103
18589TIP3   OH277181   1.371   2.867   1.954  0.2407  0.0733  0.5988
18589TIP3    H177182   1.341   2.800   2.016  0.9205 -1.5803 -0.8245
18589TIP3    H277183   1.444   2.825   1.907 -0.4083  1.2177 -1.4649
18590TIP3   OH277184   1.778   3.203   2.276 -0.0326 -0.1803 -0.1412
18590TIP3    H177185   1.822   3.142   2.217  2.2203  0.9580  0.2872
18590TIP3    H277186   1.815   3.289   2.254 -1.8692  0.7920  0.4404
18591TIP3   OH277187   3.941   5.515   3.596 -0.3318 -0.3188  0.0050
18591TIP3    H177188   3.934   5.556   3.509  1.4506  2.0853  0.9411
18591TIP3    H277189   3.936   5.421   3.579 -0.0073  0.1150 -2.7096
18592TIP3   OH277190   1.250   1.077   5.967 -0.7277 -0.4547  0.0899
18592TIP3    H177191   1.195   1.152   5.945  0.9733  0.3363 -1.5801
18592TIP3    H277192   1.282   1.095   6.055 -0.1355  0.9258 -0.4012
18593TIP3   OH277193   5.482   1.898   5.856  0.0367 -0.1589 -0.1370
18593TIP3    H177194   5.567   1.905   5.898  0.1515 -1.3556 -0.1542
18593TIP3    H277195   5.421   1.881   5.928 -0.0113 -0.5333 -0.2666
18594TIP3   OH277196   0.346   6.005   0.894 -0.3969  0.1096  0.2131
18594TIP3    H177197   0.440   6.007   0.878 -0.0708 -1.8199  1.6926
18594TIP3    H277198   0.307   6.016   0.807  1.1975  0.0638 -0.5276
18595TIP3   OH277199   5.623   3.441   3.259 -0.7572 -0.1063 -0.3585
18595TIP3    H177200   5.633   3.350   3.231 -1.1087  0.4182 -2.2523
18595TIP3    H277201   5.552   3.438   3.323  0.9366 -1.5187  1.5637
18596TIP3   OH277202   3.007   3.479  14.049 -0.0885  0.4290 -0.2935
18596TIP3    H177203   3.050   3.456  14.132 -0.4641  0.6019 -0.0507
18596TIP3    H277204   3.079   3.484  13.986 -0.0653 -2.0553 -0.5073
18597TIP3   OH277205   4.099   2.853   1.534 -0.1418  0.1875  0.4314
18597TIP3    H177206   4.056   2.768   1.522  1.0722 -0.3025 -0.5769
18597TIP3    H277207   4.162   2.837   1.604 -0.5814  0.5130  0.9009
18598TIP3   OH277208   1.131   1.172   3.894  0.6662 -0.2097 -0.4385
18598TIP3    H177209   1.112   1.160   3.801 -0.6177  0.3812 -0.2697
18598TIP3    H277210   1.086   1.253   3.917 -1.2194 -1.6856  1.2916
18599TIP3   OH277211   4.452   6.182   1.980  0.0793  0.4067 -0.4517
18599TIP3    H177212   4.509   6.167   1.905 -0.8353  0.9212 -1.2579
18599TIP3    H277213   4.402   6.100   1.988 -0.1821  0.5359 -0.7275
18600TIP3   OH277214   6.471   6.374   0.220  0.4514 -0.2344 -0.1882
18600TIP3    H177215   6.441   6.291   0.256  0.6998 -0.0923  0.3500
18600TIP3    H277216   6.465   6.436   0.293  2.8817 -0.3993  0.1774
18601TIP3   OH277217   0.675   6.532   2.677  0.5842 -0.1287  0.0629
18601TIP3    H177218   0.677   6.437   2.662 -1.4827  0.1124 -2.0747
18601TIP3    H277219   0.700   6.570   2.592 -0.8664  1.2455  0.2288
18602TIP3   OH277220   2.826   0.467  16.067 -0.1355  0.3922 -0.7470
18602TIP3    H177221   2.849   0.384  16.108  1.8304  0.1543 -2.2160
18602TIP3    H277222   2.822   0.447  15.973 -2.0112  1.4591 -0.9311
18603TIP3   OH277223   6.032   2.486  17.086 -0.0399 -0.5462  0.3571
18603TIP3    H177224   6.060   2.473  16.996  0.9664  0.8189  0.4481
18603TIP3    H277225   5.938   2.502  17.080  0.0854 -0.1092 -0.4893
18604TIP3   OH277226   4.868   2.335  16.697  0.2430  0.7298  0.0415
18604TIP3    H177227   4.802   2.357  16.632  1.4941 -0.1258 -1.5682
18604TIP3    H277228   4.824   2.274  16.757  0.1682 -1.6256 -2.2895
18605TIP3   OH277229   4.923   1.438   0.907 -0.1949 -0.5097 -0.5116
18605TIP3    H177230   4.955   1.463   0.821  1.3142 -0.8012 -0.0551
18605TIP3    H277231   4.851   1.377   0.890  0.3627 -0.8797 -1.5496
18606TIP3   OH277232   5.927   1.093   1.863 -0.1220  0.1851 -0.2630
18606TIP3    H177233   5.868   1.162   1.832 -1.1463 -1.2064 -1.5068
18606TIP3    H277234   5.977   1.068   1.785 -0.1353 -0.8300  0.0549
18607TIP3   OH277235   5.563   0.276   4.039 -0.0292 -0.2369  0.1598
18607TIP3    H177236   5.623   0.233   4.099 -0.8994  0.6480  1.6742
18607TIP3    H277237   5.619   0.327   3.981  0.6772  0.8865  1.8038
18608TIP3   OH277238   5.358   1.766   4.732 -0.2971 -0.1056 -0.0293
18608TIP3    H177239   5.265   1.788   4.724  0.0101  0.8820 -1.1533
18608TIP3    H277240   5.388   1.757   4.642  0.7911 -0.0075  0.3147
18609TIP3   OH277241   6.159   5.791  16.084 -0.3384  0.3149 -0.2403
18609TIP3    H177242   6.247   5.765  16.057  0.2351  1.9051  0.0587
18609TIP3    H277243   6.136   5.863  16.026 -1.8380 -0.7358 -0.9495
18610TIP3   OH277244   6.583   5.457  13.468 -0.5128  0.0131 -1.1349
18610TIP3    H177245   6.541   5.509  13.537 -0.6488  2.4207 -2.9760
18610TIP3    H277246   6.546   5.370  13.479 -0.5127  0.3260  1.8407
18611TIP3   OH277247   5.890   5.772  14.766  0.1920  0.0236 -0.8139
18611TIP3    H177248   5.900   5.866  14.754  1.4862 -0.2296 -1.7603
18611TIP3    H277249   5.858   5.763  14.856 -1.3134  1.4376 -1.1879
18612TIP3   OH277250   1.228   2.225   0.919 -0.3960  0.1247 -0.1848
18612TIP3    H177251   1.190   2.143   0.887 -0.9752 -0.4774  1.9709
18612TIP3    H277252   1.250   2.274   0.839 -0.9996 -1.6745 -1.4893
18613TIP3   OH277253   0.182   0.953   5.270  0.0561 -0.2616 -0.2939
18613TIP3    H177254   0.187   0.924   5.179  0.0568  0.2152 -0.4487
18613TIP3    H277255   0.190   0.872   5.322  0.2042 -0.5167 -0.7112
18614TIP3   OH277256   2.936   5.534   0.005 -0.2723  0.0312  0.8384
18614TIP3    H177257   2.934   5.496   0.093  2.2989 -0.3304  0.7826
18614TIP3    H277258   2.896   5.468  -0.051 -0.5137 -0.3819  1.4953
18615TIP3   OH277259   5.100   5.048  11.186  0.2757  0.3066  0.0821
18615TIP3    H177260   5.035   4.989  11.149 -0.2755  0.4092  0.8758
18615TIP3    H277261   5.098   5.125  11.128 -0.5855  0.4731  0.3229
18616TIP3   OH277262   3.235   0.595  15.052 -0.3501  0.6202 -0.3835
18616TIP3    H177263   3.146   0.629  15.060  0.0904  1.7415 -0.1964
18616TIP3    H277264   3.267   0.590  15.142 -0.4483 -0.3937 -0.4026
18617TIP3   OH277265   3.432   4.103  14.794 -0.3323  0.0405 -0.1075
18617TIP3    H177266   3.430   4.171  14.726 -0.0465 -0.8154 -0.9855
18617TIP3    H277267   3.505   4.128  14.851 -1.6258  1.6921  0.8905
18618TIP3   OH277268   1.331   2.188   2.561  0.2372 -0.5648 -0.0752
18618TIP3    H177269   1.274   2.251   2.605  0.6084  0.3380 -0.8605
18618TIP3    H277270   1.326   2.109   2.614 -0.9292 -0.1520  0.4312
18619TIP3   OH277271   6.390   5.902  11.770  0.5477 -0.2249 -0.5301
18619TIP3    H177272   6.329   5.915  11.698 -0.3885  0.3035  0.3552
18619TIP3    H277273   6.389   5.807  11.785  0.0163 -0.2221 -0.5574
18620TIP3   OH277274   4.831   3.052  13.879 -1.0710 -0.6508 -0.0115
18620TIP3    H177275   4.875   3.103  13.811 -0.9509  0.7130  1.0592
18620TIP3    H277276   4.836   2.961  13.849  1.7140 -0.4207 -0.3459
18621TIP3   OH277277   1.883   2.527  11.417 -0.0413  0.0053 -0.3791
18621TIP3    H177278   1.874   2.462  11.347 -0.7726  1.3135 -1.5117
18621TIP3    H277279   1.812   2.589  11.403 -1.4787 -0.7873  2.7470
18622TIP3   OH277280   4.034   2.966  15.518 -0.0276 -0.7866  0.0535
18622TIP3    H177281   3.957   2.992  15.568 -1.1447 -1.3593 -1.3506
18622TIP3    H277282   4.001   2.947  15.430  1.8562 -0.1277 -0.8177
18623TIP3   OH277283   2.548   0.079   0.945  0.3288 -0.1407  0.5675
18623TIP3    H177284   2.503   0.128   1.014 -1.4957  0.2718 -0.8863
18623TIP3    H277285   2.563   0.143   0.876 -2.3042 -1.5990 -1.4610
18624TIP3   OH277286   0.749   2.836  11.804 -0.2819  0.3666 -0.4003
18624TIP3    H177287   0.675   2.842  11.864  0.7101  0.2714  0.8429
18624TIP3    H277288   0.710   2.814  11.720 -1.5891 -0.4847  0.4194
18625TIP3   OH277289   0.770   1.581   3.416  0.2331  0.5602 -0.2793
18625TIP3    H177290   0.774   1.552   3.325  0.2774  0.7474 -0.3357
18625TIP3    H277291   0.684   1.550   3.446  0.2574  0.4147 -0.3548
18626TIP3   OH277292   0.246   3.910   3.580  0.4734 -0.2403 -0.0377
18626TIP3    H177293   0.272   3.983   3.638 -0.4559 -0.5421  0.7782
18626TIP3    H277294   0.322   3.852   3.580  0.3403 -0.4309  1.2096
18627TIP3   OH277295   2.945   2.003  15.411 -0.7848  0.1086 -0.1567
18627TIP3    H177296   2.906   2.055  15.481 -0.6779 -0.1229  0.0790
18627TIP3    H277297   3.014   1.952  15.455  2.2889  3.1800 -1.1753
18628TIP3   OH277298   5.160   6.203   0.126 -0.2345 -0.2639  0.8026
18628TIP3    H177299   5.140   6.209   0.220 -0.2029 -0.8424  0.8432
18628TIP3    H277300   5.143   6.292   0.093  0.6800  0.1884  1.5294
18629TIP3   OH277301   6.703   5.593   3.623 -0.1826 -0.1229 -0.5836
18629TIP3    H177302   6.744   5.522   3.672 -1.5187 -0.8646 -0.5127
18629TIP3    H277303   6.707   5.564   3.532 -1.2662 -0.5926 -0.4974
18630TIP3   OH277304   1.422   4.038   4.403  0.4507 -0.4638 -0.2796
18630TIP3    H177305   1.492   4.055   4.467 -1.1213  3.2898  0.5742
18630TIP3    H277306   1.455   4.077   4.322 -1.7037  3.9470  0.8204
18631TIP3   OH277307   2.173   2.904   5.116  0.2776  0.2106  0.2862
18631TIP3    H177308   2.174   2.986   5.165  0.6438 -0.2365  1.0415
18631TIP3    H277309   2.159   2.837   5.182  1.4715 -0.4613 -0.1210
18632TIP3   OH277310   5.289   1.720  17.155  0.0940 -0.4752 -0.2609
18632TIP3    H177311   5.303   1.778  17.080 -0.0783  1.8408  1.4409
18632TIP3    H277312   5.377   1.697  17.184  0.1694 -0.6307 -0.6133
18633TIP3   OH277313   5.127   3.666   4.671  0.0659  0.3921 -0.1383
18633TIP3    H177314   5.139   3.704   4.758 -1.5174  1.2336 -0.2633
18633TIP3    H277315   5.158   3.576   4.680  1.2685  0.8988  0.9021
18634TIP3   OH277316   4.681   5.581   1.917  0.5242  0.0814 -0.6280
18634TIP3    H177317   4.667   5.630   1.998  0.1424 -1.1260  0.0551
18634TIP3    H277318   4.618   5.510   1.921  1.5277 -0.8652 -1.2731
18635TIP3   OH277319   6.610   0.810   4.958 -0.3381 -0.3224  0.0324
18635TIP3    H177320   6.595   0.760   5.037  1.7964 -0.0023  0.6764
18635TIP3    H277321   6.603   0.746   4.887 -1.4502 -0.7682  0.5433
18636TIP3   OH277322   0.958   2.576  14.563  0.5534  0.0922 -0.2014
18636TIP3    H177323   0.942   2.663  14.525 -1.7940 -0.7021 -1.1001
18636TIP3    H277324   1.018   2.593  14.636 -0.4236  2.5571  0.0858
18637TIP3   OH277325   5.576   2.189  11.119 -0.1992 -0.5021  0.2711
18637TIP3    H177326   5.620   2.269  11.090  0.5763  0.0601  2.8451
18637TIP3    H277327   5.604   2.122  11.057  3.0853  0.1710  0.9555
18638TIP3   OH277328   0.316   0.597  16.147 -0.0489 -0.7413  0.3349
18638TIP3    H177329   0.312   0.522  16.088 -1.6005 -0.7529  0.4204
18638TIP3    H277330   0.228   0.603  16.183 -0.2960  1.8489 -0.5864
18639TIP3   OH277331   4.704   5.242  14.416 -0.3014  0.0497  0.6556
18639TIP3    H177332   4.612   5.215  14.424 -0.2782 -0.4225 -0.6831
18639TIP3    H277333   4.736   5.197  14.338  1.1565 -0.0066  1.2672
18640TIP3   OH277334   3.990   5.984  11.759 -0.6400  0.0995 -0.0564
18640TIP3    H177335   3.958   6.023  11.678  1.0262  0.3682 -0.5955
18640TIP3    H277336   4.079   6.019  11.770 -0.7029 -0.2286  1.6849
18641TIP3   OH277337   0.954   6.590   4.545 -0.4194  0.0527 -0.3383
18641TIP3    H177338   0.992   6.531   4.611 -1.7689  0.5036  0.8594
18641TIP3    H277339   0.985   6.677   4.569  0.6342 -0.0085 -1.4335
18642TIP3   OH277340   3.590   2.448   5.239 -0.4443  0.3243  0.6350
18642TIP3    H177341   3.538   2.396   5.300  0.1430 -1.9140 -0.7259
18642TIP3    H277342   3.654   2.493   5.294 -1.3315  0.0723  1.8869
18643TIP3   OH277343   4.303   4.519  16.216 -0.1437  0.1209 -0.0911
18643TIP3    H177344   4.294   4.423  16.216  0.7046  0.0109  1.5670
18643TIP3    H277345   4.226   4.550  16.264  0.2887  0.1613  0.5931
18644TIP3   OH277346   0.560   0.886  16.627 -0.1538  0.1797  0.1140
18644TIP3    H177347   0.652   0.896  16.604  0.3760  2.9737  3.0835
18644TIP3    H277348   0.551   0.793  16.650  1.8203 -0.1961 -0.5144
18645TIP3   OH277349   4.571   2.063   5.220  0.0889 -0.1025 -0.1574
18645TIP3    H177350   4.641   2.117   5.257 -0.4600  0.6205 -0.1400
18645TIP3    H277351   4.500   2.069   5.285 -0.5673  0.4841 -0.9145
18646TIP3   OH277352   5.902   5.081  14.377 -0.1863  0.7054 -0.0742
18646TIP3    H177353   5.829   5.051  14.431  0.3286  0.5460  0.5423
18646TIP3    H277354   5.930   5.163  14.418  0.7911  0.1236  0.4673
18647TIP3   OH277355   3.867   4.687  13.671 -0.0629  0.2766 -0.1201
18647TIP3    H177356   3.838   4.716  13.585 -0.5908  0.4731  0.1212
18647TIP3    H277357   3.881   4.768  13.720 -0.2079  0.1554  0.1203
18648TIP3   OH277358   4.967   2.791  12.195 -0.2679 -0.2812 -0.0301
18648TIP3    H177359   4.874   2.815  12.190 -0.4963 -0.5399  2.4155
18648TIP3    H277360   5.013   2.868  12.163 -1.2532  0.7263  0.9302
18649TIP3   OH277361   4.954   0.665   4.846  0.0697 -0.0837  0.1151
18649TIP3    H177362   4.927   0.576   4.824 -1.6168  0.3032  0.5146
18649TIP3    H277363   4.944   0.670   4.941  0.0170  0.5778  0.0775
18650TIP3   OH277364   1.161   6.279   6.427  0.0264  0.0444  0.0513
18650TIP3    H177365   1.096   6.217   6.394  0.7831 -0.0911 -1.1891
18650TIP3    H277366   1.110   6.358   6.447 -0.6415 -0.3327 -0.1386
18651TIP3   OH277367   1.827   2.711   5.050 -0.4881  0.2979  0.3307
18651TIP3    H177368   1.801   2.663   4.971  0.5000 -0.6617  0.5899
18651TIP3    H277369   1.850   2.798   5.018 -0.3276 -0.0130 -0.4037
18652TIP3   OH277370   3.836   2.761   5.346 -0.2887 -0.1532 -0.2353
18652TIP3    H177371   3.888   2.686   5.316  0.4830  0.3739 -0.2204
18652TIP3    H277372   3.786   2.787   5.268  1.4033  0.9525 -0.9764
18653TIP3   OH277373   3.122   4.823  14.784  1.0126 -0.4384 -0.6248
18653TIP3    H177374   3.144   4.757  14.849 -0.4976  1.6389  2.1411
18653TIP3    H277375   3.027   4.828  14.786  1.1124  2.5046  0.0587
18654TIP3   OH277376   5.714   3.541  13.694  0.3798  0.2551  0.4083
18654TIP3    H177377   5.715   3.636  13.691  0.1101  0.2756  0.8552
18654TIP3    H277378   5.805   3.516  13.706  0.8427  0.3388 -2.5620
18655TIP3   OH277379   0.989   5.568   2.861  0.2903  0.2192 -0.2054
18655TIP3    H177380   0.932   5.494   2.842  0.3120  0.5532 -1.6479
18655TIP3    H277381   1.076   5.530   2.870 -0.2768 -0.4309  3.0510
18656TIP3   OH277382   2.132   1.578  13.957  0.3319  0.3912  0.1251
18656TIP3    H177383   2.216   1.622  13.969 -0.2414  1.1573  1.4223
18656TIP3    H277384   2.115   1.535  14.041 -0.6640  0.4048 -0.0587
18657TIP3   OH277385   3.041   4.758   0.205 -0.1046 -0.1381  0.1132
18657TIP3    H177386   3.052   4.853   0.211 -0.9259  0.1416 -2.2817
18657TIP3    H277387   2.962   4.740   0.256 -0.9037  0.6914 -0.8108
18658TIP3   OH277388   3.514   2.670   0.407 -0.1477 -0.0184 -0.5895
18658TIP3    H177389   3.558   2.588   0.431 -0.1547  0.5251  1.3698
18658TIP3    H277390   3.436   2.641   0.359 -1.3993 -1.3336  2.0615
18659TIP3   OH277391   3.724   0.039  14.002  0.6793 -0.5060  0.2426
18659TIP3    H177392   3.636   0.023  13.969  0.7189  0.7801 -0.5582
18659TIP3    H277393   3.714   0.046  14.097 -0.2860  0.8037  0.0607
18660TIP3   OH277394   5.371   6.222  15.697  0.2808 -0.1901  0.3379
18660TIP3    H177395   5.280   6.221  15.726  0.7222  1.1127  1.8400
18660TIP3    H277396   5.393   6.315  15.690  1.3737 -0.4957 -0.4106
18661TIP3   OH277397   0.582   0.558   2.458  0.2624 -0.4224 -0.3687
18661TIP3    H177398   0.508   0.619   2.453 -0.1865 -0.9233  0.1066
18661TIP3    H277399   0.642   0.588   2.390 -0.4058 -0.0467 -0.8025
18662TIP3   OH277400   0.077   1.705  15.358  0.2112  0.4252  0.0810
18662TIP3    H177401   0.047   1.654  15.282 -1.9023  2.8025 -0.7439
18662TIP3    H277402   0.149   1.758  15.324  0.0832  0.5863  0.0647
18663TIP3   OH277403   2.295   3.221   0.100  0.3954 -1.3809 -0.0455
18663TIP3    H177404   2.203   3.212   0.076  0.3381 -0.9470  0.0072
18663TIP3    H277405   2.321   3.305   0.063  1.2653 -2.3318 -1.6116
18664TIP3   OH277406   2.419   0.638   3.421  0.0675 -0.2071  0.8294
18664TIP3    H177407   2.500   0.623   3.470  0.8322 -0.3161 -0.4415
18664TIP3    H277408   2.400   0.554   3.380  0.6116  0.4223 -0.7639
18665TIP3   OH277409   3.547   3.165  15.821  0.2004  0.1800  0.1352
18665TIP3    H177410   3.483   3.098  15.848 -1.1183  1.4175  0.1344
18665TIP3    H277411   3.585   3.130  15.740  0.5360 -1.2029  0.8620
18666TIP3   OH277412   0.057   3.736  13.584 -0.0978 -0.3605 -0.0919
18666TIP3    H177413   0.006   3.810  13.552 -0.2088 -0.7555 -0.8425
18666TIP3    H277414   0.138   3.738  13.532 -1.1045 -2.1619 -1.8281
18667TIP3   OH277415   2.798   1.995   5.559  0.0893  0.4021  0.3806
18667TIP3    H177416   2.766   2.033   5.641  0.4254  0.8635  0.3028
18667TIP3    H277417   2.886   2.030   5.549 -0.2534  1.0244 -0.5997
18668TIP3   OH277418   0.841   5.258  14.812  0.0004 -0.3870 -0.1556
18668TIP3    H177419   0.824   5.348  14.838  0.9757 -0.9663  2.6450
18668TIP3    H277420   0.759   5.227  14.774 -0.5102  1.4734 -0.6060
18669TIP3   OH277421   1.788   2.570   4.779  0.4670  0.4466  0.2982
18669TIP3    H177422   1.693   2.584   4.777  0.4981  0.7763  1.2532
18669TIP3    H277423   1.821   2.621   4.704  0.1965  2.7258  1.6832
18670TIP3   OH277424   4.109   6.389   4.652  0.3224  0.2838  0.0956
18670TIP3    H177425   4.059   6.338   4.588  2.1557 -0.0421 -1.1267
18670TIP3    H277426   4.083   6.353   4.737  0.0311 -1.2736 -0.6274
18671TIP3   OH277427   6.048   5.665   0.554 -0.0513 -0.2766  0.2754
18671TIP3    H177428   6.049   5.719   0.475 -0.0955 -1.6064 -0.6351
18671TIP3    H277429   6.134   5.623   0.556  0.4928  0.8338  1.7085
18672TIP3   OH277430   5.723   0.083   2.784  0.4230  0.5657  0.5051
18672TIP3    H177431   5.656   0.145   2.812 -0.5252 -0.5211  0.6501
18672TIP3    H277432   5.770   0.061   2.865 -0.5507 -0.4583  0.8058
18673TIP3   OH277433   3.897   0.335  11.709  0.0590  0.0834  0.0796
18673TIP3    H177434   3.918   0.420  11.746 -0.8791 -0.1677  1.2271
18673TIP3    H277435   3.912   0.273  11.781 -0.3462 -0.5965 -0.4115
18674TIP3   OH277436   5.399   5.875   0.697 -0.4380 -0.2866  0.2839
18674TIP3    H177437   5.463   5.874   0.626 -0.9295 -0.6464 -0.1575
18674TIP3    H277438   5.450   5.900   0.774 -0.2078  1.8200 -0.4920
18675TIP3   OH277439   5.862   5.773   3.341 -0.0713  0.0786  0.0648
18675TIP3    H177440   5.855   5.679   3.355  1.2496  0.1038  1.0415
18675TIP3    H277441   5.788   5.795   3.285 -0.4065 -1.5327 -0.1476
18676TIP3   OH277442   0.285   4.774  12.336  0.1272 -0.1901  0.2453
18676TIP3    H177443   0.249   4.697  12.291 -1.5428  0.4099  0.5237
18676TIP3    H277444   0.273   4.755  12.429  0.9241 -0.1671  0.3531
18677TIP3   OH277445   5.897   3.433  12.457 -0.3647  0.8106 -0.1249
18677TIP3    H177446   5.992   3.427  12.467 -0.1496  1.4376 -1.5911
18677TIP3    H277447   5.878   3.526  12.467 -0.7078  0.8049 -0.6773
18678TIP3   OH277448   4.638   1.437  16.710  0.1251 -0.1300  0.8687
18678TIP3    H177449   4.615   1.502  16.776  1.7091  0.1887  1.1181
18678TIP3    H277450   4.663   1.489  16.633  0.0257 -0.4732  0.6044
18679TIP3   OH277451   1.634   5.186  11.454  0.1781 -0.6356  0.3988
18679TIP3    H177452   1.564   5.250  11.455  2.6139  2.1241 -0.4731
18679TIP3    H277453   1.629   5.145  11.368 -0.0704 -0.1453  0.1842
18680TIP3   OH277454   4.963   2.623  12.715  0.1915 -0.2074  0.3884
18680TIP3    H177455   4.967   2.711  12.751 -1.3393  0.2409 -0.4985
18680TIP3    H277456   4.967   2.565  12.792 -1.9527  0.7073  1.2107
18681TIP3   OH277457   0.437   5.612   1.385 -0.6950 -0.0635 -0.2496
18681TIP3    H177458   0.413   5.698   1.352  0.1291  0.0834 -0.4724
18681TIP3    H277459   0.426   5.618   1.480 -0.0525  0.4714 -0.2073
18682TIP3   OH277460   1.053   0.473  10.878  0.2171  0.8988  0.0749
18682TIP3    H177461   1.007   0.544  10.833 -1.8264  0.0577  0.7429
18682TIP3    H277462   1.042   0.397  10.821  1.7026  0.9275 -0.2574
18683TIP3   OH277463   6.410   6.293  11.224  0.6430 -0.0835  0.1126
18683TIP3    H177464   6.412   6.250  11.309 -1.5145 -0.7799 -0.1575
18683TIP3    H277465   6.318   6.317  11.211  1.0644  0.6702 -1.6949
18684TIP3   OH277466   4.249   2.883   2.249 -0.5568 -0.2790  0.3758
18684TIP3    H177467   4.334   2.890   2.294 -0.8412  0.4630  0.8055
18684TIP3    H277468   4.267   2.916   2.161  0.7151 -4.4725 -1.0364
18685TIP3   OH277469   0.719   5.151  10.293 -0.2071 -0.8964 -0.0223
18685TIP3    H177470   0.700   5.238  10.326 -0.3611 -0.7266 -0.5517
18685TIP3    H277471   0.772   5.110  10.361 -0.5576 -0.5655  0.4476
18686TIP3   OH277472   0.490   0.243   5.492 -0.5135 -0.0620 -0.2461
18686TIP3    H177473   0.424   0.294   5.537 -0.6441  0.1883 -0.7144
18686TIP3    H277474   0.480   0.154   5.527 -0.1553  0.2687  0.7072
18687TIP3   OH277475   4.756   0.558   2.686 -0.3005 -0.3083  0.6665
18687TIP3    H177476   4.754   0.650   2.712 -0.6784 -0.8464  2.5703
18687TIP3    H277477   4.827   0.520   2.738 -0.7764 -1.3042  0.5865
18688TIP3   OH277478   6.215   3.014   1.984 -0.3049 -0.4473  0.1926
18688TIP3    H177479   6.147   3.076   1.957 -1.3515 -1.1195  1.2406
18688TIP3    H277480   6.282   3.021   1.916 -0.8497  1.1236 -0.2053
18689TIP3   OH277481   5.205   4.062   1.499 -0.1348  0.2871  1.0995
18689TIP3    H177482   5.188   3.970   1.517  1.6289  0.0269  1.5817
18689TIP3    H277483   5.181   4.074   1.407 -1.6546 -0.3138  1.4161
18690TIP3   OH277484   4.218   5.346   3.480 -0.3991  0.0324 -0.3534
18690TIP3    H177485   4.161   5.373   3.408 -0.9470  0.7385  0.3279
18690TIP3    H277486   4.237   5.427   3.528 -0.8049 -0.5506  0.8253
18691TIP3   OH277487   6.689   4.346   0.202  0.2437  0.3803  0.7044
18691TIP3    H177488   6.756   4.389   0.255  1.5883  1.0269 -1.4676
18691TIP3    H277489   6.735   4.316   0.124 -2.0709  1.1991 -1.0386
18692TIP3   OH277490   4.375   5.554   5.562  0.3586 -0.0090  0.0502
18692TIP3    H177491   4.453   5.610   5.570 -0.5074  1.0442  1.3742
18692TIP3    H277492   4.303   5.616   5.552 -0.3297 -0.9812 -0.9756
18693TIP3   OH277493   6.787   0.558   5.281 -0.5323  0.1414 -0.0683
18693TIP3    H177494   6.864   0.582   5.230  0.1197  1.7706  1.6338
18693TIP3    H277495   6.803   0.468   5.310 -0.5112 -0.4726 -1.9616
18694TIP3   OH277496   5.892   3.681  12.808  0.1646 -0.0791 -0.2108
18694TIP3    H177497   5.845   3.609  12.851 -0.2907 -0.2970 -1.0611
18694TIP3    H277498   5.958   3.637  12.755  0.8279  0.1965  0.3875
18695TIP3   OH277499   2.738   0.151  12.208  0.0984 -0.1396 -0.2651
18695TIP3    H177500   2.765   0.059  12.209  0.4843 -0.0285 -0.2055
18695TIP3    H277501   2.815   0.198  12.241 -0.3060  0.1488  0.2799
18696TIP3   OH277502   1.078   0.230  13.487 -0.1901 -0.5755 -0.0423
18696TIP3    H177503   1.107   0.261  13.401 -0.5030 -0.4659 -0.1081
18696TIP3    H277504   0.987   0.259  13.494 -0.8723 -2.4932 -0.6141
18697TIP3   OH277505   3.623   0.765  15.947 -0.2578 -0.0882 -0.4909
18697TIP3    H177506   3.703   0.713  15.936  0.5998  1.2377 -0.5863
18697TIP3    H277507   3.559   0.702  15.980  0.8346 -1.1563 -0.3471
18698TIP3   OH277508   5.153   1.956   4.694 -0.0862  0.0527 -0.3264
18698TIP3    H177509   5.117   1.917   4.614  0.2587 -2.0920  0.5407
18698TIP3    H277510   5.208   2.027   4.662 -0.7782 -0.1031 -1.9473
18699TIP3   OH277511   5.154   6.490   5.011 -0.1027  0.0306  0.3481
18699TIP3    H177512   5.135   6.528   4.926  0.5133 -0.2346  0.0888
18699TIP3    H277513   5.068   6.478   5.052 -0.5800 -2.0765 -1.1799
18700TIP3   OH277514   0.380   1.953   4.162 -0.3187  0.2021  0.5344
18700TIP3    H177515   0.343   2.041   4.171  1.0305  0.8991 -0.5684
18700TIP3    H277516   0.453   1.951   4.223 -0.3054 -0.1295  0.5083
18701TIP3   OH277517   6.068   3.051   3.891  0.1802 -0.1792 -0.4320
18701TIP3    H177518   6.054   2.956   3.888 -2.7202  0.1261  1.6114
18701TIP3    H277519   5.980   3.088   3.886  1.2203  2.4003 -0.3225
18702TIP3   OH277520   0.432   4.349   0.677 -0.0525 -0.1713 -0.0020
18702TIP3    H177521   0.417   4.394   0.760 -1.4503 -1.0275  0.2310
18702TIP3    H277522   0.526   4.333   0.674 -0.0209 -0.2810  1.4876
18703TIP3   OH277523   5.227   6.090  11.116 -0.0512  0.6946 -0.5867
18703TIP3    H177524   5.243   6.021  11.052 -3.8909  0.3270 -1.2487
18703TIP3    H277525   5.236   6.047  11.201  1.4215  0.3255 -0.9196
18704TIP3   OH277526   5.709   4.021  12.481 -0.0819 -0.3034 -0.0798
18704TIP3    H177527   5.700   4.046  12.389 -0.4283 -0.3084 -0.0498
18704TIP3    H277528   5.778   4.078  12.515 -1.9524  1.7407  0.3896
18705TIP3   OH277529   0.515   4.435  11.850 -0.2412 -0.4244  0.2818
18705TIP3    H177530   0.533   4.449  11.943 -0.6787 -0.3128  0.3523
18705TIP3    H277531   0.521   4.523  11.811  1.2382 -0.6506 -0.0295
18706TIP3   OH277532   5.383   2.156   2.028  0.1593 -0.0065 -0.2219
18706TIP3    H177533   5.302   2.117   2.061 -0.2704  1.7243  0.8144
18706TIP3    H277534   5.452   2.121   2.086 -0.1566  0.3618  0.3818
18707TIP3   OH277535   3.531   1.785   3.001 -0.1708 -0.0913 -0.4878
18707TIP3    H177536   3.486   1.705   2.974  0.7269 -0.8291  0.1364
18707TIP3    H277537   3.467   1.832   3.053 -0.0893 -1.3630  0.8000
18708TIP3   OH277538   4.474   5.412  12.796 -0.0439  0.8933 -0.5751
18708TIP3    H177539   4.545   5.351  12.816  0.5152  1.6130 -0.3734
18708TIP3    H277540   4.517   5.494  12.773 -0.8014  1.2670 -0.6899
18709TIP3   OH277541   0.577   1.907   6.743 -0.1529  0.1445 -0.7173
18709TIP3    H177542   0.648   1.909   6.679 -1.3968  0.4031 -2.1149
18709TIP3    H277543   0.504   1.952   6.700 -0.7130  1.1705  1.2536
18710TIP3   OH277544   5.582   2.595  16.796  0.0166 -0.2181 -0.1554
18710TIP3    H177545   5.611   2.684  16.778  1.1804 -0.0281  2.4562
18710TIP3    H277546   5.640   2.540  16.744  0.9884  0.4502  0.1966
18711TIP3   OH277547   6.424   0.142   1.203 -0.0018 -0.1881  0.6457
18711TIP3    H177548   6.497   0.183   1.156 -0.4112 -0.5935 -0.3757
18711TIP3    H277549   6.376   0.215   1.242  1.0438  0.0657  1.4670
18712TIP3   OH277550   2.317   4.234  12.083 -0.3377  0.7714  0.6138
18712TIP3    H177551   2.243   4.184  12.116  1.0405 -0.6260  1.6576
18712TIP3    H277552   2.296   4.251  11.991 -0.4399 -2.5203 -0.0207
18713TIP3   OH277553   4.189   3.117  12.819 -0.2080  0.3651  0.3770
18713TIP3    H177554   4.278   3.148  12.805  1.0335 -3.2812 -0.4724
18713TIP3    H277555   4.133   3.182  12.776  2.2665  0.9019 -2.1574
18714TIP3   OH277556   3.600   4.716   2.746  0.5809 -0.1509  0.2278
18714TIP3    H177557   3.606   4.629   2.705 -1.2649 -0.3620  0.3865
18714TIP3    H277558   3.618   4.700   2.839  0.6435 -0.2970  0.1912
18715TIP3   OH277559   6.435   5.378   6.171 -0.0260  0.0666 -0.7613
18715TIP3    H177560   6.362   5.428   6.208  0.2202 -0.4879  0.4850
18715TIP3    H277561   6.513   5.427   6.196  0.2190 -0.9368  0.4804
18716TIP3   OH277562   4.815   6.080   0.830 -0.3826 -0.0585 -0.3398
18716TIP3    H177563   4.737   6.059   0.780 -0.2488 -1.4389  0.0185
18716TIP3    H277564   4.807   6.173   0.850 -2.0401 -0.2377 -0.1299
18717TIP3   OH277565   4.084   4.770  13.434  0.2299  0.0919  0.0700
18717TIP3    H177566   4.050   4.859  13.421  1.8117  0.5702 -0.9731
18717TIP3    H277567   4.143   4.778  13.510  0.6403  0.0239 -0.2378
18718TIP3   OH277568   2.100   0.017   3.867 -0.0819  0.8735  0.8061
18718TIP3    H177569   2.130  -0.056   3.921 -0.4159  0.5320  0.5334
18718TIP3    H277570   2.179   0.069   3.851  0.7039 -0.9234 -1.2990
18719TIP3   OH277571   3.975   1.879  12.313 -0.4181  0.1813  0.1035
18719TIP3    H177572   4.001   1.945  12.378  0.9565  0.0242 -0.2526
18719TIP3    H277573   3.950   1.803  12.365  1.2627 -0.1564  0.4670
18720TIP3   OH277574   3.907   1.984  11.136 -0.6911  0.4143 -0.1959
18720TIP3    H177575   3.906   1.916  11.069  0.8712  1.3138 -1.1421
18720TIP3    H277576   3.900   2.066  11.087  0.0845  1.0633  0.7737
18721TIP3   OH277577   1.262   4.099   3.060  0.0510 -0.7457  0.2900
18721TIP3    H177578   1.296   4.019   3.101 -2.1323 -1.2768  1.1092
18721TIP3    H277579   1.173   4.108   3.095  0.9211  3.1100  1.7411
18722TIP3   OH277580   1.309   3.211   3.321  0.1800  0.2463  0.1612
18722TIP3    H177581   1.368   3.152   3.274  0.9607  0.2585  1.1141
18722TIP3    H277582   1.254   3.153   3.374 -0.9818  0.2061 -1.0600
18723TIP3   OH277583   4.565   1.537   5.403 -0.6828 -0.0162  0.0040
18723TIP3    H177584   4.627   1.465   5.418 -0.5710 -0.1844 -1.1998
18723TIP3    H277585   4.578   1.561   5.311  2.0857  4.2194  1.3885
18724TIP3   OH277586   3.145   1.971   0.999  0.7597 -0.4361 -0.1825
18724TIP3    H177587   3.197   1.998   1.075  0.4636  0.6558 -0.3559
18724TIP3    H277588   3.209   1.963   0.929  0.6620  1.2653 -0.4854
18725TIP3   OH277589   5.638   3.930  16.384  0.3165 -0.1408  0.2193
18725TIP3    H177590   5.637   3.988  16.308  2.1800 -0.9790 -0.4516
18725TIP3    H277591   5.692   3.976  16.448 -1.7234  0.8358  1.2852
18726TIP3   OH277592   5.900   2.457   2.326  0.4254 -0.1049 -0.3176
18726TIP3    H177593   5.945   2.375   2.348  1.0297  0.1112 -0.7332
18726TIP3    H277594   5.854   2.438   2.244 -0.3020 -0.3443  0.1395
18727TIP3   OH277595   5.328   1.537   0.811 -0.2015  0.3273 -0.0201
18727TIP3    H177596   5.292   1.451   0.828 -0.8605  0.4140 -0.9054
18727TIP3    H277597   5.289   1.563   0.727  0.3444  1.2839  0.0110
18728TIP3   OH277598   1.272   6.691  12.600 -0.0956 -0.6061 -0.4686
18728TIP3    H177599   1.220   6.751  12.654  0.9705  1.6129 -1.8436
18728TIP3    H277600   1.219   6.678  12.521  1.2258  1.4081 -1.7350
18729TIP3   OH277601   1.566   3.717   6.610 -0.4966  0.0976 -1.1578
18729TIP3    H177602   1.483   3.669   6.615 -1.3383  1.6102 -0.0039
18729TIP3    H277603   1.540   3.804   6.577  0.6069  0.6254 -0.6475
18730TIP3   OH277604   3.150   3.696   0.352  0.1802 -0.0367 -0.7498
18730TIP3    H177605   3.218   3.763   0.353  0.1965 -0.0524  0.0557
18730TIP3    H277606   3.071   3.742   0.382 -0.2756  0.0862 -2.0947
18731TIP3   OH277607   1.799   4.886  14.345 -0.5353 -0.1095  0.3685
18731TIP3    H177608   1.799   4.978  14.318  0.9131 -0.0764  0.4112
18731TIP3    H277609   1.726   4.847  14.297  0.5219  0.4787 -1.8374
18732TIP3   OH277610   1.318   1.453   2.675 -0.5610 -0.1096 -0.1439
18732TIP3    H177611   1.338   1.407   2.756 -2.0240 -2.1684 -0.8960
18732TIP3    H277612   1.403   1.472   2.636  0.0725 -2.5420  0.0137
18733TIP3   OH277613   3.310   5.197   1.017  1.2341  0.6703 -0.0978
18733TIP3    H177614   3.309   5.163   1.106 -3.3906  2.2039  0.5543
18733TIP3    H277615   3.286   5.122   0.962 -1.0229  0.9411  0.5039
18734TIP3   OH277616   1.945   0.925  14.336 -0.3256  0.1125 -0.4368
18734TIP3    H177617   1.904   0.838  14.342 -1.0333  0.3857 -1.2797
18734TIP3    H277618   1.994   0.933  14.418 -2.4006 -0.0046  0.8747
18735TIP3   OH277619   3.326   2.965   2.074  0.4740 -0.5944  0.8188
18735TIP3    H177620   3.244   2.943   2.119 -0.6929  1.6480 -0.1297
18735TIP3    H277621   3.302   3.037   2.015  2.7908 -0.9732 -0.6359
18736TIP3   OH277622   3.651   0.476  16.481  0.3035 -0.1524  0.3222
18736TIP3    H177623   3.576   0.536  16.479  2.2176  2.2947 -0.0031
18736TIP3    H277624   3.613   0.390  16.501 -2.4584  1.2093  1.0665
18737TIP3   OH277625   6.311   4.586   1.321 -0.3845 -0.1040  0.2134
18737TIP3    H177626   6.385   4.553   1.269  0.7222  2.6596 -0.0756
18737TIP3    H277627   6.280   4.662   1.272 -2.3862 -0.2625  1.2017
18738TIP3   OH277628   6.052   1.303  12.861  0.2931  0.3473  0.1803
18738TIP3    H177629   5.968   1.350  12.859 -0.2310 -0.6019 -0.6580
18738TIP3    H277630   6.031   1.219  12.901  0.3776 -0.7877 -2.1291
18739TIP3   OH277631   0.539   1.438   3.057  0.0340 -0.4167 -0.2734
18739TIP3    H177632   0.446   1.432   3.034  0.1240  0.1073 -0.7757
18739TIP3    H277633   0.571   1.348   3.051 -0.4255 -0.5900 -0.1672
18740TIP3   OH277634   0.508   6.733  15.228 -0.5037 -0.5855  0.1900
18740TIP3    H177635   0.598   6.738  15.258 -0.4547  2.1272 -0.2806
18740TIP3    H277636   0.514   6.706  15.137 -0.1492 -0.1940  0.0973
18741TIP3   OH277637   4.756   2.318  13.329 -0.2322 -0.1912 -0.5618
18741TIP3    H177638   4.837   2.357  13.360 -0.3546 -0.3711 -0.0047
18741TIP3    H277639   4.783   2.242  13.277 -0.0086  0.3898 -1.3078
18742TIP3   OH277640   5.392   3.634  15.260  0.7215 -0.0264 -0.6201
18742TIP3    H177641   5.350   3.596  15.337  0.8094  0.1770 -0.4702
18742TIP3    H277642   5.397   3.562  15.197  1.4621 -0.4247 -0.1085
18743TIP3   OH277643   5.900   2.462  10.815  0.8172 -0.0441 -0.6353
18743TIP3    H177644   5.811   2.456  10.848  1.1708  0.8525  0.5367
18743TIP3    H277645   5.930   2.371  10.811 -0.5142 -0.4433 -2.1423
18744TIP3   OH277646   1.097   4.240   0.045 -0.4789  0.6269 -0.1686
18744TIP3    H177647   1.014   4.280   0.073 -0.5958  0.7567 -0.6916
18744TIP3    H277648   1.139   4.213   0.127 -2.3130 -2.0111 -0.0455
18745TIP3   OH277649   2.353   4.999   0.662 -0.3334 -0.5128 -0.0470
18745TIP3    H177650   2.308   4.944   0.727  0.0721  0.2809  0.9088
18745TIP3    H277651   2.302   5.079   0.659  0.3871 -0.0362  0.2480
18746TIP3   OH277652   6.348   3.107   2.219 -0.8658  0.2388 -0.5675
18746TIP3    H177653   6.374   3.035   2.276  0.9674  0.6397 -0.8432
18746TIP3    H277654   6.317   3.065   2.140 -0.6403 -0.2735 -0.3879
18747TIP3   OH277655   3.292   0.582   2.799 -0.3703  0.3382  0.0957
18747TIP3    H177656   3.269   0.628   2.718 -0.2657 -0.1976 -0.2425
18747TIP3    H277657   3.366   0.526   2.774 -2.4850 -2.3461 -0.2770
18748TIP3   OH277658   3.689   4.983  14.159  0.0516 -0.1269 -0.2624
18748TIP3    H177659   3.656   4.905  14.204 -0.3892 -0.3336 -0.9273
18748TIP3    H277660   3.637   5.055  14.194  0.8249 -0.0554  0.7444
18749TIP3   OH277661   3.370   1.456  16.135 -0.1719  0.7043  0.0179
18749TIP3    H177662   3.311   1.523  16.101 -0.2643  0.9746  0.6958
18749TIP3    H277663   3.347   1.449  16.228  1.0059  0.9762  0.3482
18750TIP3   OH277664   1.949   5.911   5.625 -0.0911  0.2612 -0.1136
18750TIP3    H177665   1.867   5.865   5.611 -1.0124  1.7302  0.2923
18750TIP3    H277666   1.971   5.893   5.717  0.2799 -0.5074 -0.3531
18751TIP3   OH277667   3.079   2.202  16.851 -0.2636 -0.3427  0.1455
18751TIP3    H177668   3.052   2.278  16.799  0.1333 -0.5826 -0.4275
18751TIP3    H277669   3.174   2.208  16.853 -0.2292 -0.8316  0.0768
18752TIP3   OH277670   1.436   6.357   5.052 -0.3964  0.2329 -0.0341
18752TIP3    H177671   1.404   6.415   5.120 -2.2056 -0.3354 -0.3766
18752TIP3    H277672   1.475   6.284   5.099  0.4803  0.9608  0.3857
18753TIP3   OH277673   5.343   6.748  16.846  0.6361 -0.0544 -0.1448
18753TIP3    H177674   5.421   6.789  16.807  0.3675  0.6665  0.0649
18753TIP3    H277675   5.311   6.814  16.908 -0.1054 -0.3821 -0.1838
18754TIP3   OH277676   4.827   4.802  14.332  0.3075 -0.6634 -0.0273
18754TIP3    H177677   4.747   4.780  14.285  0.4768 -1.9377  0.2732
18754TIP3    H277678   4.799   4.864  14.400 -0.4866 -1.4004  0.3214
18755TIP3   OH277679   1.011   6.091  15.754 -0.0161 -1.1228  0.0201
18755TIP3    H177680   1.060   6.041  15.819 -0.4235 -2.1375 -0.4450
18755TIP3    H277681   0.931   6.042  15.741 -0.6846 -0.0426 -0.0300
18756TIP3   OH277682   2.166   1.700   3.018  0.4293 -0.1292  0.2342
18756TIP3    H177683   2.203   1.683   2.932 -1.0088 -1.1407 -0.1990
18756TIP3    H277684   2.228   1.760   3.060  0.3045  1.7062 -2.1282
18757TIP3   OH277685   2.056   5.509  13.079 -0.1695 -0.0015 -0.0567
18757TIP3    H177686   1.965   5.490  13.056 -0.2693 -0.0240  0.3461
18757TIP3    H277687   2.097   5.424  13.091 -0.2863  0.0165  0.4857
18758TIP3   OH277688   3.108   1.949   6.025  0.5143 -0.0790 -0.2596
18758TIP3    H177689   3.079   1.898   5.949 -0.4060 -1.4995  1.0250
18758TIP3    H277690   3.202   1.960   6.012  0.4936 -0.9859 -1.2233
18759TIP3   OH277691   3.859   6.542  11.700 -0.3486  0.2186  0.3002
18759TIP3    H177692   3.931   6.584  11.654 -0.3591 -0.0000  0.0831
18759TIP3    H277693   3.901   6.498  11.774  0.0373 -1.6585 -0.9808
18760TIP3   OH277694   3.253   3.839   1.027  0.5231  0.3796  1.1240
18760TIP3    H177695   3.220   3.922   0.993  1.6020  0.2824 -0.2185
18760TIP3    H277696   3.314   3.808   0.960 -0.2788 -1.7735  1.3509
18761TIP3   OH277697   1.794   6.237  13.634 -0.5324 -0.3249 -0.1623
18761TIP3    H177698   1.812   6.307  13.571  0.5061 -0.4013  0.0340
18761TIP3    H277699   1.710   6.200  13.607 -1.3019  1.2862 -0.0045
18762TIP3   OH277700   1.936   1.494  12.700 -0.0343  0.5213 -0.1640
18762TIP3    H177701   1.969   1.582  12.681  3.6377 -1.1858 -2.2455
18762TIP3    H277702   1.974   1.472  12.785  0.0726  0.4691 -0.2250
18763TIP3   OH277703   0.231   2.889  14.656  0.3919 -0.1724 -0.4860
18763TIP3    H177704   0.270   2.801  14.665  0.2664 -0.0633  1.3731
18763TIP3    H277705   0.152   2.886  14.710  0.5004  1.1478 -0.2377
18764TIP3   OH277706   6.180   4.617   0.410  0.0138 -0.6285  0.1959
18764TIP3    H177707   6.178   4.632   0.316  0.9912  0.4468  0.3318
18764TIP3    H277708   6.239   4.684   0.444 -0.7964 -0.6227  1.6473
18765TIP3   OH277709   5.439   5.487  15.769 -0.4919 -0.7969  0.3843
18765TIP3    H177710   5.368   5.529  15.818 -0.8493 -0.4571 -0.4128
18765TIP3    H277711   5.407   5.484  15.679  0.3060 -1.0914  0.1071
18766TIP3   OH277712   0.378   3.158   4.329  0.4969  0.2099 -0.8235
18766TIP3    H177713   0.440   3.160   4.403 -1.1628  0.5464  0.6041
18766TIP3    H277714   0.402   3.081   4.279  1.4519 -0.2076  0.2610
18767TIP3   OH277715   0.160   3.135   3.628  0.4409 -0.2538 -0.0357
18767TIP3    H177716   0.083   3.096   3.588  0.1782  0.2004  0.0143
18767TIP3    H277717   0.141   3.136   3.722  1.0826 -1.3760  0.1136
18768TIP3   OH277718   1.182   5.371   0.289  0.4311 -0.2448  0.1169
18768TIP3    H177719   1.200   5.415   0.206  1.9303  1.8982  1.5351
18768TIP3    H277720   1.119   5.428   0.334  1.6974  0.0291  1.5825
18769TIP3   OH277721   4.676   2.417   3.941 -0.8596 -0.0542 -0.3679
18769TIP3    H177722   4.614   2.451   3.876 -0.3301 -0.4920 -1.1063
18769TIP3    H277723   4.704   2.494   3.990  0.0988  0.5440 -1.8223
18770TIP3   OH277724   2.457   2.187  15.960 -0.1009 -0.1903 -0.0277
18770TIP3    H177725   2.406   2.121  16.007  0.0496  0.5321  1.1654
18770TIP3    H277726   2.410   2.269  15.975 -0.5082 -0.0650 -1.8316
18771TIP3   OH277727   1.907   4.708   2.840  0.0418 -0.6019  0.0017
18771TIP3    H177728   1.869   4.682   2.924  0.2716 -0.6166  0.1016
18771TIP3    H277729   1.936   4.626   2.801  0.5122 -0.5227  0.1905
18772TIP3   OH277730   0.593   1.385  11.992 -0.4891  0.2364  0.0578
18772TIP3    H177731   0.567   1.305  12.038  1.5207 -0.0071  0.8329
18772TIP3    H277732   0.532   1.452  12.022 -1.3214 -0.6985  0.4686
18773TIP3   OH277733   5.188   0.018  16.298  0.0323  0.1777  0.3064
18773TIP3    H177734   5.245   0.027  16.222 -0.8350 -0.2525 -0.4202
18773TIP3    H277735   5.208  -0.069  16.333  2.2351  1.3850  2.1091
18774TIP3   OH277736   5.164   3.963  11.407  0.1145 -0.2457  0.0889
18774TIP3    H177737   5.117   3.933  11.329 -0.5831 -1.1144  0.8220
18774TIP3    H277738   5.097   3.964  11.475  0.7027  0.5988  0.6532
18775TIP3   OH277739   1.369   2.957   0.665 -0.2022 -0.0775  0.2093
18775TIP3    H177740   1.396   2.890   0.602 -0.3979  0.8021 -0.8154
18775TIP3    H277741   1.275   2.965   0.652 -0.2028  0.2896  0.4472
18776TIP3   OH277742   5.358   6.134  14.063 -0.4122  0.1149 -0.2323
18776TIP3    H177743   5.335   6.176  14.146 -1.6513 -0.5504 -0.2350
18776TIP3    H277744   5.274   6.113  14.022  0.1708  1.0533 -1.9757
18777TIP3   OH277745   4.458   2.235   0.007 -0.0376  0.3624 -0.2033
18777TIP3    H177746   4.536   2.222  -0.048  0.2286 -1.3480  0.5458
18777TIP3    H277747   4.485   2.300   0.072  0.2486  0.9824 -0.9427
18778TIP3   OH277748   3.103   4.989  17.107 -0.7422  0.3884  0.2113
18778TIP3    H177749   3.048   5.066  17.093  0.2200  1.2240  0.9180
18778TIP3    H277750   3.044   4.923  17.144 -2.0976 -0.0179 -2.5088
18779TIP3   OH277751   4.014   2.173   2.860  0.4658  0.5084 -0.0559
18779TIP3    H177752   3.990   2.236   2.928 -1.6264 -0.5601  0.2083
18779TIP3    H277753   4.004   2.088   2.901  1.7290 -0.0779 -0.9231
18780TIP3   OH277754   5.264   3.958  14.251 -0.0198  0.8449 -0.1922
18780TIP3    H177755   5.278   3.879  14.198 -1.5037  0.4048  0.0352
18780TIP3    H277756   5.337   4.015  14.228  0.8278 -0.4109 -0.7082
18781TIP3   OH277757   4.818   0.745  11.213  0.7551  0.7091  0.1470
18781TIP3    H177758   4.815   0.840  11.221  0.4627  0.8464 -1.4127
18781TIP3    H277759   4.806   0.712  11.302  0.5535  2.1238  0.6458
18782TIP3   OH277760   3.808   2.908   6.812 -0.1067  0.3449 -0.1944
18782TIP3    H177761   3.845   2.943   6.731 -0.5943 -1.9756 -1.4525
18782TIP3    H277762   3.854   2.826   6.826 -0.5956  0.3342  1.4580
18783TIP3   OH277763   5.934   4.116  12.571 -0.4204  0.4584  0.2731
18783TIP3    H177764   5.977   4.163  12.643  2.8314 -1.4370 -0.3146
18783TIP3    H277765   5.992   4.130  12.496 -1.9252 -0.5058 -1.0980
18784TIP3   OH277766   6.226   4.991   5.938 -0.4837  0.1392  0.7154
18784TIP3    H177767   6.198   5.070   5.984 -1.6610 -0.6461  1.3628
18784TIP3    H277768   6.279   4.944   6.001 -1.5090 -0.5943  1.0387
18785TIP3   OH277769   5.336   6.561   2.144  0.0810  0.0434 -0.3119
18785TIP3    H177770   5.285   6.638   2.166  1.1231  0.9828 -1.1193
18785TIP3    H277771   5.373   6.531   2.227 -1.3650 -0.3504  0.1927
18786TIP3   OH277772   4.805   1.868   1.077  0.2035  0.7089  0.2112
18786TIP3    H177773   4.831   1.957   1.098  0.4286  0.9551 -1.0656
18786TIP3    H277774   4.709   1.869   1.084  0.1040  1.3966 -1.0284
18787TIP3   OH277775   3.156   6.559   4.340  0.2923  0.2753  0.0809
18787TIP3    H177776   3.118   6.493   4.398  0.8855 -0.5840 -0.4869
18787TIP3    H277777   3.148   6.521   4.252 -3.3937  2.8774 -0.8263
18788TIP3   OH277778   3.009   3.837   1.453 -0.1081 -0.3736 -0.3262
18788TIP3    H177779   2.943   3.895   1.490  0.6640  0.4148 -0.1715
18788TIP3    H277780   3.027   3.874   1.367  0.3741 -0.3936 -0.2333
18789TIP3   OH277781   1.554   2.593  16.746 -0.0811  0.8299 -0.0301
18789TIP3    H177782   1.586   2.647  16.818 -3.1085 -0.1154  2.1313
18789TIP3    H277783   1.536   2.655  16.675  1.2531  1.9970  0.6292
18790TIP3   OH277784   3.387   5.115   3.081  0.0425  0.3498 -0.3496
18790TIP3    H177785   3.455   5.050   3.063  2.0833  2.3790 -0.3565
18790TIP3    H277786   3.310   5.065   3.107  1.6626 -2.0164 -0.0297
18791TIP3   OH277787   3.698   5.651   0.816 -0.0649  0.0503 -0.3011
18791TIP3    H177788   3.762   5.592   0.855  0.7574  0.8931 -0.3588
18791TIP3    H277789   3.675   5.609   0.733  0.0156 -0.5168 -0.0400
18792TIP3   OH277790   2.323   2.790   4.018  0.1048  0.1420  0.2962
18792TIP3    H177791   2.386   2.853   3.982  0.7236 -1.3947 -1.4044
18792TIP3    H277792   2.370   2.707   4.018 -1.5009 -0.7828  0.2225
18793TIP3   OH277793   1.634   1.853  13.266 -0.1637 -0.0495  0.0695
18793TIP3    H177794   1.605   1.802  13.190  3.3818 -2.1710  0.0542
18793TIP3    H277795   1.625   1.793  13.340  0.4201  0.5874  0.6647
18794TIP3   OH277796   3.605   2.392  15.219 -0.3037 -0.9901  0.6164
18794TIP3    H177797   3.606   2.298  15.203 -1.6308 -1.0714  0.9515
18794TIP3    H277798   3.572   2.401  15.308  1.2471 -0.2625  1.1414
18795TIP3   OH277799   1.922   5.849   1.165 -0.1014  0.3895  0.5139
18795TIP3    H177800   1.927   5.789   1.091 -0.0169  0.8228  0.1647
18795TIP3    H277801   1.920   5.793   1.242  1.1998 -0.0272  0.2526
18796TIP3   OH277802   1.626   4.341  12.494 -0.5961  0.3274 -0.2569
18796TIP3    H177803   1.603   4.418  12.442  0.0896  1.7742  1.5146
18796TIP3    H277804   1.680   4.287  12.436  0.6247  2.1737 -0.8733
18797TIP3   OH277805   3.722   5.094  11.396  0.3499 -0.2854  0.2104
18797TIP3    H177806   3.734   5.131  11.308  0.1835 -2.3597 -0.7091
18797TIP3    H277807   3.803   5.046  11.413 -0.5057 -1.7229  0.2700
18798TIP3   OH277808   2.754   2.581   3.934  0.0486  0.0138 -0.2854
18798TIP3    H177809   2.789   2.582   3.844  1.6920  1.2497  0.3406
18798TIP3    H277810   2.780   2.496   3.969 -0.3219 -0.3462 -0.8560
18799TIP3   OH277811   5.801   6.235  11.333  0.2087 -0.1162  0.2632
18799TIP3    H177812   5.879   6.185  11.358  0.3861 -0.8355 -1.6208
18799TIP3    H277813   5.817   6.323  11.367  0.8732 -0.7950  1.7353
18800TIP3   OH277814   1.147   3.721   0.096 -0.0100  0.2022  0.3006
18800TIP3    H177815   1.219   3.703   0.035 -0.2534 -1.2183  0.4211
18800TIP3    H277816   1.068   3.710   0.043 -0.1891  0.0571  0.5954
18801TIP3   OH277817   2.171   5.588   2.080  0.4216 -0.1445 -0.3049
18801TIP3    H177818   2.153   5.617   2.170  1.2595  2.3188 -0.8911
18801TIP3    H277819   2.262   5.614   2.065  0.8070 -1.9861 -1.3483
18802TIP3   OH277820   3.554   3.962   5.089  0.0473  0.0830 -0.0594
18802TIP3    H177821   3.601   3.958   5.006 -0.3678  0.0428 -0.2926
18802TIP3    H277822   3.490   3.890   5.084 -0.1106  0.2025  0.2120
18803TIP3   OH277823   6.259   3.616   5.764  0.3637 -0.0059 -0.0591
18803TIP3    H177824   6.301   3.702   5.757  0.7984 -0.2881 -1.0459
18803TIP3    H277825   6.169   3.632   5.735  0.0591  0.4021  1.1131
18804TIP3   OH277826   0.863   0.298  12.523 -0.1208  0.5259  0.6937
18804TIP3    H177827   0.917   0.376  12.515 -0.9990  1.2078  1.3213
18804TIP3    H277828   0.773   0.330  12.515 -0.4210 -0.6311 -0.6418
18805TIP3   OH277829   1.164   4.807  10.569 -0.0628  0.3210  0.1951
18805TIP3    H177830   1.259   4.813  10.559 -0.2536  0.2813 -1.8025
18805TIP3    H277831   1.134   4.897  10.568 -0.0858  0.3156  0.4086
18806TIP3   OH277832   4.810   1.604  16.261 -0.3056 -0.2746  0.8666
18806TIP3    H177833   4.750   1.638  16.327 -0.4253 -0.3793  0.8121
18806TIP3    H277834   4.893   1.591  16.307 -0.1221  0.5587  0.7668
18807TIP3   OH277835   5.381   1.399  15.567  0.3421 -0.1433  0.7687
18807TIP3    H177836   5.309   1.380  15.627  0.7683 -3.3168  0.3541
18807TIP3    H277837   5.453   1.343  15.598  1.2432 -0.2222 -1.4192
18808TIP3   OH277838   5.791   0.817  12.006  0.2108 -0.0039  0.4584
18808TIP3    H177839   5.843   0.760  11.949 -0.3474 -2.1188  1.9859
18808TIP3    H277840   5.705   0.819  11.966  0.5272  0.6562 -0.1910
18809TIP3   OH277841   0.327   0.281  16.330  0.3509  0.0098  0.3352
18809TIP3    H177842   0.263   0.255  16.263  0.9698  2.5444 -1.2986
18809TIP3    H277843   0.411   0.251  16.297  0.4668 -0.1016  0.7242
18810TIP3   OH277844   4.041   2.863   0.830 -0.9511  0.1448 -0.1731
18810TIP3    H177845   4.107   2.811   0.876  0.0150  2.5119  1.2609
18810TIP3    H277846   4.093   2.924   0.776 -2.0441 -0.6962 -2.2114
18811TIP3   OH277847   0.496   0.902   4.524  0.3010 -1.1153 -0.3026
18811TIP3    H177848   0.406   0.868   4.521  0.0210 -0.3864 -0.2740
18811TIP3    H277849   0.494   0.981   4.470  1.0653 -1.4069 -0.7601
18812TIP3   OH277850   4.265   3.639   4.582  0.0948  0.2136  0.0433
18812TIP3    H177851   4.286   3.710   4.642  0.1430 -0.2894  0.6320
18812TIP3    H277852   4.343   3.582   4.585 -0.8962 -1.0984  1.3977
18813TIP3   OH277853   1.814   3.694  13.525  0.2052 -0.4888 -0.0486
18813TIP3    H177854   1.847   3.715  13.437  0.7012 -1.0481  0.0023
18813TIP3    H277855   1.772   3.609  13.515  0.1945 -0.5157  0.2383
18814TIP3   OH277856   0.971   4.427   1.155 -0.1482 -0.4232 -0.0596
18814TIP3    H177857   0.996   4.348   1.107  0.0347  0.6530 -1.7793
18814TIP3    H277858   0.884   4.449   1.121  1.2621  2.1074 -2.2614
18815TIP3   OH277859   2.562   6.271   2.491 -0.1880  0.3883  0.4022
18815TIP3    H177860   2.605   6.234   2.568 -1.4148  0.4271  1.1143
18815TIP3    H277861   2.552   6.364   2.511  0.3388  0.5800 -0.2047
18816TIP3   OH277862   1.535   2.076  11.545 -0.0003  0.6847  0.2542
18816TIP3    H177863   1.610   2.114  11.590  1.8773  0.9145 -2.9579
18816TIP3    H277864   1.488   2.151  11.508 -0.3965  0.3575  0.0797
18817TIP3   OH277865   1.818   0.406   4.821  0.5204  0.9751  0.1586
18817TIP3    H177866   1.797   0.323   4.779 -1.0072  0.5480  1.6660
18817TIP3    H277867   1.833   0.383   4.913  6.2679  1.5156 -0.4645
18818TIP3   OH277868   5.116   4.522   3.846  0.0186  0.0767  0.2422
18818TIP3    H177869   5.090   4.466   3.919 -0.6896 -0.6026 -0.5116
18818TIP3    H277870   5.130   4.462   3.773 -2.9105  1.0003 -1.1907
18819TIP3   OH277871   6.000   0.949  10.812 -0.2381 -0.1305 -0.0653
18819TIP3    H177872   6.008   0.989  10.725  0.1353 -0.8947 -0.3947
18819TIP3    H277873   6.076   0.982  10.860 -1.4694  1.8143  0.6217
18820TIP3   OH277874   6.296   4.032  11.089  0.1829  0.2436  0.4499
18820TIP3    H177875   6.328   3.946  11.060 -0.5514 -0.1716  0.8653
18820TIP3    H277876   6.363   4.093  11.058 -0.1817 -0.2702 -1.4390
18821TIP3   OH277877   6.017   3.051   2.865 -0.0201  0.1817 -0.1057
18821TIP3    H177878   5.981   3.013   2.785 -1.0564  0.2197  0.3286
18821TIP3    H277879   5.983   2.996   2.935 -0.7403  1.3237  0.4492
18822TIP3   OH277880   0.279   0.483   0.840  0.1427 -0.1180  0.0245
18822TIP3    H177881   0.298   0.396   0.876  0.0331 -0.1064  0.1102
18822TIP3    H277882   0.338   0.491   0.765  0.6713  0.0333  0.4532
18823TIP3   OH277883   3.513   4.229  16.428  0.2315 -0.2618  0.5648
18823TIP3    H177884   3.431   4.267  16.459  0.0792 -0.3331  0.2476
18823TIP3    H277885   3.534   4.161  16.492  0.3294  0.1267  0.9485
18824TIP3   OH277886   5.320   3.772   3.414 -0.6006  0.8701 -0.0547
18824TIP3    H177887   5.324   3.680   3.387 -1.0588  0.9092 -0.2715
18824TIP3    H277888   5.332   3.770   3.509 -1.2607  0.5205  0.0315
18825TIP3   OH277889   5.183   0.243  17.238  0.6959  0.1062  0.0022
18825TIP3    H177890   5.275   0.239  17.264  0.6799  0.7039  0.1607
18825TIP3    H277891   5.185   0.233  17.142  0.7144 -2.5504  0.2522
18826TIP3   OH277892   0.873   4.984   2.805  0.2281 -0.3804  0.0782
18826TIP3    H177893   0.956   5.007   2.848  0.7444 -1.2976 -0.4082
18826TIP3    H277894   0.891   4.900   2.763 -0.9760 -0.6104  0.0220
18827TIP3   OH277895   2.119   5.837   4.615  0.3742 -0.8596  0.0082
18827TIP3    H177896   2.076   5.893   4.680  1.4527  0.2860 -0.2507
18827TIP3    H277897   2.048   5.809   4.557 -0.1449  0.3700  0.0356
18828TIP3   OH277898   4.632   0.048   4.936  0.3396 -0.2498 -0.0351
18828TIP3    H177899   4.695   0.017   4.871  1.4488  1.8689 -0.0274
18828TIP3    H277900   4.633  -0.020   5.004  1.0447 -1.2602 -1.0290
18829TIP3   OH277901   3.842   4.823   5.664 -0.2174 -0.4086  0.3829
18829TIP3    H177902   3.891   4.861   5.736  1.0138  0.5534 -0.9338
18829TIP3    H277903   3.819   4.735   5.694  0.8105 -0.2374  1.6962
18830TIP3   OH277904   4.223   2.330  13.177 -0.4865 -0.3062 -0.1957
18830TIP3    H177905   4.168   2.404  13.201 -1.5935 -0.9650 -0.6747
18830TIP3    H277906   4.178   2.289  13.103 -1.2813 -2.9727  1.6602
18831TIP3   OH277907   6.460   0.476   2.869  0.4567  0.7354  0.0115
18831TIP3    H177908   6.424   0.492   2.957  0.9501  1.1330  0.1515
18831TIP3    H277909   6.393   0.508   2.809  0.4449  1.1898  0.2620
18832TIP3   OH277910   3.141   2.328   3.288  0.2383  0.2268  0.3514
18832TIP3    H177911   3.220   2.275   3.277  1.2411  1.8940 -0.7301
18832TIP3    H277912   3.098   2.326   3.203  0.4230  1.3274  0.2208
18833TIP3   OH277913   6.097   6.755  14.829 -0.6781  0.0496  0.3035
18833TIP3    H177914   6.128   6.728  14.916 -2.2703  0.0530  0.8867
18833TIP3    H277915   6.014   6.709  14.818 -0.9571  0.8014 -0.8305
18834TIP3   OH277916   2.141   6.391  14.249 -0.5737  0.0775  0.2615
18834TIP3    H177917   2.047   6.405  14.260 -0.3540  0.7732  1.3542
18834TIP3    H277918   2.152   6.366  14.157 -1.6962  1.0765 -0.1467
18835TIP3   OH277919   1.564   6.175  11.196  0.1794  0.5272  0.4212
18835TIP3    H177920   1.474   6.205  11.209  0.0069 -0.1844  0.9514
18835TIP3    H277921   1.572   6.163  11.102 -0.4722  0.0411  0.4215
18836TIP3   OH277922   2.777   0.284  16.548  0.8786 -0.5677  0.5717
18836TIP3    H177923   2.865   0.314  16.529  0.7532 -1.5763 -1.9158
18836TIP3    H277924   2.726   0.310  16.471 -0.9392 -0.2093  1.8674
18837TIP3   OH277925   2.374   5.861   4.484  0.8696 -0.1188 -0.2169
18837TIP3    H177926   2.281   5.837   4.491  1.4206 -2.3078 -0.1342
18837TIP3    H277927   2.373   5.946   4.440 -1.0332 -1.9022 -3.8908
18838TIP3   OH277928   3.481   1.728   3.517  0.0776 -0.2829  0.1335
18838TIP3    H177929   3.539   1.653   3.506  0.5725  0.0774  0.2801
18838TIP3    H277930   3.463   1.731   3.611  1.0405  0.5110  0.2982
18839TIP3   OH277931   5.725   2.924   2.934  0.0565 -0.0142 -0.1495
18839TIP3    H177932   5.752   2.883   2.852 -1.4107 -0.1790 -0.5659
18839TIP3    H277933   5.669   2.997   2.907  1.3471  1.3056  0.6328
18840TIP3   OH277934   1.655   3.996   3.373 -0.2116 -0.4724 -0.7329
18840TIP3    H177935   1.597   3.929   3.412  0.1593 -0.1095  0.4683
18840TIP3    H277936   1.732   3.947   3.345 -0.4182 -0.7181 -0.8771
18841TIP3   OH277937   5.838   4.803   3.730 -1.1493  0.0653  0.4421
18841TIP3    H177938   5.830   4.759   3.815 -2.6156 -0.4247  0.0662
18841TIP3    H277939   5.788   4.884   3.739 -1.3662 -0.0185  0.0410
18842TIP3   OH277940   3.903   4.069   0.224  0.5881  0.6582 -0.1753
18842TIP3    H177941   3.881   4.150   0.178  1.8467  0.4880 -1.0978
18842TIP3    H277942   3.981   4.092   0.276 -2.3785  1.6607  4.1478
18843TIP3   OH277943   1.463   1.701   1.678  0.2327  0.4110  0.4447
18843TIP3    H177944   1.529   1.740   1.622  0.4476 -0.7199 -0.1030
18843TIP3    H277945   1.380   1.724   1.636  0.3160  1.1295  0.6772
18844TIP3   OH277946   4.286   1.311   1.797  0.4488 -0.5059 -0.2869
18844TIP3    H177947   4.271   1.356   1.714  3.6068  0.6936 -0.2856
18844TIP3    H277948   4.308   1.221   1.772 -0.9568 -0.7627 -0.6046
18845TIP3   OH277949   2.563   0.780   3.091 -0.0007 -0.1021 -0.0029
18845TIP3    H177950   2.651   0.809   3.069  0.8893 -3.0587 -0.5272
18845TIP3    H277951   2.513   0.861   3.101  3.1180  1.6853  1.9149
18846TIP3   OH277952   5.751   5.844   1.318  0.3267 -0.3278  0.0933
18846TIP3    H177953   5.683   5.910   1.303 -1.3206 -1.7979  1.0517
18846TIP3    H277954   5.803   5.845   1.237 -0.2471  1.4407 -0.2843
18847TIP3   OH277955   2.943   3.962  13.829 -0.2216 -0.0019  0.3843
18847TIP3    H177956   2.850   3.941  13.818 -0.0677 -0.4015 -0.1127
18847TIP3    H277957   2.978   3.965  13.741 -0.0305  1.3860  0.5007
18848TIP3   OH277958   3.757   2.142   1.784 -0.2954  0.0645 -0.0690
18848TIP3    H177959   3.800   2.070   1.738 -0.9753  0.1451 -0.8423
18848TIP3    H277960   3.797   2.221   1.747 -2.3640  0.2149 -2.1477
18849TIP3   OH277961   4.728   5.093   0.714 -0.0339  0.0350 -0.0939
18849TIP3    H177962   4.700   5.146   0.788  1.0731  1.5230 -0.7149
18849TIP3    H277963   4.713   5.003   0.742 -2.4699  0.6811  0.7576
18850TIP3   OH277964   1.597   1.778   0.007  0.2997 -0.1280  0.3500
18850TIP3    H177965   1.561   1.698  -0.030  0.4533 -0.1119  0.1584
18850TIP3    H277966   1.527   1.843  -0.001  0.8368  0.2819 -1.3380
18851TIP3   OH277967   0.839   2.245  13.811  0.9968 -0.3302 -0.3703
18851TIP3    H177968   0.928   2.209  13.810  1.3173  0.3657  1.3968
18851TIP3    H277969   0.791   2.188  13.873  0.3996 -0.2645 -0.7664
18852TIP3   OH277970   6.735   2.669  14.575  0.2031 -0.5080  0.0754
18852TIP3    H177971   6.711   2.721  14.498 -0.1962  0.6684  0.9715
18852TIP3    H277972   6.657   2.672  14.631  0.7494 -0.7267  0.8497
18853TIP3   OH277973   6.497   3.366   0.097 -0.3647 -0.3842 -0.0587
18853TIP3    H177974   6.571   3.389   0.040  0.1492 -0.5457  0.5348
18853TIP3    H277975   6.443   3.445   0.099  1.1491  0.6533  1.5929
18854TIP3   OH277976   3.945   6.144  15.967  0.3188  0.9973  0.1902
18854TIP3    H177977   3.989   6.172  16.047  0.0115 -2.0996  1.5072
18854TIP3    H277978   3.855   6.125  15.994  0.0509  0.4984 -0.9977
18855TIP3   OH277979   3.904   2.322  13.762 -0.1230 -0.3222 -0.2002
18855TIP3    H177980   3.871   2.280  13.841 -0.6694  0.9378  0.2463
18855TIP3    H277981   3.976   2.377  13.792  1.4545 -1.9202 -0.9673
18856TIP3   OH277982   5.223   6.433  15.345 -0.0880  0.3483 -0.5039
18856TIP3    H177983   5.165   6.500  15.381  0.2285  0.5917 -0.4413
18856TIP3    H277984   5.311   6.459  15.375  0.1362  0.3646 -1.1537
18857TIP3   OH277985   6.714   4.990  14.219 -0.2808 -0.5461 -0.4864
18857TIP3    H177986   6.803   4.973  14.188 -0.0164  0.7772 -0.4872
18857TIP3    H277987   6.698   4.922  14.285  0.5178 -1.1280 -0.8833
18858TIP3   OH277988   2.400   1.755  15.547 -0.0781  0.7839 -0.1778
18858TIP3    H177989   2.480   1.743  15.598 -0.1996  1.2296  0.1157
18858TIP3    H277990   2.386   1.670  15.505 -0.1244  0.3313  0.7351
18859TIP3   OH277991   5.582   2.539  11.654 -0.5583  0.0824  0.1112
18859TIP3    H177992   5.572   2.620  11.604 -1.8280 -0.5150 -0.6084
18859TIP3    H277993   5.508   2.484  11.628  0.7327 -1.6492 -0.0439
18860TIP3   OH277994   5.836   2.569  13.672 -0.4245 -0.3923 -0.3430
18860TIP3    H177995   5.834   2.551  13.578  0.0872  1.1604 -0.6741
18860TIP3    H277996   5.880   2.494  13.711 -1.3229 -1.4047 -1.2525
18861TIP3   OH277997   5.297   3.875  17.156 -0.7197  0.1038  0.6001
18861TIP3    H177998   5.318   3.819  17.081  0.4809  2.2092 -0.6686
18861TIP3    H277999   5.342   3.833  17.230  0.9012 -0.1292 -0.4982
18862TIP3   OH278000   2.551   6.004  14.610 -0.4385  0.4100  0.4835
18862TIP3    H178001   2.467   6.043  14.583 -0.5735  0.2804  0.7176
18862TIP3    H278002   2.568   5.938  14.543  0.3036  1.5677 -0.4924
18863TIP3   OH278003   3.453   5.918   3.622 -0.7911  0.6735 -0.2600
18863TIP3    H178004   3.413   5.861   3.688 -0.2926 -0.6230 -1.0575
18863TIP3    H278005   3.443   5.870   3.540  0.7631  1.1787 -0.7556
18864TIP3   OH278006   5.627   6.723  13.871 -0.2149  0.1816 -0.3838
18864TIP3    H178007   5.572   6.649  13.848 -0.6942  0.4193 -0.0230
18864TIP3    H278008   5.717   6.692  13.858 -0.3929 -0.6583  0.3551
18865TIP3   OH278009   6.760   5.004  16.200 -0.4474 -0.1978  0.0592
18865TIP3    H178010   6.760   4.915  16.165 -1.8105  0.0226 -0.5209
18865TIP3    H278011   6.667   5.027  16.208 -0.1170  0.8271  1.0895
18866TIP3   OH278012   5.876   0.183  15.931  0.2437  0.6170 -0.0621
18866TIP3    H178013   5.830   0.265  15.946  1.0043  1.0636 -0.1635
18866TIP3    H278014   5.962   0.196  15.970  0.3799 -0.1275 -0.0997
18867TIP3   OH278015   1.650   0.989   2.815  0.4775  0.1900 -0.3898
18867TIP3    H178016   1.676   1.061   2.758  0.8859  0.2098 -0.1815
18867TIP3    H278017   1.722   0.926   2.807 -0.5312 -0.8286 -1.6717
18868TIP3   OH278018   2.293   6.456  10.711  0.0228 -0.0028  0.0528
18868TIP3    H178019   2.369   6.449  10.769  0.6246  0.5316 -0.6627
18868TIP3    H278020   2.281   6.550  10.698 -0.4141 -0.1030 -0.2929
18869TIP3   OH278021   6.522   4.039  14.235 -0.1547 -0.6497 -0.2814
18869TIP3    H178022   6.460   3.973  14.207  1.5762 -1.4705 -2.2784
18869TIP3    H278023   6.508   4.113  14.175  0.8610 -0.8773 -0.8042
18870TIP3   OH278024   2.458   0.012   3.068 -0.2592 -0.6943  0.2144
18870TIP3    H178025   2.463  -0.036   3.151 -1.9176 -0.7446  0.3094
18870TIP3    H278026   2.378   0.064   3.076  0.2011  0.2054 -0.8893
18871TIP3   OH278027   3.358   5.681  13.063  0.0378  0.4067 -0.1928
18871TIP3    H178028   3.279   5.734  13.077 -1.1791 -1.3413 -0.3301
18871TIP3    H278029   3.325   5.598  13.029  2.0732  0.2614 -1.8660
18872TIP3   OH278030   1.929   2.400   1.272  0.2154 -0.1106 -0.9852
18872TIP3    H178031   2.016   2.419   1.309  1.1233 -3.0389 -1.5254
18872TIP3    H278032   1.928   2.306   1.259 -3.4263 -0.2512 -0.2101
18873TIP3   OH278033   2.350   5.773   6.141  0.1310 -0.3836 -0.3677
18873TIP3    H178034   2.386   5.762   6.229 -0.7062  1.9814  0.2988
18873TIP3    H278035   2.427   5.769   6.084  0.7526 -1.2696  0.5020
18874TIP3   OH278036   4.348   1.411  16.011  0.4065  0.3436  0.0710
18874TIP3    H178037   4.270   1.420  15.956  0.3793  1.5637  0.2873
18874TIP3    H278038   4.370   1.501  16.036  2.6149  0.1525 -1.0095
18875TIP3   OH278039   4.548   4.734  16.655 -0.2532 -0.5220  0.0138
18875TIP3    H178040   4.478   4.796  16.676 -1.8034 -1.5545 -1.9402
18875TIP3    H278041   4.512   4.680  16.584  2.5453 -1.0637 -1.0415
18876TIP3   OH278042   4.050   0.713   2.571  0.1463  0.4868 -0.0628
18876TIP3    H178043   4.117   0.776   2.597  0.1958  1.8783 -3.2718
18876TIP3    H278044   4.098   0.639   2.535  0.0155 -0.2271  1.1941
18877TIP3   OH278045   1.132   6.709  12.979 -0.4367 -0.4728 -0.6802
18877TIP3    H178046   1.178   6.735  13.059 -0.3196 -1.5243 -0.4025
18877TIP3    H278047   1.144   6.783  12.920 -0.6013  0.3541  0.3009
18878TIP3   OH278048   6.013   5.546  12.184 -0.2549  0.0594 -0.1152
18878TIP3    H178049   6.044   5.540  12.093  0.4244  1.4084  0.0192
18878TIP3    H278050   5.922   5.518  12.180 -0.0626 -0.4488 -1.1218
18879TIP3   OH278051   6.407   1.673  11.153 -0.2361  0.1640 -0.2021
18879TIP3    H178052   6.485   1.659  11.100 -0.7832  0.4100 -1.0914
18879TIP3    H278053   6.371   1.756  11.121  0.6368  1.4679  2.1031
18880TIP3   OH278054   0.296   1.587  15.626 -0.1090 -0.4955 -0.0981
18880TIP3    H178055   0.206   1.589  15.658 -0.7813 -1.2474 -1.8581
18880TIP3    H278056   0.311   1.675  15.591 -0.1103 -0.3185  0.3517
18881TIP3   OH278057   5.590   6.442   0.750 -0.4788 -0.2830  0.1819
18881TIP3    H178058   5.541   6.359   0.749 -1.4560  0.2968 -0.3325
18881TIP3    H278059   5.523   6.509   0.755  0.2212  0.5778 -1.7219
18882TIP3   OH278060   0.004   4.179  14.897  0.5054 -0.0313 -0.1832
18882TIP3    H178061  -0.074   4.125  14.906  0.2422  0.4251  0.3115
18882TIP3    H278062   0.040   4.186  14.985 -0.2138  1.6898  0.0027
18883TIP3   OH278063   6.117   3.275  13.879 -0.7584  1.2250  0.0434
18883TIP3    H178064   6.186   3.336  13.854 -0.4681  2.1609  2.8883
18883TIP3    H278065   6.156   3.188  13.868  0.4958  1.7258  0.4866
18884TIP3   OH278066   4.646   3.266   2.745 -0.3691  0.3215 -0.1323
18884TIP3    H178067   4.688   3.188   2.711  2.0441  1.3581  0.3406
18884TIP3    H278068   4.637   3.324   2.669 -1.5120 -0.1256 -0.3467
18885TIP3   OH278069   4.615   1.499   0.769  0.7400  0.1644 -0.7261
18885TIP3    H178070   4.541   1.495   0.830  1.3439 -1.3585 -0.0655
18885TIP3    H278071   4.647   1.589   0.776 -0.8478  0.7563 -0.7917
18886TIP3   OH278072   0.935   3.457  12.595  0.0049 -0.3559  0.8339
18886TIP3    H178073   0.853   3.452  12.545 -0.1507  0.3231  1.0127
18886TIP3    H278074   0.999   3.413  12.540 -0.6051 -1.4250  0.9531
18887TIP3   OH278075   0.974   4.404  12.134  0.4864  0.0213 -0.2014
18887TIP3    H178076   0.905   4.386  12.070 -0.4216 -0.2062  0.8166
18887TIP3    H278077   1.032   4.329  12.129  0.0669 -0.2985 -0.3027
18888TIP3   OH278078   4.783   1.392  10.733  0.1397  0.4211 -0.3907
18888TIP3    H178079   4.872   1.361  10.750 -0.7214 -1.4650  0.7626
18888TIP3    H278080   4.760   1.355  10.648  0.8325  1.8153 -1.2114
18889TIP3   OH278081   1.481   2.375   3.981  0.5568 -0.3866 -0.3299
18889TIP3    H178082   1.457   2.297   4.031  0.5116 -0.9762 -1.2611
18889TIP3    H278083   1.440   2.363   3.895 -0.4656  1.2399 -0.0965
18890TIP3   OH278084   3.319   0.826  16.236 -0.6845 -0.7060 -0.5205
18890TIP3    H178085   3.280   0.825  16.324 -1.0469 -1.3052 -0.6866
18890TIP3    H278086   3.380   0.752  16.236  1.4484  0.9845  0.1749
18891TIP3   OH278087   2.200   1.628   4.649 -0.3574  0.2038 -0.4509
18891TIP3    H178088   2.284   1.672   4.637 -0.5135  1.0516  1.4151
18891TIP3    H278089   2.222   1.548   4.697 -0.4887 -0.0640 -0.8406
18892TIP3   OH278090   2.459   2.457   3.415  0.4718 -0.3125  0.2490
18892TIP3    H178091   2.449   2.368   3.448 -1.8488 -0.2833 -0.2351
18892TIP3    H278092   2.520   2.449   3.342 -2.2057 -2.1477 -1.9373
18893TIP3   OH278093   0.981   1.348  13.974  0.1355  0.4500  0.1776
18893TIP3    H178094   1.052   1.332  14.037  0.3254  0.8505  0.0651
18893TIP3    H278095   0.904   1.365  14.029 -0.3367 -1.9124  0.3166
18894TIP3   OH278096   3.263   5.289   0.016  0.0288  0.0878  0.9427
18894TIP3    H178097   3.319   5.343  -0.039  0.0922  1.5015  2.3486
18894TIP3    H278098   3.324   5.229   0.059  0.0738 -0.4911  0.0687
18895TIP3   OH278099   5.947   2.821   6.919  0.2053  0.1114  0.1801
18895TIP3    H178100   6.017   2.791   6.861 -0.4494  1.7897 -1.4964
18895TIP3    H278101   5.867   2.783   6.883 -0.2013  1.1507 -0.0329
18896TIP3   OH278102   1.532   1.622   0.674  0.6777  0.1492 -0.0131
18896TIP3    H178103   1.527   1.539   0.626 -0.4515  0.4211 -0.3763
18896TIP3    H278104   1.588   1.678   0.620  0.0395  0.1945 -0.6326
18897TIP3   OH278105   5.557   3.705   1.183 -0.3139  0.0627 -0.0443
18897TIP3    H178106   5.597   3.675   1.102  0.5020  1.6614 -0.2697
18897TIP3    H278107   5.495   3.773   1.156 -2.5821 -1.7726  0.3902
18898TIP3   OH278108   3.118   5.444  14.000 -0.1797  0.2723  0.2389
18898TIP3    H178109   3.154   5.383  13.936  0.2426  1.2437 -0.4639
18898TIP3    H278110   3.184   5.448  14.070 -1.3431 -1.9967  1.5448
18899TIP3   OH278111   6.461   1.397   5.183  0.4100  0.0839  0.3292
18899TIP3    H178112   6.452   1.398   5.087  2.0057 -0.3704  0.1656
18899TIP3    H278113   6.375   1.368   5.214  0.5077 -1.8015 -1.0485
18900TIP3   OH278114   5.097   3.211   0.616 -0.1170 -0.4355 -0.1439
18900TIP3    H178115   5.007   3.230   0.589 -0.1195 -1.8073 -1.1323
18900TIP3    H278116   5.151   3.246   0.545  0.0256 -1.3198 -0.4782
18901TIP3   OH278117   5.936   1.554   6.081  0.2247  0.6725  0.1035
18901TIP3    H178118   5.951   1.475   6.030 -3.9931 -1.8093  2.4036
18901TIP3    H278119   5.905   1.619   6.017 -1.1584 -1.1381 -1.0999
18902TIP3   OH278120   6.330   5.472   1.388 -0.2627 -0.0037  0.1978
18902TIP3    H178121   6.303   5.381   1.376 -2.2095  0.7481 -1.4912
18902TIP3    H278122   6.268   5.507   1.453 -1.0978  0.7575 -0.9888
18903TIP3   OH278123   4.564   2.750   2.768 -0.3002 -0.6399  0.3941
18903TIP3    H178124   4.595   2.672   2.815  0.2974 -0.1890  0.7538
18903TIP3    H278125   4.644   2.791   2.735 -0.8506 -2.7957 -4.0064
18904TIP3   OH278126   0.323   0.400  15.948  0.7899 -0.0894 -0.0115
18904TIP3    H178127   0.248   0.407  15.889  0.2533 -0.3804  0.6251
18904TIP3    H278128   0.354   0.310  15.937  0.9396 -0.0203 -0.1504
18905TIP3   OH278129   2.847   2.441  13.744  0.4665  0.3077 -0.6699
18905TIP3    H178130   2.897   2.380  13.691 -0.0129  0.5289 -1.3883
18905TIP3    H278131   2.859   2.526  13.701  1.2163  0.7520  0.3731
18906TIP3   OH278132   1.803   0.905   4.473 -0.0561 -0.1008  0.8676
18906TIP3    H178133   1.811   0.950   4.556  0.3498 -0.3855  0.9829
18906TIP3    H278134   1.772   0.972   4.412 -1.0177 -0.0485  1.3908
18907TIP3   OH278135   4.797   0.253  14.547 -0.0973 -0.1972 -0.5267
18907TIP3    H178136   4.862   0.229  14.613  1.0448  2.0357 -0.7896
18907TIP3    H278137   4.848   0.264  14.467 -1.1139 -0.4510 -1.2103
18908TIP3   OH278138   3.608   3.045   0.939 -0.2308 -0.1902  0.4304
18908TIP3    H178139   3.553   3.012   1.011  1.1236  0.6837  1.8879
18908TIP3    H278140   3.685   2.988   0.941  0.1761  0.3590  0.1841
18909TIP3   OH278141   5.155   6.472   1.582  0.6381  0.0153 -0.4366
18909TIP3    H178142   5.185   6.538   1.644  1.9498 -1.3195  0.3935
18909TIP3    H278143   5.213   6.482   1.506  1.5041 -0.8039  0.0937
18910TIP3   OH278144   5.354   2.155   5.138 -0.3199  0.2816 -0.3094
18910TIP3    H178145   5.437   2.111   5.155  0.1355  0.5674 -1.6815
18910TIP3    H278146   5.369   2.204   5.057 -1.0810  2.2618  0.6940
18911TIP3   OH278147   0.371   1.212  12.782  0.2552  0.1796 -0.0524
18911TIP3    H178148   0.359   1.283  12.719 -1.7368  0.6068  0.7658
18911TIP3    H278149   0.445   1.239  12.836  0.4230  0.9407 -0.6631
18912TIP3   OH278150   2.883   4.603  14.197  0.5152  0.2102  0.0408
18912TIP3    H178151   2.976   4.601  14.221 -0.3558 -0.2244  3.6444
18912TIP3    H278152   2.849   4.682  14.239 -1.3948 -1.4024  1.6367
18913TIP3   OH278153   5.573   2.142  16.024  0.3622 -0.3188 -0.6867
18913TIP3    H178154   5.542   2.231  16.012  0.0487 -0.5809 -1.9559
18913TIP3    H278155   5.619   2.122  15.942  0.6793 -1.2155 -0.3001
18914TIP3   OH278156   5.599   6.552   0.464  0.2416  0.0973 -0.2121
18914TIP3    H178157   5.515   6.532   0.424  0.0638  0.5232 -0.0550
18914TIP3    H278158   5.622   6.473   0.513  0.5624 -0.5039 -1.3153
18915TIP3   OH278159   4.194   6.686  14.965 -0.1215  0.0822 -0.5265
18915TIP3    H178160   4.169   6.710  15.054 -0.3777  2.9419 -1.3397
18915TIP3    H278161   4.196   6.590  14.966 -0.0301  0.0753  2.5640
18916TIP3   OH278162   6.046   6.013  12.974  0.4821  0.8163 -0.1141
18916TIP3    H178163   6.119   6.049  12.923  0.1352 -1.1979 -2.0822
18916TIP3    H278164   5.968   6.036  12.923  0.2228 -2.2791 -1.1717
18917TIP3   OH278165   1.658   5.086   3.974 -0.7662 -0.0382  0.2186
18917TIP3    H178166   1.739   5.063   3.929 -0.2074  1.9537  0.1386
18917TIP3    H278167   1.610   5.004   3.983  0.7554 -1.0393 -0.7568
18918TIP3   OH278168   1.899   4.651   0.402 -0.1413  0.1448  0.2935
18918TIP3    H178169   1.857   4.727   0.361  1.9720  0.2162 -1.8092
18918TIP3    H278170   1.974   4.632   0.347  1.7030 -0.9778  3.0604
18919TIP3   OH278171   6.326   4.256  15.037  0.2157  0.2184  0.1960
18919TIP3    H178172   6.257   4.243  14.972 -0.0683  1.8416  0.1513
18919TIP3    H278173   6.283   4.243  15.122 -0.6418  3.0928  0.2591
18920TIP3   OH278174   6.334   0.683  14.851  0.4414  0.0052  0.1724
18920TIP3    H178175   6.242   0.655  14.856  0.7384 -0.9349  0.3942
18920TIP3    H278176   6.338   0.737  14.772  0.0438 -1.2931 -0.7630
18921TIP3   OH278177   4.102   3.455  16.248  0.5117  0.2570  0.2837
18921TIP3    H178178   4.177   3.417  16.294  1.3075  0.1028 -1.0897
18921TIP3    H278179   4.129   3.545  16.229  0.2928  0.2447 -0.0883
18922TIP3   OH278180   3.936   5.193  16.617 -0.7050  0.0852 -0.2388
18922TIP3    H178181   3.911   5.121  16.558 -1.0776  0.4794 -0.5621
18922TIP3    H278182   3.855   5.218  16.660 -0.4794 -0.0267  0.2510
18923TIP3   OH278183   3.048   5.484  16.278  0.4378 -0.7154  0.1602
18923TIP3    H178184   3.091   5.459  16.361  0.9463  1.8916  0.7264
18923TIP3    H278185   3.105   5.552  16.241 -0.2748 -1.2044 -1.8929
18924TIP3   OH278186   3.679   4.727  11.456  0.0473  0.3227  0.6039
18924TIP3    H178187   3.735   4.804  11.455  2.4897 -1.4176 -0.1105
18924TIP3    H278188   3.593   4.760  11.481  1.4666  2.9820  2.1028
18925TIP3   OH278189   6.458   1.774  16.572  0.6086  0.3892 -0.4130
18925TIP3    H178190   6.475   1.797  16.663  2.6157 -1.6401 -0.2139
18925TIP3    H278191   6.368   1.740  16.572  2.1793 -4.1263  1.8219
18926TIP3   OH278192   0.182   1.100   3.931 -0.0922  0.0588 -0.9072
18926TIP3    H178193   0.206   1.068   3.844 -2.4203 -2.4605 -0.6954
18926TIP3    H278194   0.089   1.078   3.940  0.4664 -1.0638  2.7903
18927TIP3   OH278195   5.802   1.967  12.465  0.0515 -0.0163 -0.2310
18927TIP3    H178196   5.768   2.049  12.427 -1.7356 -0.3746  0.5080
18927TIP3    H278197   5.825   1.913  12.390 -0.4721  0.4787 -0.7547
18928TIP3   OH278198   2.227   3.136  11.705 -0.6480  0.2602  0.4157
18928TIP3    H178199   2.321   3.119  11.699 -1.1851 -2.4551 -0.6516
18928TIP3    H278200   2.213   3.158  11.798  0.9188  0.0846  0.7030
18929TIP3   OH278201   4.319   5.274  14.847 -0.6632  0.3138 -0.0201
18929TIP3    H178202   4.293   5.191  14.807  1.3108 -1.4654  2.2601
18929TIP3    H278203   4.298   5.263  14.940  0.3924  2.0527  0.4371
18930TIP3   OH278204   1.290   0.067   3.427 -0.5341 -0.1165  0.3371
18930TIP3    H178205   1.224   0.121   3.471 -1.4284 -0.7331 -0.2354
18930TIP3    H278206   1.244   0.028   3.353  0.9434  0.8562 -1.1364
18931TIP3   OH278207   6.716   5.659  13.233 -1.3501 -0.8902  0.4339
18931TIP3    H178208   6.793   5.607  13.210  0.0889  1.6079 -0.5816
18931TIP3    H278209   6.731   5.684  13.324 -1.1330 -0.6775  0.3393
18932TIP3   OH278210   1.190   1.017  14.282 -0.0006  0.1209 -0.2565
18932TIP3    H178211   1.222   1.083  14.343  0.3888 -0.5799  0.3187
18932TIP3    H278212   1.268   0.990  14.233 -0.0689 -0.2436 -0.1654
18933TIP3   OH278213   1.756   4.610  12.340  0.4104  0.6189 -0.5401
18933TIP3    H178214   1.708   4.680  12.297 -3.5846 -2.0399 -0.6431
18933TIP3    H278215   1.742   4.625  12.434 -0.1283  0.1914 -0.5494
18934TIP3   OH278216   2.133   4.734   1.974  0.4050 -0.0646 -0.0532
18934TIP3    H178217   2.209   4.781   2.009 -0.3414  0.4483  0.9040
18934TIP3    H278218   2.157   4.642   1.978  1.1398  0.1171 -0.1589
18935TIP3   OH278219   1.489   3.596   1.951  0.2744  0.2204  0.4383
18935TIP3    H178220   1.448   3.579   1.866  0.5656  2.9494 -0.3088
18935TIP3    H278221   1.508   3.509   1.986  0.0617 -0.9775 -2.2324
18936TIP3   OH278222   3.445   0.104   0.845  0.4161  0.2873 -0.1535
18936TIP3    H178223   3.440   0.145   0.758 -0.5727  0.5164  0.0066
18936TIP3    H278224   3.478   0.016   0.828  0.2195  0.3275 -0.7693
18937TIP3   OH278225   3.224   0.902   5.022  0.2911  0.2826  0.2981
18937TIP3    H178226   3.240   0.971   5.086  0.2406 -0.3359  0.9899
18937TIP3    H278227   3.308   0.891   4.978 -0.2230  2.1504 -1.1971
18938TIP3   OH278228   5.045   1.062   5.550 -0.5255  0.2561 -1.0106
18938TIP3    H178229   5.129   1.020   5.566 -0.6108  0.6468  0.6064
18938TIP3    H278230   5.067   1.150   5.520 -0.2671  1.5305  2.5621
18939TIP3   OH278231   4.533   0.697   0.560  0.0668  0.5943  0.0069
18939TIP3    H178232   4.529   0.647   0.478  1.3953  0.9984 -0.3161
18939TIP3    H278233   4.579   0.638   0.620 -1.4848  0.0331  0.6753
18940TIP3   OH278234   5.956   0.804   5.198  0.3696  0.0440 -0.5731
18940TIP3    H178235   5.970   0.826   5.106 -0.3872  2.5528 -0.1205
18940TIP3    H278236   5.862   0.819   5.211  0.1888 -1.7000  0.2681
18941TIP3   OH278237   1.875   0.062  13.025  0.0420  0.4648  0.2429
18941TIP3    H178238   1.935   0.072  13.099  2.2207 -1.6382 -1.2164
18941TIP3    H278239   1.905  -0.016  12.979 -1.9848  1.0988 -2.2588
18942TIP3   OH278240   2.780   6.469   4.912  0.2403 -0.9720  0.1728
18942TIP3    H178241   2.734   6.535   4.861 -0.9124 -2.8565 -1.3113
18942TIP3    H278242   2.712   6.425   4.962  0.9800 -1.1212  1.0721
18943TIP3   OH278243   5.220   3.984  14.897 -0.2481 -0.4830 -0.8761
18943TIP3    H178244   5.274   4.060  14.922 -1.5956  0.2192 -0.0430
18943TIP3    H278245   5.143   4.022  14.855 -1.3089 -1.3458  0.2592
18944TIP3   OH278246   3.409   2.152  12.555  0.6574 -1.0242  0.1512
18944TIP3    H178247   3.371   2.084  12.498  0.3838 -0.4525 -0.3476
18944TIP3    H278248   3.502   2.132  12.556  0.8297 -0.3923 -1.3940
18945TIP3   OH278249   3.814   0.590   5.849 -0.0380 -1.2579 -0.2418
18945TIP3    H178250   3.909   0.578   5.848  0.2120  0.5016 -0.2917
18945TIP3    H278251   3.788   0.586   5.757  0.2354 -0.0688 -0.3793
18946TIP3   OH278252   1.854   3.537   4.525  0.1568 -0.0323 -0.3435
18946TIP3    H178253   1.900   3.477   4.467  0.6513 -1.3030  1.3489
18946TIP3    H278254   1.915   3.553   4.597 -1.8200 -1.3993  1.7123
18947TIP3   OH278255   3.822   6.480  15.106 -0.0783  0.5470 -0.3958
18947TIP3    H178256   3.745   6.525  15.073 -0.2682  0.0350 -0.6351
18947TIP3    H278257   3.872   6.456  15.028  0.7543  1.6361 -0.2177
18948TIP3   OH278258   1.276   4.268  13.183 -0.0118  0.3956 -0.0292
18948TIP3    H178259   1.265   4.173  13.184 -1.7450  0.5868  0.6503
18948TIP3    H278260   1.333   4.286  13.108  2.2393 -1.3730  1.2063
18949TIP3   OH278261   1.624   0.312  11.648  0.4487 -0.1563 -0.4311
18949TIP3    H178262   1.544   0.290  11.600 -0.6820 -3.5357  2.7451
18949TIP3    H278263   1.605   0.394  11.692 -0.9878 -0.5591 -0.2970
18950TIP3   OH278264   3.190   3.108   1.876  0.2880 -0.0060 -0.6915
18950TIP3    H178265   3.164   3.028   1.831  0.1104  0.3172 -1.1705
18950TIP3    H278266   3.164   3.178   1.817  1.1632  0.3762 -0.6366
18951TIP3   OH278267   4.837   4.428  11.807  0.0303 -0.3059  0.2568
18951TIP3    H178268   4.760   4.401  11.757 -0.8258 -0.5818  1.7063
18951TIP3    H278269   4.875   4.500  11.756 -1.6845  0.4211 -0.0113
18952TIP3   OH278270   4.289   6.091  15.744  0.3474  0.0963  0.0242
18952TIP3    H178271   4.316   6.011  15.789 -0.4895 -0.5085 -0.5193
18952TIP3    H278272   4.239   6.140  15.809  3.4389  1.6731  1.3407
18953TIP3   OH278273   6.455   5.449   3.426 -0.2630 -0.2170 -0.0001
18953TIP3    H178274   6.539   5.486   3.398 -0.6547  0.4922 -0.2623
18953TIP3    H278275   6.471   5.418   3.515  0.3770 -0.4274 -0.1798
18954TIP3   OH278276   0.864   2.097  16.473  0.1304  0.0745  0.4665
18954TIP3    H178277   0.949   2.108  16.431 -0.4742 -2.2615 -1.4556
18954TIP3    H278278   0.811   2.169  16.438  0.9913  0.9233  0.8789
18955TIP3   OH278279   0.145   6.131  14.365 -0.1375  0.5472  0.4430
18955TIP3    H178280   0.108   6.143  14.278 -0.9561  0.4727  0.7794
18955TIP3    H278281   0.159   6.219  14.398 -0.6929  0.5721  0.6062
18956TIP3   OH278282   3.274   5.432   2.031  0.4681  0.1081  0.0176
18956TIP3    H178283   3.342   5.493   2.059  0.0587 -0.2619  1.9274
18956TIP3    H278284   3.312   5.345   2.044  0.5428 -0.0835 -1.3667
18957TIP3   OH278285   3.717   2.949  12.260 -0.6521  0.1651 -0.3019
18957TIP3    H178286   3.691   3.038  12.279 -0.8065 -0.0287  0.4066
18957TIP3    H278287   3.802   2.939  12.304  0.3113  0.5864 -2.0358
18958TIP3   OH278288   1.182   2.084   5.091 -0.1645 -0.3718 -0.4329
18958TIP3    H178289   1.235   2.058   5.015  0.2952 -0.8178  0.0373
18958TIP3    H278290   1.094   2.050   5.071  0.2432 -1.5934 -0.1990
18959TIP3   OH278291   2.397   4.265  11.509  0.1323 -0.2356  0.2142
18959TIP3    H178292   2.482   4.224  11.495  0.7945  1.4225 -0.8335
18959TIP3    H278293   2.354   4.259  11.424 -1.2216 -1.9816  1.0114
18960TIP3   OH278294   0.349   0.205   0.965 -0.0751 -0.6136  0.3745
18960TIP3    H178295   0.314   0.136   0.910 -1.7664  0.4693  0.0488
18960TIP3    H278296   0.293   0.206   1.042  0.5755 -0.2825  0.8561
18961TIP3   OH278297   2.673   3.734  13.117  0.1083  0.7760 -0.3833
18961TIP3    H178298   2.719   3.672  13.060 -1.1601 -0.9784  0.4599
18961TIP3    H278299   2.668   3.815  13.066  0.2908 -0.3310 -2.1862
18962TIP3   OH278300   3.913   0.618  14.248  0.4786  0.4958 -0.3434
18962TIP3    H178301   3.935   0.528  14.226  2.1433  0.4851  1.1986
18962TIP3    H278302   3.830   0.634  14.204  0.8822 -1.3059 -1.8326
18963TIP3   OH278303   4.483   4.369  12.468  0.6226  0.4678  0.0828
18963TIP3    H178304   4.479   4.293  12.525  1.9711  1.9354  2.1835
18963TIP3    H278305   4.535   4.433  12.516 -0.0410  2.5410 -1.8561
18964TIP3   OH278306   1.362   1.016   4.992 -0.5030  0.3517  0.1280
18964TIP3    H178307   1.277   1.055   5.016 -0.8609  0.2451 -0.9347
18964TIP3    H278308   1.405   1.083   4.939 -0.3455  0.0073 -0.1790
18965TIP3   OH278309   4.981   3.545   4.194  0.2852  0.1484 -0.2023
18965TIP3    H178310   5.004   3.469   4.246  0.5023 -0.3109 -0.9683
18965TIP3    H278311   4.887   3.537   4.179  0.2478  0.2074  0.0050
18966TIP3   OH278312   3.843   2.740   0.670 -0.0016 -0.1751  0.3361
18966TIP3    H178313   3.921   2.772   0.717 -0.6683  1.1404  0.5732
18966TIP3    H278314   3.812   2.816   0.621 -0.6748 -0.9190 -0.4001
18967TIP3   OH278315   4.410   0.868   1.408 -0.1687 -0.0047 -0.0908
18967TIP3    H178316   4.386   0.830   1.324 -1.1077 -0.2272  0.2657
18967TIP3    H278317   4.494   0.828   1.430 -0.2463 -0.4498 -0.6103
18968TIP3   OH278318   4.669   1.197   0.583 -0.2413  0.9383  0.2534
18968TIP3    H178319   4.675   1.194   0.679  0.0238  0.2472  0.2173
18968TIP3    H278320   4.720   1.122   0.554 -0.2619  1.1945 -0.4364
18969TIP3   OH278321   2.260   1.543  12.730  0.4045  0.0081  0.5503
18969TIP3    H178322   2.183   1.527  12.785 -0.7559  3.3235  0.0617
18969TIP3    H278323   2.287   1.632  12.753  1.2697  0.6179 -2.5891
18970TIP3   OH278324   5.849   1.977   4.372 -0.0278  0.7767  0.5523
18970TIP3    H178325   5.926   2.034   4.369 -0.1561  0.8935 -1.4504
18970TIP3    H278326   5.795   2.012   4.442  0.5855  2.2271  0.3089
18971TIP3   OH278327   5.961   6.466  10.265  0.1926  0.8890 -0.0311
18971TIP3    H178328   6.050   6.463  10.300  0.0198  1.1558  0.4218
18971TIP3    H278329   5.937   6.374  10.252 -0.4368  0.7021  2.2790
18972TIP3   OH278330   2.047   1.734  13.178  0.0829 -0.4547  0.1371
18972TIP3    H178331   2.095   1.666  13.226  1.2986 -0.9841 -1.7773
18972TIP3    H278332   2.063   1.814  13.228  0.0173 -1.2713  1.4880
18973TIP3   OH278333   6.726   1.735   3.162 -0.0638 -0.0694 -0.0082
18973TIP3    H178334   6.813   1.701   3.141  0.2834 -0.6916  2.2963
18973TIP3    H278335   6.690   1.763   3.078  2.4478  0.3818 -0.9730
18974TIP3   OH278336   1.985   1.026  12.859  0.4940 -0.3147  0.1188
18974TIP3    H178337   1.952   1.115  12.853  1.5341  0.1281  0.8550
18974TIP3    H278338   1.906   0.971  12.858 -0.0768  0.5189 -1.8167
18975TIP3   OH278339   3.829   4.478   2.873 -0.2050  0.2070 -0.5187
18975TIP3    H178340   3.861   4.406   2.819 -1.7483 -0.1993 -0.9242
18975TIP3    H278341   3.742   4.449   2.902  0.1109  0.9278  1.2053
18976TIP3   OH278342   6.638   1.564   0.639 -0.2875 -0.0219 -0.1463
18976TIP3    H178343   6.615   1.523   0.722  0.4885 -0.9922 -0.4049
18976TIP3    H278344   6.724   1.603   0.654 -0.2069 -0.0771 -0.4556
18977TIP3   OH278345   6.128   1.272   3.246 -0.6337 -0.2142  0.1777
18977TIP3    H178346   6.093   1.211   3.310 -1.9675 -1.6645 -1.8737
18977TIP3    H278347   6.078   1.352   3.259 -0.4721 -0.3070  1.3578
18978TIP3   OH278348   1.290   6.429  15.119 -0.1862  0.2717  0.3917
18978TIP3    H178349   1.231   6.405  15.048 -2.0975 -0.5657  2.1899
18978TIP3    H278350   1.376   6.435  15.078 -1.1855 -0.4900 -1.9170
18979TIP3   OH278351   1.983   2.391   1.630 -0.0393 -0.3460 -0.1935
18979TIP3    H178352   1.957   2.480   1.655 -2.1604 -0.6988 -1.0138
18979TIP3    H278353   2.052   2.404   1.565 -1.9747  0.7794 -2.0832
18980TIP3   OH278354   6.116   0.025  13.453  0.2742 -0.1383  0.0605
18980TIP3    H178355   6.052   0.037  13.523  0.2273 -0.4164  0.0642
18980TIP3    H278356   6.066  -0.007  13.378  0.5551 -1.2886  0.3595
18981TIP3   OH278357   6.694   3.767  13.233  0.6093 -0.1132  0.0174
18981TIP3    H178358   6.683   3.692  13.175 -0.4344 -1.0434  1.3777
18981TIP3    H278359   6.655   3.840  13.186  0.6809 -0.6320 -0.8656
18982TIP3   OH278360   2.712   2.023  13.782 -0.0943 -0.1765 -0.4588
18982TIP3    H178361   2.686   2.109  13.816 -0.0199  0.0661 -1.0098
18982TIP3    H278362   2.661   2.013  13.701 -2.4602 -2.0089  1.1847
18983TIP3   OH278363   1.013   5.961  12.860 -0.3838 -0.4476 -0.0230
18983TIP3    H178364   1.042   6.043  12.900  0.2984 -0.8588  0.3362
18983TIP3    H278365   0.918   5.970  12.855 -0.4693 -0.3157  1.5435
18984TIP3   OH278366   0.706   1.143  14.730  0.5917  0.1434  0.5226
18984TIP3    H178367   0.647   1.130  14.805 -0.0627 -0.4884 -0.0936
18984TIP3    H278368   0.654   1.117  14.654  1.5978 -0.2262 -0.0514
18985TIP3   OH278369   1.062   0.152  15.743  0.2271  0.1934  0.3500
18985TIP3    H178370   1.013   0.124  15.666  0.1183  0.4172  0.3364
18985TIP3    H278371   1.036   0.090  15.812  2.3206 -1.6468 -0.4488
18986TIP3   OH278372   0.828   2.448  11.998 -0.3142 -0.5323 -0.0129
18986TIP3    H178373   0.854   2.534  12.033  0.7755 -1.2959  1.1271
18986TIP3    H278374   0.865   2.446  11.910 -0.8383  0.3986 -0.2575
18987TIP3   OH278375   1.185   2.093   4.594 -0.1758 -0.6644  0.0765
18987TIP3    H178376   1.096   2.074   4.564  0.9164 -2.2512 -2.3413
18987TIP3    H278377   1.229   2.008   4.595  1.2458  0.0517  1.5354
18988TIP3   OH278378   5.471   3.637   1.442 -0.3875 -0.0601  0.2583
18988TIP3    H178379   5.558   3.661   1.474  0.1560 -2.5011  0.7016
18988TIP3    H278380   5.475   3.653   1.348  0.6757 -0.5491  0.2117
18989TIP3   OH278381   3.711   3.849   5.358  0.1082 -0.1544  0.5698
18989TIP3    H178382   3.711   3.918   5.425  0.9304 -0.6392  1.0783
18989TIP3    H278383   3.693   3.896   5.276  3.8221  1.2267  0.3965
18990TIP3   OH278384   3.762   3.535   2.490 -0.1945 -0.5149 -1.0755
18990TIP3    H178385   3.732   3.475   2.557  2.1133 -1.7168 -1.0648
18990TIP3    H278386   3.730   3.498   2.408 -0.4616 -0.6784 -0.8968
18991TIP3   OH278387   2.801   6.694  13.321  0.2453  0.2619 -0.4290
18991TIP3    H178388   2.746   6.677  13.397  0.6102 -0.6346 -0.3499
18991TIP3    H278389   2.835   6.782  13.335  1.5118 -0.4549  1.2271
18992TIP3   OH278390   6.160   6.780   1.554 -0.1007  0.5787 -0.4885
18992TIP3    H178391   6.185   6.812   1.641 -3.4407  0.8279  0.4534
18992TIP3    H278392   6.085   6.723   1.570  1.2752 -2.0471 -2.9109
18993TIP3   OH278393   1.218   5.029   3.953  0.2042  0.1675  0.2633
18993TIP3    H178394   1.141   4.972   3.956  0.0608  0.3806  0.6910
18993TIP3    H278395   1.193   5.098   3.891 -1.3500  2.2254  3.0984
18994TIP3   OH278396   5.193   2.378   5.911 -0.0978 -0.8298  0.3393
18994TIP3    H178397   5.287   2.390   5.928 -0.1529 -2.0841  1.6523
18994TIP3    H278398   5.188   2.292   5.868 -0.7157 -1.1628  1.0715
18995TIP3   OH278399   5.685   0.210  16.841 -0.3546 -0.2218 -0.3822
18995TIP3    H178400   5.756   0.274  16.847  1.3087 -1.9103 -1.7019
18995TIP3    H278401   5.718   0.143  16.782 -3.2553 -0.8061 -1.3922
18996TIP3   OH278402   0.766   4.357   0.783  0.0549 -0.0211 -0.9560
18996TIP3    H178403   0.776   4.302   0.861 -0.2190 -1.8679 -2.1687
18996TIP3    H278404   0.850   4.352   0.739 -0.0144  0.4324 -1.1420
18997TIP3   OH278405   3.149   0.155   2.398  0.4608 -0.1179  0.0726
18997TIP3    H178406   3.145   0.114   2.312 -0.7681 -1.2787  0.6696
18997TIP3    H278407   3.229   0.207   2.396  0.7430 -0.5923 -1.5643
18998TIP3   OH278408   3.898   4.078   5.460  0.0920  0.3203 -0.1404
18998TIP3    H178409   3.956   4.104   5.388  0.5761 -0.3533 -0.0053
18998TIP3    H278410   3.956   4.073   5.537  0.2916 -2.3307 -0.4044
18999TIP3   OH278411   0.223   5.650   4.001 -0.1863 -0.2807 -0.0685
18999TIP3    H178412   0.247   5.727   4.053 -2.1926 -0.7842  1.6945
18999TIP3    H278413   0.134   5.669   3.971  0.5396 -0.5011 -2.4197
19000TIP3   OH278414   5.479   4.307   3.615  0.1057  0.2060 -0.9315
19000TIP3    H178415   5.421   4.263   3.553 -1.1609 -1.9875  1.6893
19000TIP3    H278416   5.545   4.241   3.638 -0.0673  0.5910  0.8052
19001TIP3   OH278417   4.943   2.208   1.711  0.3686  0.1999 -0.6565
19001TIP3    H178418   4.873   2.148   1.684  0.4029 -0.1390  0.0009
19001TIP3    H278419   4.920   2.292   1.669 -1.1560  0.4418  0.6268
19002TIP3   OH278420   1.979   0.745  16.551 -0.3235  0.1616  0.6588
19002TIP3    H178421   2.040   0.671  16.558 -0.2965  0.1741  0.5493
19002TIP3    H278422   1.984   0.772  16.460  0.6041  1.0840  0.9702
19003TIP3   OH278423   1.449   6.190  12.535  0.2974 -0.7761 -0.2486
19003TIP3    H178424   1.411   6.174  12.622 -1.4617  0.2658 -0.7952
19003TIP3    H278425   1.537   6.221  12.553  0.3139 -1.6104  1.1386
19004TIP3   OH278426   4.899   3.194   0.036  0.0672  0.5298 -0.0424
19004TIP3    H178427   4.912   3.230   0.124  0.2537  0.3437  0.0068
19004TIP3    H278428   4.814   3.228   0.009 -0.3520 -0.0499  0.5283
19005TIP3   OH278429   1.700   3.227   6.289 -0.7315  0.0722  0.3019
19005TIP3    H178430   1.716   3.134   6.274 -0.7785  0.2651 -1.0010
19005TIP3    H278431   1.637   3.229   6.361 -0.2115 -0.8752  0.7957
19006TIP3   OH278432   5.634   6.270   6.595  0.1887  0.5967  0.1070
19006TIP3    H178433   5.716   6.237   6.557  1.0430  1.9549  0.7189
19006TIP3    H278434   5.577   6.193   6.600  1.0175 -0.1417 -1.3805
19007TIP3   OH278435   3.337   4.548   3.161  0.0947 -0.0395  0.0459
19007TIP3    H178436   3.363   4.468   3.207  0.9478 -0.0194 -0.4024
19007TIP3    H278437   3.241   4.542   3.156  0.2717 -1.9171 -1.6053
19008TIP3   OH278438   5.202   5.735   1.328  0.0784 -0.4561 -0.2216
19008TIP3    H178439   5.256   5.814   1.325  3.0527 -2.4355 -1.6010
19008TIP3    H278440   5.162   5.730   1.241 -1.7387  0.5845  0.5376
19009TIP3   OH278441   2.877   5.604  13.095  0.0811 -0.3304  0.0150
19009TIP3    H178442   2.830   5.670  13.045  1.2769 -0.8436 -1.8174
19009TIP3    H278443   2.811   5.537  13.114 -0.3132 -0.2885 -1.1673
19010TIP3   OH278444   4.871   3.571   6.237 -0.1758 -0.1752  0.2667
19010TIP3    H178445   4.875   3.510   6.311  0.2698 -2.1099 -1.2960
19010TIP3    H278446   4.803   3.535   6.180  1.1844 -0.1455 -1.4351
19011TIP3   OH278447   6.003   4.646   6.040 -0.1136  0.4188 -0.6328
19011TIP3    H178448   6.067   4.575   6.042 -1.8651 -1.1943  0.2692
19011TIP3    H278449   6.008   4.684   6.128 -0.0147  0.6411 -0.7351
19012TIP3   OH278450   1.259   1.837  15.993 -1.0845 -0.0528  0.3395
19012TIP3    H178451   1.244   1.927  15.963  0.6950  0.1085 -0.1018
19012TIP3    H278452   1.287   1.790  15.914  0.7216 -0.3155  1.1145
19013TIP3   OH278453   0.191   4.276  12.879  0.5651  0.3754  0.1673
19013TIP3    H178454   0.162   4.187  12.900 -0.6863  0.9509  0.9150
19013TIP3    H278455   0.202   4.275  12.784 -0.6975 -0.2121  0.0224
19014TIP3   OH278456   6.313   2.522   0.412 -0.4394  0.2206 -0.2898
19014TIP3    H178457   6.284   2.598   0.462  0.4688  2.4618 -3.0678
19014TIP3    H278458   6.400   2.502   0.447 -0.9288  0.0833  0.8598
19015TIP3   OH278459   1.914   1.132   1.988 -0.4899 -0.0555 -0.1710
19015TIP3    H178460   1.852   1.059   1.992 -0.2943 -0.2597 -0.9188
19015TIP3    H278461   1.959   1.121   1.905 -0.4469  0.9071 -0.2816
19016TIP3   OH278462   0.564   4.028   2.807  1.0062 -0.2964  0.0013
19016TIP3    H178463   0.502   3.966   2.846 -0.5571  1.3160  0.1588
19016TIP3    H278464   0.624   4.049   2.878  0.5931 -0.4218  0.3899
19017TIP3   OH278465   0.147   5.887   4.564  0.6015 -0.0439  0.1087
19017TIP3    H178466   0.052   5.883   4.575  0.2611  0.5205 -2.4097
19017TIP3    H278467   0.163   5.841   4.481  2.4537  0.4764  0.1733
19018TIP3   OH278468   2.075   3.650   0.226  0.5713  0.0320 -0.3809
19018TIP3    H178469   2.151   3.614   0.271  0.3997  0.6717  0.4263
19018TIP3    H278470   2.000   3.613   0.272  0.3925 -0.0838 -0.7630
19019TIP3   OH278471   4.679   3.170   4.080  0.1641 -0.6809  0.2625
19019TIP3    H178472   4.768   3.206   4.074 -0.6807  2.0532  2.9602
19019TIP3    H278473   4.630   3.218   4.013  0.0923 -0.1174  0.7132
19020TIP3   OH278474   2.250   3.460   1.813  0.1401  0.2516  0.0010
19020TIP3    H178475   2.240   3.534   1.754  0.8380  1.2367  1.1075
19020TIP3    H278476   2.342   3.437   1.808 -0.0553 -0.5013 -0.2725
19021TIP3   OH278477   4.198   0.369  13.484 -0.0985 -0.5134 -0.1995
19021TIP3    H178478   4.146   0.411  13.552  0.6163 -0.6188  0.4242
19021TIP3    H278479   4.199   0.276  13.509  0.9215 -0.4134  0.1538
19022TIP3   OH278480   4.071   3.972  15.104 -0.2435 -0.0580  0.1811
19022TIP3    H178481   4.150   4.025  15.106 -1.0775  1.2377 -0.6288
19022TIP3    H278482   4.023   3.997  15.183 -0.3253 -0.1138  0.1499
19023TIP3   OH278483   0.799   0.807   1.439  0.5239 -0.2403  0.4217
19023TIP3    H178484   0.734   0.868   1.405 -0.5408 -1.0980  0.8684
19023TIP3    H278485   0.867   0.805   1.373  0.3790  1.1210  0.2203
19024TIP3   OH278486   6.481   5.859  17.030  0.3836  0.7666  0.0942
19024TIP3    H178487   6.519   5.772  17.016 -0.3623  0.5972 -1.0286
19024TIP3    H278488   6.528   5.895  17.105  2.3272  0.3287 -0.8772
19025TIP3   OH278489   1.123   0.869  17.094  0.1259 -0.2816  0.7028
19025TIP3    H178490   1.132   0.909  17.007 -0.3126 -0.1385  0.7210
19025TIP3    H278491   1.124   0.942  17.155 -0.2589 -0.3247  0.7655
19026TIP3   OH278492   0.275   5.269   0.457  0.1605 -0.0271  0.2117
19026TIP3    H178493   0.303   5.359   0.440 -2.4468  0.5240 -1.3966
19026TIP3    H278494   0.218   5.275   0.534 -0.0528 -0.2780  0.0776
19027TIP3   OH278495   6.629   2.165   1.409  0.1160 -0.4318  0.3431
19027TIP3    H178496   6.645   2.259   1.406  0.8997 -0.6078 -1.2512
19027TIP3    H278497   6.629   2.144   1.502  0.7739  1.0014  0.6791
19028TIP3   OH278498   2.044   4.145   2.808  0.9032  0.7047  0.5591
19028TIP3    H178499   2.103   4.170   2.880 -0.8923 -0.4556  2.4665
19028TIP3    H278500   2.058   4.051   2.798 -1.6015  0.1516  1.9674
19029TIP3   OH278501   2.640   2.065  11.558  0.1923 -0.4209  0.0604
19029TIP3    H178502   2.597   2.151  11.560  0.4511 -0.3081  1.4419
19029TIP3    H278503   2.599   2.016  11.630 -0.5753 -1.7668 -1.2576
19030TIP3   OH278504   1.162   5.825   4.260 -0.0696  0.2576  0.1746
19030TIP3    H178505   1.183   5.917   4.275  1.1651 -0.1724  1.1539
19030TIP3    H278506   1.244   5.779   4.275 -0.1394 -0.7965 -2.4831
19031TIP3   OH278507   0.424   2.582   5.599 -0.1100  0.0499  0.3391
19031TIP3    H178508   0.475   2.516   5.646  2.9931  1.0825 -1.4156
19031TIP3    H278509   0.409   2.651   5.665 -1.2109 -1.2594  1.4835
19032TIP3   OH278510   6.330   2.514  12.725 -0.2702  0.1924  0.8749
19032TIP3    H178511   6.342   2.597  12.772  0.8938  0.5790 -0.0885
19032TIP3    H278512   6.395   2.516  12.655 -0.2499 -1.5316  0.8180
19033TIP3   OH278513   4.460   5.942   5.418  0.2139  0.9510 -0.4726
19033TIP3    H178514   4.537   5.999   5.416 -0.2113  1.5773  0.5496
19033TIP3    H278515   4.391   5.997   5.454 -0.0506 -0.4079  1.1541
19034TIP3   OH278516   1.215   2.798  16.465  0.0746 -0.2492  0.2293
19034TIP3    H178517   1.209   2.772  16.373 -0.5160  0.7309 -0.0148
19034TIP3    H278518   1.252   2.886  16.463  0.7645 -0.5068  0.9798
19035TIP3   OH278519   2.298   3.247   3.749 -0.5585 -0.0235  0.0328
19035TIP3    H178520   2.308   3.287   3.662 -0.2647 -1.1878 -0.4704
19035TIP3    H278521   2.377   3.274   3.796 -0.0773 -0.4807 -0.4988
19036TIP3   OH278522   4.741   4.834   0.847 -0.3221  0.3010  0.3025
19036TIP3    H178523   4.783   4.881   0.919  0.9457 -0.1746 -0.1255
19036TIP3    H278524   4.710   4.752   0.886  2.9488 -1.2946 -0.2947
19037TIP3   OH278525   1.744   5.934  12.592  0.1058 -0.1409  0.5671
19037TIP3    H178526   1.809   5.915  12.660  0.2087 -0.3222  0.4162
19037TIP3    H278527   1.715   5.848  12.562  0.3113 -0.0607  0.1384
19038TIP3   OH278528   4.429   0.175  15.129  0.4791  0.3633 -0.3289
19038TIP3    H178529   4.355   0.120  15.157 -0.7381  1.7182 -0.8428
19038TIP3    H278530   4.455   0.222  15.208 -0.2147  1.0266 -0.4873
19039TIP3   OH278531   3.959   6.731  13.175  0.0546  0.1728 -0.3573
19039TIP3    H178532   3.938   6.809  13.227  3.1498  0.8010  0.0583
19039TIP3    H278533   3.996   6.766  13.094  0.4362 -0.8588 -0.6290
19040TIP3   OH278534   2.978   4.943   0.623 -0.1817  0.2988  0.4728
19040TIP3    H178535   2.931   5.018   0.659  1.2700  0.6328  1.7393
19040TIP3    H278536   3.025   4.978   0.547 -1.0269  0.2378 -0.0746
19041TIP3   OH278537   5.859   2.358  16.316 -0.2209  0.3995  0.7115
19041TIP3    H178538   5.928   2.292  16.318  1.0397  1.6891  0.2865
19041TIP3    H278539   5.778   2.307  16.310  0.7866 -1.0717 -0.9078
19042TIP3   OH278540   3.780   0.076  15.237  0.4552 -0.0781 -0.3859
19042TIP3    H178541   3.685   0.073  15.244  0.5243 -0.7083  0.4259
19042TIP3    H278542   3.799   0.160  15.195 -0.4303  0.2318 -0.1716
19043TIP3   OH278543   3.476   3.910  13.526 -0.1006 -0.0536  0.2944
19043TIP3    H178544   3.466   3.966  13.449  0.9282  0.1769  0.3108
19043TIP3    H278545   3.428   3.955  13.595 -0.6386 -0.0219 -0.0966
19044TIP3   OH278546   4.290   5.061   1.876 -0.0807  0.1279 -0.5995
19044TIP3    H178547   4.347   5.034   1.947  0.5867 -2.2657 -2.0064
19044TIP3    H278548   4.290   5.157   1.880  1.1463  0.0574  1.6423
19045TIP3   OH278549   4.998   1.970  17.053  0.3842  0.3380 -0.0516
19045TIP3    H178550   5.008   2.065  17.054 -1.4504  0.5549  0.9899
19045TIP3    H278551   4.935   1.952  17.123  0.0277 -1.5553 -0.8255
19046TIP3   OH278552   2.814   6.064   1.577  0.1430 -0.0567 -0.5086
19046TIP3    H178553   2.863   6.102   1.649  1.4436 -0.6523 -1.0645
19046TIP3    H278554   2.823   6.127   1.505  0.6698 -0.4750 -0.8174
19047TIP3   OH278555   6.033   0.956  14.468 -0.3033  0.2063 -0.4557
19047TIP3    H178556   6.009   0.916  14.385 -0.5672 -0.5734 -0.0155
19047TIP3    H278557   6.124   0.984  14.457  0.5320 -2.2452 -0.1593
19048TIP3   OH278558   5.450   3.509  14.907  0.5926 -0.7951 -0.0980
19048TIP3    H178559   5.437   3.604  14.910  0.0958 -0.8511 -0.3817
19048TIP3    H278560   5.501   3.489  14.985  1.0461 -0.2396 -0.2549
19049TIP3   OH278561   4.167   4.263  15.529  0.1815  0.2755  0.3299
19049TIP3    H178562   4.093   4.295  15.582 -0.0927 -1.1152  0.8083
19049TIP3    H278563   4.221   4.215  15.591 -0.8070 -2.4824 -0.8713
19050TIP3   OH278564   3.679   3.780   2.621  0.2933 -0.4556  0.2298
19050TIP3    H178565   3.640   3.735   2.695 -0.6540  0.3311  0.2230
19050TIP3    H278566   3.727   3.712   2.573 -0.5124 -1.3040  0.6127
19051TIP3   OH278567   0.687   5.482   4.162  0.1548  0.5204  0.3024
19051TIP3    H178568   0.756   5.432   4.204  0.7270  1.4991  0.5475
19051TIP3    H278569   0.678   5.442   4.075  1.0095  0.3786  0.2786
19052TIP3   OH278570   5.470   0.862  12.685  0.5723  0.0262  0.4656
19052TIP3    H178571   5.546   0.920  12.691 -0.1009  1.1239 -1.2561
19052TIP3    H278572   5.441   0.869  12.594  0.2648 -2.7784  0.2946
19053TIP3   OH278573   2.056   5.117  14.393 -0.6589  0.0808 -0.6515
19053TIP3    H178574   2.046   5.061  14.470  0.0124  1.0455  0.1408
19053TIP3    H278575   2.058   5.206  14.428 -0.5807  0.5374 -1.8040
19054TIP3   OH278576   3.460   1.290  15.942 -0.4237 -0.1195  0.3457
19054TIP3    H178577   3.427   1.205  15.971  2.0373 -1.1779  0.2134
19054TIP3    H278578   3.435   1.351  16.011  1.8230 -1.8455  2.7719
19055TIP3   OH278579   3.491   4.973   1.291 -0.6979  0.4657 -0.0675
19055TIP3    H178580   3.506   5.068   1.294 -0.2631  0.3584  2.6713
19055TIP3    H278581   3.409   4.961   1.338 -0.2385 -0.6050  0.4758
19056TIP3   OH278582   1.542   5.286   2.071  0.2133  0.0631 -0.0610
19056TIP3    H178583   1.553   5.315   1.980 -0.6640  0.6317  0.0054
19056TIP3    H278584   1.581   5.199   2.073  0.8145  0.3062 -0.8302
19057TIP3   OH278585   0.932   5.238   3.088  0.3270  0.1746  0.3580
19057TIP3    H178586   0.971   5.163   3.044 -1.0121 -0.3491  0.0423
19057TIP3    H278587   0.927   5.305   3.019  0.7744  0.2784  0.4276
19058TIP3   OH278588   5.687   2.974  16.040 -0.1195  0.2454  0.1902
19058TIP3    H178589   5.601   2.932  16.044  0.4326 -1.1005 -1.4371
19058TIP3    H278590   5.679   3.039  15.970 -0.1614  0.9737  0.8636
19059TIP3   OH278591   5.206   1.910   3.559  0.6037 -0.0570 -0.1075
19059TIP3    H178592   5.251   1.929   3.477 -1.9812  0.7703 -1.3795
19059TIP3    H278593   5.222   1.816   3.574  0.7326 -0.3221 -1.8154
19060TIP3   OH278594   5.702   3.831  15.731 -0.6263  0.6920  0.2635
19060TIP3    H178595   5.647   3.877  15.795  0.2956 -0.1036  1.6667
19060TIP3    H278596   5.786   3.876  15.735 -0.5184  0.5388 -0.2723
19061TIP3   OH278597   6.134   5.848   1.461  0.6369  0.4736 -0.1423
19061TIP3    H178598   6.220   5.880   1.487  0.7038  0.1280  0.0468
19061TIP3    H278599   6.073   5.914   1.495  0.8588  0.9703 -0.6897
19062TIP3   OH278600   1.587   2.979  14.994  0.1468 -0.0832 -0.1760
19062TIP3    H178601   1.679   2.955  14.983  0.7072  2.1629 -0.6255
19062TIP3    H278602   1.539   2.896  14.986  2.0487 -1.1436 -0.8304
19063TIP3   OH278603   4.231   6.659  12.082 -0.0306 -0.0599  0.3031
19063TIP3    H178604   4.273   6.671  11.997 -0.9750 -0.6157 -0.2543
19063TIP3    H278605   4.290   6.702  12.144 -0.0030  1.5630 -0.8000
19064TIP3   OH278606   6.143   4.337   1.064 -0.1365  0.2232 -0.2328
19064TIP3    H178607   6.053   4.314   1.089 -0.2342  1.7133  0.8532
19064TIP3    H278608   6.197   4.301   1.134  0.2068 -1.2105 -1.1935
19065TIP3   OH278609   5.444   4.073  16.183 -0.7909  0.0481  0.1533
19065TIP3    H178610   5.394   4.034  16.255  2.4062 -1.7158  1.5119
19065TIP3    H278611   5.480   4.153  16.220 -0.1391 -0.2399  0.1485
19066TIP3   OH278612   0.613   5.258   0.484 -0.1072  0.1937  0.1766
19066TIP3    H178613   0.544   5.274   0.548  0.8065  0.1067  1.1914
19066TIP3    H278614   0.688   5.229   0.536  0.6183  0.0513 -0.9380
19067TIP3   OH278615   5.376   0.510   2.917  0.0336 -0.3210  0.0532
19067TIP3    H178616   5.395   0.516   3.011  0.8701  0.0289 -0.1314
19067TIP3    H278617   5.343   0.421   2.906  2.0193 -1.1334  0.3429
19068TIP3   OH278618   1.887   5.343  15.102 -0.7715 -0.1566 -0.2833
19068TIP3    H178619   1.811   5.401  15.106  1.1387  2.5861 -1.7012
19068TIP3    H278620   1.960   5.398  15.132  0.5070 -3.0267  2.0430
19069TIP3   OH278621   5.782   2.894   4.541  0.2702  0.1727  0.6809
19069TIP3    H178622   5.835   2.944   4.479  1.4211 -0.6999  0.9349
19069TIP3    H278623   5.817   2.804   4.536 -1.8920 -0.6511  0.0918
19070TIP3   OH278624   4.915   5.961  16.394  0.1133 -0.6137 -0.8062
19070TIP3    H178625   4.953   5.895  16.452  1.2123 -0.2440 -1.0783
19070TIP3    H278626   4.940   6.044  16.433 -0.6723 -0.3541 -0.8429
19071TIP3   OH278627   6.685   5.294  16.156 -0.5487 -0.6658 -0.0904
19071TIP3    H178628   6.764   5.348  16.166 -1.5205  0.3897  2.4091
19071TIP3    H278629   6.657   5.277  16.246 -2.7843 -1.6175 -0.9376
19072TIP3   OH278630   5.797   2.458   3.761  0.4104  0.4270  0.1056
19072TIP3    H178631   5.843   2.426   3.683 -2.1752  0.5764 -1.5126
19072TIP3    H278632   5.782   2.379   3.813 -0.1035 -0.0445 -0.7511
19073TIP3   OH278633   6.693   4.023  14.454  0.4152 -0.2737  0.3601
19073TIP3    H178634   6.713   4.109  14.491  3.0553 -0.2732 -0.9411
19073TIP3    H278635   6.638   4.043  14.378 -0.5753  0.1092  1.1664
19074TIP3   OH278636   4.973   2.922  12.812  0.4248 -0.0755  0.4147
19074TIP3    H178637   5.038   2.943  12.879  1.2762  1.5097 -0.8746
19074TIP3    H278638   4.900   2.981  12.829  0.6570  0.3562 -0.0727
19075TIP3   OH278639   1.032   4.771  10.827 -0.6999  0.1139  0.0422
19075TIP3    H178640   1.045   4.861  10.857 -1.3788  0.6886 -1.3679
19075TIP3    H278641   1.049   4.773  10.733  0.1281 -1.4152  0.1304
19076TIP3   OH278642   2.534   2.356   4.524 -0.0745  0.4724 -0.7563
19076TIP3    H178643   2.511   2.264   4.518  0.9445  0.1871 -0.3664
19076TIP3    H278644   2.572   2.366   4.611 -0.3854  1.3060 -0.7138
19077TIP3   OH278645   4.585   6.236  11.672 -0.0876  0.4781  0.6659
19077TIP3    H178646   4.563   6.143  11.664  0.2410  0.4698 -0.2836
19077TIP3    H278647   4.651   6.240  11.741 -0.0357 -0.0065  0.6485
19078TIP3   OH278648   6.344   2.573  14.825 -0.7608 -0.0021 -0.2719
19078TIP3    H178649   6.370   2.593  14.915  0.5657  0.7105 -0.8003
19078TIP3    H278650   6.372   2.482  14.812  0.5342  0.4153 -0.4863
19079TIP3   OH278651   2.358   1.994   1.549  0.0258 -0.3684  0.0682
19079TIP3    H178652   2.451   1.977   1.563 -0.0149 -0.6628 -0.0038
19079TIP3    H278653   2.322   1.908   1.525 -0.1279 -0.1188 -0.6144
19080TIP3   OH278654   6.560   0.727   0.304  0.0173 -0.5307  0.4232
19080TIP3    H178655   6.617   0.660   0.267  0.0129  0.3949 -1.3374
19080TIP3    H278656   6.605   0.810   0.284 -1.3268  0.1350  0.1098
19081TIP3   OH278657   0.983   1.905  11.684 -0.1516 -0.0556 -0.4286
19081TIP3    H178658   1.045   1.974  11.707 -1.0909  0.7710 -0.3841
19081TIP3    H278659   1.036   1.825  11.686  1.0927  0.7285 -1.1227
19082TIP3   OH278660   1.150   1.164   5.141  0.2843 -0.0436  0.2973
19082TIP3    H178661   1.063   1.161   5.101 -1.2093  0.8465  3.3341
19082TIP3    H278662   1.158   1.252   5.176  1.9294 -0.4810  1.0956
19083TIP3   OH278663   5.933   0.757   6.693  0.6383 -0.0809 -0.5183
19083TIP3    H178664   5.953   0.842   6.731 -1.4086  0.1414  0.0936
19083TIP3    H278665   6.003   0.742   6.629  1.5403  1.6125  0.0628
19084TIP3   OH278666   1.468   2.334  10.694 -0.2036 -0.8034 -0.4801
19084TIP3    H178667   1.397   2.392  10.666  1.6816  1.8723  0.1028
19084TIP3    H278668   1.548   2.383  10.675  1.4094 -2.6730  1.2366
19085TIP3   OH278669   0.504   4.885  13.014 -0.5103 -0.3871  0.2014
19085TIP3    H178670   0.577   4.864  13.072 -1.3704 -1.5068  0.8923
19085TIP3    H278671   0.529   4.969  12.974  1.0041 -0.6023  0.6547
19086TIP3   OH278672   2.586   5.959   1.330 -0.1971 -0.2214  0.3440
19086TIP3    H178673   2.596   6.054   1.324  1.4868 -0.2687  1.8804
19086TIP3    H278674   2.496   5.946   1.360 -0.1610  0.9171  0.9579
19087TIP3   OH278675   6.658   6.116  13.253 -0.6061  0.6187  0.6458
19087TIP3    H178676   6.658   6.072  13.168  0.1722  1.9112 -0.0338
19087TIP3    H278677   6.571   6.097  13.290 -0.3808 -1.2443  0.2558
19088TIP3   OH278678   5.903   3.048  12.084 -0.1892  0.2317  0.2114
19088TIP3    H178679   5.836   2.983  12.063  0.6288 -0.5343 -0.0637
19088TIP3    H278680   5.873   3.128  12.041 -0.8858 -0.1224  0.0262
19089TIP3   OH278681   4.349   4.615   3.157 -0.4359 -0.7783 -0.0714
19089TIP3    H178682   4.406   4.595   3.231  0.5557 -1.1653 -0.9351
19089TIP3    H278683   4.310   4.699   3.179  1.1816 -0.0543  0.1127
19090TIP3   OH278684   1.414   5.865  12.534 -0.1638 -0.3813 -0.0498
19090TIP3    H178685   1.320   5.868  12.517 -0.1526  0.0414 -0.0430
19090TIP3    H278686   1.427   5.927  12.605  0.0627 -0.7441  0.2229
19091TIP3   OH278687   1.148   0.977   1.781 -0.2325 -0.0390  0.4004
19091TIP3    H178688   1.132   0.886   1.806 -0.0572 -0.9229 -2.5680
19091TIP3    H278689   1.221   0.973   1.719 -1.2490  1.9442 -0.9769
19092TIP3   OH278690   3.908   1.165   4.497  0.1609  0.1764 -0.0353
19092TIP3    H178691   3.965   1.230   4.457  0.6670 -1.4801 -2.0651
19092TIP3    H278692   3.851   1.136   4.426 -0.4997 -1.1143  1.0033
19093TIP3   OH278693   1.535   2.266   3.233 -0.0728  0.1913  0.3609
19093TIP3    H178694   1.465   2.320   3.195 -0.0748  0.0970  0.2278
19093TIP3    H278695   1.591   2.244   3.159  0.2697  0.5205  0.5219
19094TIP3   OH278696   1.833   0.603   3.337 -0.2498  0.0301 -0.0545
19094TIP3    H178697   1.827   0.592   3.242 -1.8608 -0.2111  0.0713
19094TIP3    H278698   1.753   0.563   3.371  0.6017 -0.4332  1.4573
19095TIP3   OH278699   3.958   4.361   4.818  0.6342 -1.1151 -0.0879
19095TIP3    H178700   3.962   4.313   4.735 -0.8064  0.8770 -1.3320
19095TIP3    H278701   4.015   4.437   4.804 -1.6534  0.6090 -0.1836
19096TIP3   OH278702   4.682   0.786   1.760  0.2789  0.2694  0.3596
19096TIP3    H178703   4.756   0.728   1.741 -0.3763 -0.3530 -0.3042
19096TIP3    H278704   4.673   0.782   1.856  0.2369 -0.7280  0.3221
19097TIP3   OH278705   5.922   0.170   6.147 -0.7002  0.2783 -0.0806
19097TIP3    H178706   5.840   0.201   6.187  0.2476  1.8054  0.7107
19097TIP3    H278707   5.968   0.250   6.122  0.9093 -0.5563  0.1883
19098TIP3   OH278708   0.124   1.267   0.727  0.1599  0.4319 -0.2707
19098TIP3    H178709   0.210   1.243   0.692 -0.6574  0.5187 -2.4366
19098TIP3    H278710   0.071   1.285   0.649 -1.2131  2.5083  1.0992
19099TIP3   OH278711   6.312   3.711   4.767 -0.6906  0.3210 -0.0768
19099TIP3    H178712   6.273   3.678   4.687  1.1114 -2.4035  0.1208
19099TIP3    H278713   6.379   3.772   4.737  0.9503 -1.7559 -0.7407
19100TIP3   OH278714   3.705   4.639   5.808 -0.1821  0.1563 -0.3577
19100TIP3    H178715   3.619   4.597   5.803 -0.1937  0.2806 -1.3893
19100TIP3    H278716   3.739   4.616   5.894 -0.4824 -1.3996 -0.6514
19101TIP3   OH278717   0.967   2.766  14.796 -0.8961 -0.1253 -0.5061
19101TIP3    H178718   0.995   2.833  14.733 -1.1946 -2.1193 -2.8478
19101TIP3    H278719   0.897   2.719  14.750 -1.4214 -1.3632  1.5094
19102TIP3   OH278720   4.901   0.143  10.944  0.2657  0.1817 -0.5242
19102TIP3    H178721   4.834   0.141  10.876 -0.1097  0.3434 -0.1625
19102TIP3    H278722   4.983   0.157  10.897 -0.1601  1.7656 -0.8262
19103TIP3   OH278723   2.430   6.296  15.160 -0.0552 -0.0153  0.3224
19103TIP3    H178724   2.473   6.220  15.200  0.0870 -0.3448 -0.4495
19103TIP3    H278725   2.434   6.364  15.228  0.3817 -0.4969  0.7855
19104TIP3   OH278726   0.763   1.375  14.158 -0.6006 -0.1845 -0.3828
19104TIP3    H178727   0.774   1.389  14.253 -0.3361 -0.8330 -0.3144
19104TIP3    H278728   0.730   1.459  14.125 -0.1478  0.2307  0.1955
19105TIP3   OH278729   4.936   3.166   0.850 -0.0438  0.4704  0.2915
19105TIP3    H178730   5.001   3.141   0.915 -0.2627  1.2852  0.8358
19105TIP3    H278731   4.984   3.172   0.768  0.0595 -1.4763  0.1898
19106TIP3   OH278732   3.988   4.947   4.042  0.3635 -0.5190  0.2512
19106TIP3    H178733   3.983   5.033   3.999 -2.1995 -0.4880  0.5348
19106TIP3    H278734   3.981   4.884   3.970 -0.6892 -0.4807  0.3208
19107TIP3   OH278735   5.973   2.108  17.219 -0.2212  0.0684  0.2220
19107TIP3    H178736   5.926   2.028  17.197  2.5626 -1.4940 -0.3847
19107TIP3    H278737   5.955   2.122  17.312 -2.9255  0.3198 -0.3089
19108TIP3   OH278738   0.865   1.125   6.221 -0.8130  0.4524  0.0948
19108TIP3    H178739   0.951   1.094   6.194 -1.8262 -2.1243 -0.3369
19108TIP3    H278740   0.824   1.156   6.140 -0.2649  1.8715  0.3315
19109TIP3   OH278741   3.361   5.869   0.561 -0.3714 -0.1413  0.0470
19109TIP3    H178742   3.342   5.778   0.537 -2.3166  0.5938 -1.3297
19109TIP3    H278743   3.406   5.906   0.485  1.3073 -0.1850  0.9820
19110TIP3   OH278744   6.192   0.081  16.804 -0.3451  0.2647  0.5257
19110TIP3    H178745   6.116   0.106  16.752 -1.0152 -1.9448  0.4297
19110TIP3    H278746   6.255   0.153  16.790 -1.6471  1.1439 -0.9320
19111TIP3   OH278747   1.230   1.948  16.384 -0.2128 -0.1468 -0.4640
19111TIP3    H178748   1.201   2.040  16.386 -0.6170 -0.2894  0.0994
19111TIP3    H278749   1.154   1.900  16.352  0.4859 -0.1046 -2.2607
19112TIP3   OH278750   6.408   3.846   1.737  0.4265  0.0405 -0.1868
19112TIP3    H178751   6.468   3.890   1.798  0.8471 -1.4230  0.5017
19112TIP3    H278752   6.339   3.811   1.794  1.1841 -1.9306 -0.4395
19113TIP3   OH278753   3.665   3.062   3.539 -0.0267 -0.5396  0.5387
19113TIP3    H178754   3.639   3.153   3.555 -0.9813 -0.6504 -0.2723
19113TIP3    H278755   3.725   3.066   3.465 -3.2928 -0.9041 -2.2703
19114TIP3   OH278756   4.759   2.231   4.734 -0.0588  0.4240  0.2264
19114TIP3    H178757   4.798   2.281   4.663 -2.1322 -0.8414 -1.8905
19114TIP3    H278758   4.801   2.145   4.728 -0.0011  0.4182  0.7250
19115TIP3   OH278759   0.862   1.109   1.224 -0.0434 -0.1710  0.2812
19115TIP3    H178760   0.878   1.055   1.147  1.0330  1.0240 -0.3519
19115TIP3    H278761   0.778   1.079   1.258 -0.8900 -0.2078 -1.7897
19116TIP3   OH278762   1.002   3.564  16.217  0.2988  0.4240  0.1260
19116TIP3    H178763   1.032   3.640  16.167 -0.0026  0.1372 -0.4931
19116TIP3    H278764   0.935   3.598  16.276  1.1546  0.8928  0.8325
19117TIP3   OH278765   2.336   5.888   1.398 -0.1662 -0.2795 -0.2294
19117TIP3    H178766   2.294   5.973   1.407 -0.0419 -0.3335  1.0112
19117TIP3    H278767   2.266   5.825   1.415  0.2521 -0.3793  1.1528
19118TIP3   OH278768   1.449   3.939   2.236 -0.2144  0.5115 -0.7291
19118TIP3    H178769   1.395   3.885   2.178 -0.2812  0.9072 -1.0374
19118TIP3    H278770   1.409   4.026   2.232 -1.4509  0.0753  1.4936
19119TIP3   OH278771   0.032   3.685  15.699  0.0690  0.0168  0.1435
19119TIP3    H178772  -0.043   3.690  15.758 -2.2459  1.3465 -2.7867
19119TIP3    H278773   0.006   3.622  15.632  1.4149  0.7609 -1.1116
19120TIP3   OH278774   3.922   3.388   5.109 -0.0583  0.5464 -0.0328
19120TIP3    H178775   3.997   3.378   5.168 -0.4159  1.3848  0.5758
19120TIP3    H278776   3.939   3.326   5.039  0.2928 -0.5956  1.0347
19121TIP3   OH278777   5.065   4.805   2.374  0.2823  0.2935 -0.1146
19121TIP3    H178778   5.071   4.779   2.282  0.2671  3.4009 -1.0563
19121TIP3    H278779   5.151   4.842   2.394 -0.4399  1.7475  0.4004
19122TIP3   OH278780   2.548   0.187   6.530  0.4078  0.5107 -0.1706
19122TIP3    H178781   2.569   0.239   6.453  0.1568  1.7330  0.5782
19122TIP3    H278782   2.625   0.131   6.543  0.6422  0.6375 -1.0240
19123TIP3   OH278783   3.769   1.240   4.721  0.0371  0.0990  0.1226
19123TIP3    H178784   3.691   1.269   4.673  0.1299 -0.3907 -0.3281
19123TIP3    H278785   3.830   1.212   4.653  0.1353 -0.6893  0.5295
19124TIP3   OH278786   2.791   2.668   5.809 -0.0302  0.2450 -0.0326
19124TIP3    H178787   2.880   2.646   5.835  0.2039  0.5728 -0.5470
19124TIP3    H278788   2.742   2.587   5.824  0.0018  0.5597  1.7910
19125TIP3   OH278789   0.587   1.889   5.477  0.7714  0.1650 -0.2178
19125TIP3    H178790   0.511   1.946   5.483 -0.9473 -2.1885  1.2519
19125TIP3    H278791   0.626   1.892   5.564  0.2649 -1.4078  0.0792
19126TIP3   OH278792   0.901   4.780  10.507  0.2212 -0.2935  0.2960
19126TIP3    H178793   0.992   4.764  10.532  0.3449 -1.2852 -0.7760
19126TIP3    H278794   0.864   4.694  10.490 -0.4385  0.2070 -0.9227
19127TIP3   OH278795   5.171   6.458   3.449  0.4721 -0.3052 -0.0251
19127TIP3    H178796   5.232   6.469   3.376  1.8802 -4.1940  0.4422
19127TIP3    H278797   5.207   6.513   3.519  2.6297 -1.3616 -0.2651
19128TIP3   OH278798   2.910   4.000  16.619 -0.7393 -0.3943 -0.2985
19128TIP3    H178799   2.848   3.935  16.588 -1.6817 -0.0039  0.7154
19128TIP3    H278800   2.938   3.968  16.705  0.7694 -0.7732 -0.9307
19129TIP3   OH278801   5.303   1.909  12.201  0.6673  0.4254  0.4134
19129TIP3    H178802   5.259   1.888  12.284  0.1846  0.3216  0.1339
19129TIP3    H278803   5.393   1.929  12.226  0.8489 -0.8632  0.8092
19130TIP3   OH278804   0.284   4.946  14.680  0.3366  0.1760  0.5842
19130TIP3    H178805   0.198   4.954  14.722 -0.3006  2.3802 -1.0879
19130TIP3    H278806   0.341   5.004  14.731  0.6949 -0.7052  1.2190
19131TIP3   OH278807   6.227   0.105   5.032  0.6910 -0.1932  0.5995
19131TIP3    H178808   6.260   0.170   5.094  1.8136  0.3562 -0.5527
19131TIP3    H278809   6.171   0.155   4.973  0.9141 -0.4239  0.1937
19132TIP3   OH278810   0.841   1.445   0.686  0.0327  0.3261 -0.0051
19132TIP3    H178811   0.812   1.425   0.775 -0.9944 -0.7681 -0.5636
19132TIP3    H278812   0.778   1.510   0.655  0.7878  1.2038  0.2965
19133TIP3   OH278813   4.685   2.873   4.507 -0.0978 -0.6244  0.7564
19133TIP3    H178814   4.749   2.820   4.555  1.5382  1.5752  1.0951
19133TIP3    H278815   4.635   2.917   4.575  0.0655  0.0071  0.4697
19134TIP3   OH278816   5.233   4.433  12.306 -0.1187 -0.1797 -0.5054
19134TIP3    H178817   5.250   4.385  12.387  0.1589  1.4326  0.4030
19134TIP3    H278818   5.311   4.418  12.253 -1.0250 -2.6665 -1.2078
19135TIP3   OH278819   0.539   3.792  11.213  0.1891 -0.4954  0.3705
19135TIP3    H178820   0.574   3.825  11.296  1.5459 -0.1280 -0.3291
19135TIP3    H278821   0.579   3.706  11.203 -0.9634 -1.0828  0.7005
19136TIP3   OH278822   3.232   6.617   1.011 -0.3194  0.0983  0.0375
19136TIP3    H178823   3.204   6.706   0.989 -1.9424 -0.3890  0.0724
19136TIP3    H278824   3.160   6.562   0.980  1.8938 -1.4615 -2.5207
19137TIP3   OH278825   2.366   3.161   2.518  0.1058 -0.0330  0.3038
19137TIP3    H178826   2.282   3.204   2.507  0.3110  0.3544  0.2287
19137TIP3    H278827   2.417   3.221   2.572  1.1328  0.8395 -1.5875
19138TIP3   OH278828   1.361   6.773   5.760 -0.5598  0.2582 -0.1206
19138TIP3    H178829   1.405   6.838   5.705 -0.0583  2.4739  2.7827
19138TIP3    H278830   1.269   6.799   5.758 -0.6955 -0.2576 -0.6911
19139TIP3   OH278831   6.127   2.789   6.470 -0.7011 -0.0902 -0.5823
19139TIP3    H178832   6.119   2.857   6.403 -1.1148  1.1309  0.6721
19139TIP3    H278833   6.044   2.794   6.519 -0.4794 -1.0761 -0.1018
19140TIP3   OH278834   0.179   2.885   3.397  0.2240 -0.0486 -0.9464
19140TIP3    H178835   0.217   2.972   3.381 -1.6628  1.0159  0.2781
19140TIP3    H278836   0.175   2.878   3.492  0.3576 -1.4931 -1.0459
19141TIP3   OH278837   3.961   4.361   5.869 -0.3345  0.1083  0.3228
19141TIP3    H178838   3.889   4.410   5.829 -0.6907 -0.7086 -0.0559
19141TIP3    H278839   4.030   4.426   5.882 -0.7526  0.6853 -0.2909
19142TIP3   OH278840   2.547   6.450  16.841  0.3803 -0.2676 -0.1701
19142TIP3    H178841   2.472   6.446  16.782 -0.8996  0.8730  1.3079
19142TIP3    H278842   2.596   6.527  16.812 -0.7790  0.8673  0.8379
19143TIP3   OH278843   5.346   3.214   2.986 -0.3755  0.1535  0.1201
19143TIP3    H178844   5.336   3.143   3.049  1.7729  0.3129  0.6836
19143TIP3    H278845   5.393   3.174   2.912 -1.4298  0.3647 -0.6709
19144TIP3   OH278846   2.984   3.796  15.239  0.2555  0.1168  0.1694
19144TIP3    H178847   2.987   3.789  15.144 -0.2149 -2.3403  0.2863
19144TIP3    H278848   3.072   3.822  15.265  0.3333  0.9582 -0.9481
19145TIP3   OH278849   2.275   5.126  16.220  0.2727  0.4092 -0.1317
19145TIP3    H178850   2.256   5.220  16.222 -1.4076  0.0880  0.4759
19145TIP3    H278851   2.349   5.117  16.160  2.2476  2.3997  1.9288
19146TIP3   OH278852   2.311   4.339  10.959  0.3156  0.0203 -0.1790
19146TIP3    H178853   2.310   4.252  10.918  2.2085  0.2999 -0.8603
19146TIP3    H278854   2.323   4.399  10.885 -0.4241  0.8223  0.3524
19147TIP3   OH278855   6.670   2.725   6.934  0.1187 -0.6218  0.3220
19147TIP3    H178856   6.764   2.710   6.922 -0.3599 -2.8948 -0.9687
19147TIP3    H278857   6.646   2.667   7.006 -0.1708  0.4910  1.1246
19148TIP3   OH278858   2.318   5.817   1.867 -0.4318 -0.0805 -0.4748
19148TIP3    H178859   2.304   5.757   1.794  0.3635  0.6642 -1.2482
19148TIP3    H278860   2.367   5.765   1.931  2.8436  0.5462 -2.3507
19149TIP3   OH278861   2.631   6.062   3.041 -0.1742 -0.0870  0.0454
19149TIP3    H178862   2.567   6.046   2.971 -0.9420  0.1496  0.6853
19149TIP3    H278863   2.608   6.149   3.074 -0.3174 -0.5196  1.1116
19150TIP3   OH278864   6.712   4.212  12.441 -0.0015  0.1654  0.2222
19150TIP3    H178865   6.730   4.134  12.389 -0.4421  0.3962 -0.2894
19150TIP3    H278866   6.772   4.207  12.515  0.3989 -0.3400 -0.1374
19151TIP3   OH278867   6.725   6.247   3.001 -0.3888  0.2976 -0.2241
19151TIP3    H178868   6.781   6.324   3.009 -0.9003  0.6365  0.1062
19151TIP3    H278869   6.773   6.189   2.940  0.7182  0.2157  0.6992
19152TIP3   OH278870   5.617   1.037   1.098  0.3485  0.0998 -0.0326
19152TIP3    H178871   5.566   0.958   1.079  0.6447  0.4004 -2.2424
19152TIP3    H278872   5.562   1.087   1.158 -1.0432 -0.5593 -0.7267
19153TIP3   OH278873   6.115   2.037  14.649 -0.0763 -0.2538  0.0410
19153TIP3    H178874   6.147   2.093  14.578 -0.0264 -1.3254 -0.7835
19153TIP3    H278875   6.026   2.069  14.666  0.7287  1.5200  1.0930
19154TIP3   OH278876   4.088   2.672  16.509  0.1417 -0.8775  0.7547
19154TIP3    H178877   4.102   2.749  16.564  2.6856 -0.2565 -0.6651
19154TIP3    H278878   4.072   2.707  16.422  1.7262 -1.9315  0.0059
19155TIP3   OH278879   2.053   4.586  12.535 -0.3072  0.1386  0.1581
19155TIP3    H178880   1.963   4.615  12.522 -1.0096 -2.0060  0.0683
19155TIP3    H278881   2.050   4.491  12.524  2.2058  0.1666 -1.2553
19156TIP3   OH278882   5.965   3.939  11.657  0.1269 -0.4593 -0.0293
19156TIP3    H178883   6.026   4.012  11.648 -1.3713  1.0909  1.9988
19156TIP3    H278884   5.987   3.900  11.743 -0.5635 -0.9981 -0.0902
19157TIP3   OH278885   4.353   3.735   1.760 -0.4951  0.2134  0.1850
19157TIP3    H178886   4.390   3.823   1.751 -1.3149  0.6515  0.9957
19157TIP3    H278887   4.384   3.689   1.682 -0.7532  1.4760 -0.6955
19158TIP3   OH278888   3.186   3.394  13.428  0.9115  0.1452  0.1922
19158TIP3    H178889   3.271   3.438  13.437 -0.0806  2.3933 -0.9516
19158TIP3    H278890   3.123   3.466  13.420 -1.2175 -1.4730  1.8889
19159TIP3   OH278891   0.112   2.094   3.590  0.0558  0.3916 -0.0232
19159TIP3    H178892   0.099   2.014   3.539  0.4974 -0.1609  0.7252
19159TIP3    H278893   0.060   2.081   3.669 -0.9787  1.4334 -0.5039
19160TIP3   OH278894   1.537   5.890   0.629  0.4910  0.0061 -0.7937
19160TIP3    H178895   1.582   5.824   0.576  0.6571 -0.3789 -0.1766
19160TIP3    H278896   1.459   5.844   0.663 -0.6383  0.8074 -2.2565
19161TIP3   OH278897   3.241   6.239  12.347 -0.3837  0.1143  0.2120
19161TIP3    H178898   3.212   6.219  12.436  0.0314  1.2148  0.5946
19161TIP3    H278899   3.191   6.179  12.292  1.1086 -2.2987  1.3721
19162TIP3   OH278900   5.134   0.393   1.244  0.2821  0.0332 -0.2885
19162TIP3    H178901   5.215   0.379   1.293 -0.0378 -0.9339 -0.0307
19162TIP3    H278902   5.068   0.341   1.290 -0.0098 -0.9561 -1.7917
19163TIP3   OH278903   1.994   2.934   4.728 -0.6284  0.1483  0.3997
19163TIP3    H178904   1.930   2.957   4.661  1.2572  2.4941 -0.6669
19163TIP3    H278905   2.044   2.862   4.689  0.3158  1.3545 -0.6583
19164TIP3   OH278906   5.658   0.073  14.402 -0.2190  0.1795 -0.2323
19164TIP3    H178907   5.638   0.045  14.491  3.5788 -1.5355  0.1790
19164TIP3    H278908   5.701   0.158  14.413 -0.0154  0.1077 -0.4853
19165TIP3   OH278909   4.489   1.657  14.760  0.7626  0.1305  0.7348
19165TIP3    H178910   4.577   1.672  14.724  0.6523  0.6977  0.6959
19165TIP3    H278911   4.441   1.737  14.740  0.3955  0.0402  1.2383
19166TIP3   OH278912   6.719   5.088   0.203  0.1859  0.4762  0.1070
19166TIP3    H178913   6.761   5.080   0.117 -0.7477 -0.2588 -0.2950
19166TIP3    H278914   6.651   5.021   0.202  1.2584 -0.6803  2.0797
19167TIP3   OH278915   0.627   4.352   5.066 -0.5065 -0.2284  0.1723
19167TIP3    H178916   0.686   4.305   5.125 -1.9796 -0.0950  1.7976
19167TIP3    H278917   0.556   4.291   5.049  0.3182 -0.5598 -2.1660
19168TIP3   OH278918   2.797   2.768   0.068  0.0834  0.8780  0.1545
19168TIP3    H178919   2.794   2.858   0.037 -0.4571  1.0292  0.6267
19168TIP3    H278920   2.863   2.769   0.138 -0.2384  1.0024  0.4561
19169TIP3   OH278921   5.844   0.085  11.386  0.1352  0.2305 -0.1268
19169TIP3    H178922   5.842   0.173  11.349 -0.0044 -0.1272 -0.9684
19169TIP3    H278923   5.799   0.030  11.322 -1.5079 -0.1244  1.2766
19170TIP3   OH278924   4.451   0.201  14.458 -0.1844  0.4120  0.7422
19170TIP3    H178925   4.477   0.128  14.401 -2.3761  0.0634  0.1677
19170TIP3    H278926   4.382   0.165  14.513 -0.3748  1.7082  1.3549
19171TIP3   OH278927   0.076   4.069   3.993 -0.0010  0.5086 -0.4692
19171TIP3    H178928   0.075   3.986   4.041 -2.5164 -1.0069 -2.9045
19171TIP3    H278929   0.013   4.124   4.039  0.2007  0.3165  0.0327
19172TIP3   OH278930   6.067   5.448   2.655 -0.3600 -0.0863 -0.1103
19172TIP3    H178931   5.982   5.489   2.670 -2.1160 -2.7750 -2.0348
19172TIP3    H278932   6.097   5.485   2.572 -1.1884 -1.4137 -1.0293
19173TIP3   OH278933   4.965   1.005   2.926 -0.1158  0.4409  0.3532
19173TIP3    H178934   4.955   0.920   2.969  0.1922  0.8870  1.3236
19173TIP3    H278935   4.954   0.987   2.833 -0.7225 -0.5560  0.6153
19174TIP3   OH278936   1.141   2.807  13.245 -0.6329  0.0941 -0.1995
19174TIP3    H178937   1.143   2.894  13.205  0.2140  0.4034  0.5076
19174TIP3    H278938   1.217   2.762  13.209 -0.2751  0.1278  0.5200
19175TIP3   OH278939   5.862   0.491  11.640 -0.2595  0.0602  0.6633
19175TIP3    H178940   5.878   0.578  11.676 -1.2369  1.3754 -1.9361
19175TIP3    H278941   5.938   0.473  11.585 -1.9098  1.0996 -2.0594
19176TIP3   OH278942   3.094   2.940  12.842 -0.1856 -0.1411 -0.4329
19176TIP3    H178943   3.169   2.914  12.790 -0.7465 -2.0974 -0.3016
19176TIP3    H278944   3.032   2.976  12.779  0.9260  1.7109 -0.5088
19177TIP3   OH278945   3.187   0.401  14.570 -0.5263 -0.3961  0.1472
19177TIP3    H178946   3.159   0.483  14.528 -0.0479 -0.6110 -0.5843
19177TIP3    H278947   3.233   0.353  14.502 -0.8995 -1.3331  0.5523
19178TIP3   OH278948   4.712   0.703  14.591 -0.1992 -0.6980 -0.7673
19178TIP3    H178949   4.656   0.642  14.544 -0.6689 -0.4057 -0.5898
19178TIP3    H278950   4.770   0.738  14.524  0.5603 -1.8764 -0.7331
19179TIP3   OH278951   2.001   1.468  11.809  0.4628 -0.1305  0.3646
19179TIP3    H178952   1.991   1.563  11.823  0.5616 -0.1467  0.5461
19179TIP3    H278953   2.049   1.461  11.726 -1.0505 -0.0495 -0.5394
19180TIP3   OH278954   5.746   0.411  15.967  0.5546  1.0405 -0.6456
19180TIP3    H178955   5.792   0.460  16.036  1.4645  2.0866 -1.9661
19180TIP3    H278956   5.663   0.456  15.957 -0.1041  0.1422  0.6013
19181TIP3   OH278957   6.512   2.504   1.571 -0.2525  0.3430  0.4053
19181TIP3    H178958   6.553   2.419   1.590 -0.5559  0.2318  0.5700
19181TIP3    H278959   6.419   2.489   1.584 -0.4641  0.2746 -1.1925
19182TIP3   OH278960   0.831   3.982   4.937  0.1245  0.4972  0.2943
19182TIP3    H178961   0.920   4.012   4.920 -0.4188  1.6438 -0.6465
19182TIP3    H278962   0.818   3.909   4.877  0.0412  1.0933 -0.4248
19183TIP3   OH278963   6.256   6.194  13.630  0.0884 -0.3398  0.1424
19183TIP3    H178964   6.326   6.132  13.612 -0.2322 -0.6940  0.1077
19183TIP3    H278965   6.195   6.184  13.556  1.0174  1.4463 -0.9112
19184TIP3   OH278966   5.512   2.426  13.816 -0.2124 -0.1948  0.0004
19184TIP3    H178967   5.520   2.432  13.720  0.3132  0.5074  0.0916
19184TIP3    H278968   5.600   2.406  13.846 -0.0656  1.1187  0.4624
19185TIP3   OH278969   5.957   2.563   0.987  0.1132  0.1486 -0.2169
19185TIP3    H178970   5.965   2.648   0.943  0.2645  0.0945 -0.2951
19185TIP3    H278971   5.922   2.583   1.074  0.2502  0.2998 -0.1980
19186TIP3   OH278972   2.705   1.710  16.921  0.8387  0.0255 -0.3361
19186TIP3    H178973   2.670   1.645  16.860  0.4207  0.3579 -0.4588
19186TIP3    H278974   2.633   1.773  16.932  0.3762 -0.8121  1.6196
19187TIP3   OH278975   1.046   4.027  14.005 -0.4757 -0.0023  0.1563
19187TIP3    H178976   1.019   3.955  13.948 -1.2225  0.7780 -0.4959
19187TIP3    H278977   1.084   4.092  13.946  2.1885 -0.7480  0.9750
19188TIP3   OH278978   1.405   1.901   5.136  0.0746 -0.3426  0.4390
19188TIP3    H178979   1.437   1.818   5.099 -1.3019 -0.5749 -0.2352
19188TIP3    H278980   1.412   1.964   5.064 -1.3261 -0.4812  0.1762
19189TIP3   OH278981   3.947   4.169  12.139  0.5799 -0.4041  0.4024
19189TIP3    H178982   4.041   4.179  12.127  0.8941 -1.7439  1.4954
19189TIP3    H278983   3.939   4.107  12.212 -1.1470  0.1222  0.6878
19190TIP3   OH278984   4.264   4.530  15.772 -0.0537  0.0232  0.4596
19190TIP3    H178985   4.219   4.608  15.738  2.4364  0.1637 -2.7293
19190TIP3    H278986   4.325   4.564  15.837 -0.4662  0.4766  0.6175
19191TIP3   OH278987   5.904   4.762   4.523  0.1997 -0.3548  0.1826
19191TIP3    H178988   5.989   4.805   4.526 -0.1993  0.5241 -0.8422
19191TIP3    H278989   5.855   4.810   4.455 -1.6041  0.1046  1.7501
19192TIP3   OH278990   4.455   3.438   6.583  0.6565  0.0640  1.0021
19192TIP3    H178991   4.548   3.460   6.585  0.8888 -0.8897  0.9885
19192TIP3    H278992   4.448   3.367   6.519 -0.1594  0.4901  0.6077
19193TIP3   OH278993   5.707   2.931   3.545  0.4285 -0.2831 -0.4384
19193TIP3    H178994   5.791   2.970   3.523  0.0157  0.5320 -0.5899
19193TIP3    H278995   5.654   2.941   3.466  0.4778 -1.6179 -0.6617
19194TIP3   OH278996   1.382   1.642  13.198 -0.0008 -0.1315  0.0249
19194TIP3    H178997   1.449   1.606  13.140  0.9110  0.6864  0.5654
19194TIP3    H278998   1.308   1.583  13.188  1.5654 -2.3447  1.1104
19195TIP3   OH278999   0.494   6.550  11.925 -0.5130  0.5417  0.5689
19195TIP3    H179000   0.527   6.544  11.835 -2.5871  0.7378 -0.2305
19195TIP3    H279001   0.552   6.613  11.967  2.0680 -1.4311  0.1242
19196TIP3   OH279002   5.035   3.142  16.372 -0.0934 -0.8297 -0.6194
19196TIP3    H179003   4.971   3.144  16.442 -1.3145 -0.5467 -1.7295
19196TIP3    H279004   5.065   3.050  16.369 -0.2042 -0.8864  0.1038
19197TIP3   OH279005   5.922   2.169  15.953 -0.3675 -0.0299  0.0864
19197TIP3    H179006   5.852   2.166  15.889 -0.3576 -0.1017  0.0796
19197TIP3    H279007   5.999   2.136  15.907 -0.1250  0.8769 -0.1732
19198TIP3   OH279008   4.175   6.220   5.248 -0.0715 -0.3304 -0.2811
19198TIP3    H179009   4.253   6.200   5.300 -0.7969 -0.0472  0.9366
19198TIP3    H279010   4.177   6.316   5.238 -0.2620 -0.3251 -0.2595
19199TIP3   OH279011   6.680   3.294  14.938  0.3057 -0.7804 -0.3716
19199TIP3    H179012   6.620   3.367  14.953  1.2332  0.2664 -1.6075
19199TIP3    H279013   6.632   3.217  14.967 -1.1733  0.1850 -0.2126
19200TIP3   OH279014   4.825   4.173  16.534  0.2420  0.1683  0.2814
19200TIP3    H179015   4.786   4.222  16.606  1.0513 -1.4067  1.8150
19200TIP3    H279016   4.890   4.117  16.575  1.2260 -0.2397 -1.7667
19201TIP3   OH279017   6.022   1.545  14.381  0.1697 -0.4481  0.2477
19201TIP3    H179018   6.075   1.567  14.457  0.7393 -0.2998 -0.1870
19201TIP3    H279019   5.940   1.511  14.417  0.3857 -0.2491  0.9204
19202TIP3   OH279020   5.317   4.299  14.358  0.7639 -0.3776 -0.1842
19202TIP3    H179021   5.359   4.224  14.399 -1.6473 -0.4162  2.3551
19202TIP3    H279022   5.312   4.365  14.428 -0.3475  0.8341 -1.3759
19203TIP3   OH279023   1.052   1.336  16.859 -0.1457 -0.0090  0.3959
19203TIP3    H179024   1.000   1.394  16.804 -0.9050 -0.0087  1.0927
19203TIP3    H279025   1.001   1.255  16.863 -0.2289  0.0758  1.2831
19204TIP3   OH279026   0.178   1.653   1.590 -0.6705  0.1051 -0.2870
19204TIP3    H179027   0.194   1.574   1.642 -2.3414 -0.4509 -0.5907
19204TIP3    H279028   0.082   1.659   1.585 -0.5781  2.7880  0.7036
19205TIP3   OH279029   0.710   5.267  17.034 -0.6356 -0.3205  0.3488
19205TIP3    H179030   0.698   5.361  17.046 -0.0187 -0.0443 -1.0026
19205TIP3    H279031   0.623   5.234  17.012 -1.0700 -0.2597  1.9368
19206TIP3   OH279032   1.825   1.578   4.197 -0.2862 -0.5514  0.1949
19206TIP3    H179033   1.837   1.668   4.169 -0.7939 -0.2193  1.0290
19206TIP3    H279034   1.733   1.573   4.223 -0.5397 -1.5854 -0.8347
19207TIP3   OH279035   3.443   4.870  11.535 -0.7130  0.3438  0.6060
19207TIP3    H179036   3.355   4.860  11.497 -1.3298  1.5565  1.6919
19207TIP3    H279037   3.434   4.837  11.624 -0.8980  3.4187  1.7802
19208TIP3   OH279038   3.386   0.509  13.958 -0.4920  0.4058  0.1372
19208TIP3    H179039   3.337   0.565  13.898 -1.9132 -0.2580  0.6653
19208TIP3    H279040   3.432   0.448  13.901 -0.5072  0.8473 -0.3513
19209TIP3   OH279041   1.979   4.481   3.147 -0.0537 -0.5204  0.3305
19209TIP3    H179042   1.923   4.554   3.122 -0.7612 -1.4490 -0.8193
19209TIP3    H279043   2.003   4.499   3.238 -0.0481  1.2446 -0.0128
19210TIP3   OH279044   1.424   2.558  17.079  0.1926 -0.5084 -0.0386
19210TIP3    H179045   1.337   2.558  17.041  0.3329 -0.3195 -0.3570
19210TIP3    H279046   1.446   2.651  17.090  0.1632 -0.5610  0.4724
19211TIP3   OH279047   2.359   6.596   1.204 -0.3029  0.0945 -0.3323
19211TIP3    H179048   2.269   6.563   1.198 -0.6621  1.2204 -1.3497
19211TIP3    H279049   2.351   6.678   1.253 -0.2622  1.6721 -2.8564
19212TIP3   OH279050   1.736   6.611   2.208 -0.7092  0.4109 -0.3993
19212TIP3    H179051   1.793   6.611   2.285  1.5130  1.3852 -1.9587
19212TIP3    H279052   1.758   6.529   2.163 -1.2834  0.3005 -0.4735
19213TIP3   OH279053   3.949   4.970  15.408  0.0181 -0.0774 -0.0600
19213TIP3    H179054   4.021   4.999  15.352  0.3973 -0.7791  0.0605
19213TIP3    H279055   3.965   4.877  15.422 -1.4528 -0.4710 -0.8309
19214TIP3   OH279056   0.273   2.070   3.077 -0.3008 -0.0030 -0.2353
19214TIP3    H179057   0.284   1.975   3.075 -1.2648 -0.1474  0.8826
19214TIP3    H279058   0.337   2.100   3.141  0.3477  0.1629 -0.9507
19215TIP3   OH279059   1.121   4.049  11.272 -0.2338  0.0737 -0.5718
19215TIP3    H179060   1.143   4.045  11.365 -2.0691 -0.5206 -0.1476
19215TIP3    H279061   1.205   4.064  11.228  0.9646 -1.8376  1.0020
19216TIP3   OH279062   0.830   3.960  11.465  0.0063 -0.3540 -0.1340
19216TIP3    H179063   0.791   3.887  11.515 -1.4406 -1.4119 -2.7135
19216TIP3    H279064   0.852   3.921  11.380  0.7312  1.8449 -0.9689
19217TIP3   OH279065   4.810   2.955   2.788 -0.0099  0.0115  0.1455
19217TIP3    H179066   4.842   2.878   2.742 -1.9474 -0.5546 -0.2969
19217TIP3    H279067   4.859   3.028   2.749  1.7290 -0.9432  0.4725
19218TIP3   OH279068   4.858   0.875   4.684  0.3238  0.1350 -0.5193
19218TIP3    H179069   4.882   0.949   4.739  0.7199 -0.3099 -0.0922
19218TIP3    H279070   4.905   0.801   4.721  0.2039 -0.2647 -1.1583
19219TIP3   OH279071   3.501   5.638   4.304 -0.0712 -0.1508  0.0702
19219TIP3    H179072   3.519   5.720   4.351  2.6154 -2.6265  3.6478
19219TIP3    H279073   3.500   5.571   4.373 -3.7882 -2.9526 -2.5555
19220TIP3   OH279074   4.079   4.738   1.077 -0.0044  0.3120 -0.3079
19220TIP3    H179075   4.108   4.681   1.148 -1.8917 -1.3466 -0.7886
19220TIP3    H279076   4.104   4.691   0.997 -3.3125 -0.9019 -0.7254
19221TIP3   OH279077   3.335   0.398   5.954 -0.3208  1.0348 -0.7891
19221TIP3    H179078   3.262   0.358   6.001 -0.3291  0.0250 -1.6487
19221TIP3    H279079   3.316   0.381   5.862  1.3303  0.2010 -0.9795
19222TIP3   OH279080   0.232   1.716   0.079  0.4030  0.7100  0.1938
19222TIP3    H179081   0.256   1.768   0.002 -0.6450 -0.3315 -0.8613
19222TIP3    H279082   0.142   1.742   0.098  0.7476  1.1687  1.2663
19223TIP3   OH279083   2.403   0.948  14.415 -0.7052 -0.3954 -0.1230
19223TIP3    H179084   2.406   1.035  14.455 -1.1557 -0.4525  0.0385
19223TIP3    H279085   2.376   0.890  14.486 -0.6399 -0.6345 -0.2913
19224TIP3   OH279086   5.878   2.964   0.223  0.0407 -0.5249  0.3504
19224TIP3    H179087   5.946   3.030   0.231 -1.2038  0.6559  1.3990
19224TIP3    H279088   5.911   2.889   0.271 -0.4828  0.9532  3.1103
19225TIP3   OH279089   0.788   3.428  16.652  0.4998  0.4001 -0.0166
19225TIP3    H179090   0.857   3.370  16.620  0.2158  0.8250 -1.4241
19225TIP3    H279091   0.769   3.396  16.741  0.8494 -1.1979 -0.5022
19226TIP3   OH279092   6.134   0.583  16.699 -0.3696  0.2699  0.2734
19226TIP3    H179093   6.129   0.648  16.769 -2.5382 -0.3679  0.7378
19226TIP3    H279094   6.064   0.606  16.639 -2.2832 -2.6033  1.3068
19227TIP3   OH279095   1.913   6.440   4.822  0.2429 -0.4304  0.4831
19227TIP3    H179096   1.833   6.441   4.874  0.8444 -0.0900  1.4092
19227TIP3    H279097   1.888   6.482   4.739 -0.0427  1.5333  1.5257
19228TIP3   OH279098   5.838   6.108  11.014  0.2731  0.2633 -0.2820
19228TIP3    H179099   5.745   6.090  11.033  1.0417 -2.0233  1.5669
19228TIP3    H279100   5.847   6.086  10.921 -1.1883  1.1917 -0.6676
19229TIP3   OH279101   4.175   3.193  17.114  0.1642 -0.1605 -0.4804
19229TIP3    H179102   4.146   3.167  17.027 -0.7756 -2.5126  0.4977
19229TIP3    H279103   4.271   3.192  17.109  0.1553 -2.4688 -0.9142
19230TIP3   OH279104   0.039   0.263  15.943 -0.1735  0.2841  0.1856
19230TIP3    H179105   0.050   0.245  15.849 -1.8180 -2.0619  0.4141
19230TIP3    H279106  -0.002   0.349  15.946  0.3614  0.6075 -1.2372
19231TIP3   OH279107   3.209   3.230   3.019  0.0800 -0.0378 -0.1435
19231TIP3    H179108   3.134   3.245   3.077 -0.4113  1.0722 -1.0238
19231TIP3    H279109   3.213   3.310   2.965  1.1587 -0.6024 -0.9169
19232TIP3   OH279110   3.667   6.672  15.019 -0.5325  0.4579  0.0292
19232TIP3    H179111   3.710   6.740  15.071 -0.4012  1.5443 -1.4675
19232TIP3    H279112   3.584   6.711  14.993 -1.4900 -0.8267  1.0879
19233TIP3   OH279113   0.148   6.402   1.545 -0.0626 -0.2797  0.2648
19233TIP3    H179114   0.231   6.448   1.562  0.6934 -1.2486 -0.7121
19233TIP3    H279115   0.174   6.314   1.519 -1.4573 -0.8956  0.9047
19234TIP3   OH279116   1.723   5.818  14.385 -0.0964 -0.0261 -0.1573
19234TIP3    H179117   1.743   5.797  14.476 -0.8836  0.2420  0.0804
19234TIP3    H279118   1.717   5.914  14.383  0.1911 -0.0159 -0.5449
19235TIP3   OH279119   5.742   0.064   1.689 -0.0764 -0.5687  0.0904
19235TIP3    H179120   5.728   0.092   1.598 -1.3884 -0.2562  0.3826
19235TIP3    H279121   5.655   0.041   1.721  0.2004  0.4463  1.6387
19236TIP3   OH279122   4.664   1.441   5.918  0.1019 -0.0485 -0.0014
19236TIP3    H179123   4.703   1.525   5.895 -1.0463  0.4517 -0.1787
19236TIP3    H279124   4.673   1.388   5.839 -0.0804  0.2579 -0.2291
19237TIP3   OH279125   3.493   0.726   3.179  0.2056  0.2790 -0.2147
19237TIP3    H179126   3.520   0.643   3.140  0.2485  0.7777 -1.2371
19237TIP3    H279127   3.475   0.783   3.105 -2.6673  0.2893  0.4565
19238TIP3   OH279128   2.300   6.280  15.767 -0.5500 -0.5247  0.1178
19238TIP3    H179129   2.320   6.231  15.847 -0.2268  0.5365  0.6951
19238TIP3    H279130   2.259   6.361  15.798 -1.0817 -0.4281 -0.8285
19239TIP3   OH279131   6.667   2.379   3.442  0.3618 -0.3462  0.1825
19239TIP3    H179132   6.760   2.363   3.449  0.5162 -0.1243 -1.0948
19239TIP3    H279133   6.660   2.473   3.423 -0.2015 -0.0726  1.6603
19240TIP3   OH279134   3.205   6.100   0.302  0.2081  0.3812  0.2712
19240TIP3    H179135   3.292   6.060   0.298  0.8087  1.7927 -1.2672
19240TIP3    H279136   3.218   6.190   0.274 -1.8392  0.4658 -0.5084
19241TIP3   OH279137   5.521   1.857   0.427  0.4465 -1.1246  0.4662
19241TIP3    H179138   5.607   1.816   0.437  2.0941  2.0804 -0.1107
19241TIP3    H279139   5.497   1.884   0.515  1.2821  0.4050  0.2293
19242TIP3   OH279140   3.120   1.271   1.746  0.7423  0.5252  0.0139
19242TIP3    H179141   3.106   1.342   1.684  1.1460  1.1153  0.5914
19242TIP3    H279142   3.174   1.207   1.699 -0.5577  0.0745 -0.8822
19243TIP3   OH279143   4.920   3.549   2.580 -0.1290  0.1593  0.3953
19243TIP3    H179144   5.012   3.570   2.568  0.2590 -1.5316  0.3275
19243TIP3    H279145   4.875   3.598   2.511  0.7867  0.4189 -0.0256
19244TIP3   OH279146   5.047   1.131  15.985  0.3222  0.2652 -0.1482
19244TIP3    H179147   4.975   1.115  16.046 -0.1349 -0.3900 -0.8556
19244TIP3    H279148   5.120   1.080  16.020 -0.6051 -2.0166 -1.3887
19245TIP3   OH279149   2.382   0.250  16.458 -0.1781  0.0038 -0.0388
19245TIP3    H179150   2.395   0.256  16.552 -1.6351 -0.8936  0.2331
19245TIP3    H279151   2.354   0.338  16.432 -0.0945  0.1641  0.4096
19246TIP3   OH279152   2.295   1.060  13.186 -0.1297  0.0481  0.0212
19246TIP3    H179153   2.365   1.106  13.138 -0.8352  2.3464  1.1071
19246TIP3    H279154   2.335   1.038  13.270 -0.5082  0.8050  0.4028
19247TIP3   OH279155   0.644   5.001  11.459  0.4701 -0.0896  0.1245
19247TIP3    H179156   0.624   5.093  11.475 -0.0798 -0.3441  0.9305
19247TIP3    H279157   0.586   4.953  11.519  0.9794 -0.9472 -0.0619
19248TIP3   OH279158   6.101   2.853  11.772 -0.7072  0.2500  0.5797
19248TIP3    H179159   6.159   2.778  11.781 -0.1252  0.5735 -0.4158
19248TIP3    H279160   6.020   2.816  11.736 -0.1526  0.2032 -0.6516
19249TIP3   OH279161   2.941   2.438   2.652  0.3446  0.3859  0.1899
19249TIP3    H179162   2.990   2.452   2.733 -0.6609 -0.0941  0.8776
19249TIP3    H279163   2.930   2.526   2.615  0.5523  0.6300  0.7076
19250TIP3   OH279164   2.071   0.938   0.690 -0.2524 -0.2666 -0.0347
19250TIP3    H179165   2.150   0.905   0.733 -0.4480  0.6992  1.1030
19250TIP3    H279166   2.071   1.032   0.707 -0.2460  0.1832 -2.3647
19251TIP3   OH279167   1.688   6.530   0.739  0.0877 -0.4907  0.1537
19251TIP3    H179168   1.754   6.567   0.680 -1.8360  1.7921 -0.6419
19251TIP3    H279169   1.669   6.601   0.800 -2.1549 -0.8383 -0.1025
19252TIP3   OH279170   3.139   1.839  15.648 -0.0500  0.2682 -0.3940
19252TIP3    H179171   3.168   1.925  15.679 -0.5746  0.2195  0.2428
19252TIP3    H279172   3.191   1.777  15.698  0.8040  0.2202 -1.3343
19253TIP3   OH279173   3.387   2.312  13.462 -0.3418  0.0529  0.2215
19253TIP3    H179174   3.303   2.281  13.430 -0.3281  2.1429 -1.9248
19253TIP3    H279175   3.448   2.299  13.389  0.8879 -0.0177  1.2264
19254TIP3   OH279176   5.213   6.629   5.320 -0.0431  0.5283  0.3719
19254TIP3    H179177   5.118   6.619   5.322  0.0271 -1.1864 -2.2177
19254TIP3    H279178   5.229   6.699   5.257  0.4477  0.2245  0.1572
19255TIP3   OH279179   0.732   2.351  12.701 -0.0101  0.5248  0.1374
19255TIP3    H179180   0.791   2.412  12.656 -0.4889  1.1529  0.3583
19255TIP3    H279181   0.778   2.268  12.699  0.6580  0.8986 -0.1506
19256TIP3   OH279182   2.744   0.594   4.969  0.5051 -0.1314 -0.6552
19256TIP3    H179183   2.730   0.634   5.054  0.4323  1.8217 -1.5414
19256TIP3    H279184   2.834   0.617   4.946  0.4934 -0.5508 -1.1349
19257TIP3   OH279185   1.702   0.662   2.949  0.3790  0.2444 -0.3394
19257TIP3    H179186   1.786   0.628   2.918 -0.9569 -2.2991 -1.2255
19257TIP3    H279187   1.664   0.704   2.872  0.8418  1.4997  0.0926
19258TIP3   OH279188   5.534   3.423   0.653 -0.2722  0.3329  0.3646
19258TIP3    H179189   5.460   3.484   0.656 -0.8283 -0.1983 -1.8893
19258TIP3    H279190   5.549   3.407   0.560  2.6182  0.3157  0.7711
19259TIP3   OH279191   4.234   0.294   3.112 -0.5813  0.2680 -0.3031
19259TIP3    H179192   4.317   0.279   3.158 -1.8596  3.3710  3.2765
19259TIP3    H279193   4.255   0.359   3.045  0.1150  0.2025 -0.1493
19260TIP3   OH279194   6.494   0.236  13.025 -0.7272  0.6055  0.2525
19260TIP3    H179195   6.514   0.143  13.019 -3.1989  0.1460 -2.1043
19260TIP3    H279196   6.422   0.241  13.087  1.0112  1.2676  2.2621
19261TIP3   OH279197   2.448   1.597  14.777 -0.7650 -0.1930  0.6149
19261TIP3    H179198   2.505   1.552  14.840 -0.9707 -1.0266  0.2160
19261TIP3    H279199   2.360   1.591  14.815 -0.6873  0.4984  0.9036
19262TIP3   OH279200   3.981   1.356   3.577  0.0498 -0.2164 -0.0519
19262TIP3    H179201   3.958   1.308   3.498  0.1377 -0.1841 -0.0964
19262TIP3    H279202   3.900   1.400   3.603 -0.0254 -0.3693 -0.0243
19263TIP3   OH279203   5.621   6.195  14.099  0.0787  0.1747  0.2870
19263TIP3    H179204   5.590   6.275  14.140 -0.8004 -0.2929  0.5443
19263TIP3    H279205   5.542   6.142  14.086  0.8153 -1.2282  1.3654
19264TIP3   OH279206   0.242   0.412  15.683 -0.2089 -0.2427  0.0026
19264TIP3    H179207   0.183   0.431  15.610 -2.2682  1.3426  2.0082
19264TIP3    H279208   0.226   0.319  15.702 -0.8293 -0.2511 -0.5326
19265TIP3   OH279209   0.747   0.834   3.559  0.3078 -0.3544 -0.3909
19265TIP3    H179210   0.785   0.865   3.641 -0.7023  1.3416 -0.5314
19265TIP3    H279211   0.798   0.756   3.537 -0.3357 -1.7084  2.5917
19266TIP3   OH279212   0.216   2.478   4.495 -0.3920 -0.5904  0.1438
19266TIP3    H179213   0.153   2.471   4.423 -1.3647 -0.0880  0.9333
19266TIP3    H279214   0.163   2.498   4.571  0.7441 -0.0686  0.8092
19267TIP3   OH279215   2.422   0.400  14.606 -0.0728 -0.1442  0.5279
19267TIP3    H179216   2.402   0.365  14.519  1.9960  0.5042 -0.2435
19267TIP3    H279217   2.486   0.339  14.642 -1.9648 -1.1820  2.1906
19268TIP3   OH279218   2.683   6.507   4.534 -0.0016 -0.8364 -0.4297
19268TIP3    H179219   2.618   6.457   4.485 -1.3901 -0.1492  0.6868
19268TIP3    H279220   2.632   6.560   4.595  1.5706  0.1622  0.0550
19269TIP3   OH279221   3.576   3.483  12.547  0.2911 -0.0229  0.3157
19269TIP3    H179222   3.665   3.447  12.536  1.6894  3.5214 -0.6138
19269TIP3    H279223   3.558   3.528  12.464 -1.6517  0.8263  1.1800
19270TIP3   OH279224   0.973   5.540  14.111 -0.0199 -0.2216 -0.3592
19270TIP3    H179225   0.965   5.468  14.174  3.6418  1.4400  2.1790
19270TIP3    H279226   1.028   5.504  14.042 -0.1201 -0.5619 -0.2670
19271TIP3   OH279227   5.512   0.139   4.738 -0.1359 -0.0348  0.0614
19271TIP3    H179228   5.572   0.103   4.672 -0.5908 -2.9805  1.1980
19271TIP3    H279229   5.569   0.180   4.803  0.5543 -1.3761  0.3014
19272TIP3   OH279230   4.378   6.125  15.435 -0.0301 -0.0257  0.1639
19272TIP3    H179231   4.353   6.185  15.365 -0.9175  3.2915  3.1827
19272TIP3    H279232   4.297   6.107  15.482  0.2615 -3.5231 -0.5594
19273TIP3   OH279233   0.483   6.346  17.189 -0.1523  0.9331  0.3710
19273TIP3    H179234   0.471   6.288  17.114 -1.3790 -0.3520  1.5370
19273TIP3    H279235   0.460   6.432  17.157  1.5696  0.7844 -1.3580
19274TIP3   OH279236   0.953   2.808   5.250 -0.4564  0.0783 -0.0456
19274TIP3    H179237   0.877   2.826   5.194 -2.4967  0.8177  2.8065
19274TIP3    H279238   0.917   2.755   5.321  2.2842 -1.7541  0.0094
19275TIP3   OH279239   4.116   4.139  12.827  0.0684 -0.0849 -0.2120
19275TIP3    H179240   4.156   4.133  12.914  0.1170  1.3914 -0.1178
19275TIP3    H279241   4.130   4.053  12.788  0.8604 -0.4705  0.8910
19276TIP3   OH279242   4.260   3.556   5.844 -0.5163  0.1041  0.1221
19276TIP3    H179243   4.291   3.467   5.831 -2.7837 -0.7729  0.5931
19276TIP3    H279244   4.166   3.552   5.827 -0.1899  3.0596 -3.0549
19277TIP3   OH279245   4.929   3.873   6.453 -0.5736 -0.5187  0.0783
19277TIP3    H179246   4.853   3.928   6.473  0.1691  1.5360 -2.5379
19277TIP3    H279247   4.923   3.857   6.359  1.6440 -1.2154  0.0382
19278TIP3   OH279248   5.315   6.092   2.522 -0.4825 -0.0830  0.3342
19278TIP3    H179249   5.308   6.135   2.607  1.9935 -0.2929  0.6757
19278TIP3    H279250   5.350   6.005   2.542  0.8499  0.1353 -0.9360
19279TIP3   OH279251   4.453   3.163  17.073 -0.1287 -0.3799 -0.2572
19279TIP3    H179252   4.479   3.163  16.981  0.7732  1.4327 -0.0205
19279TIP3    H279253   4.456   3.070  17.098  1.1746 -0.7250 -1.6159
19280TIP3   OH279254   2.788   6.383   3.603 -0.4409  0.2817 -0.0526
19280TIP3    H179255   2.757   6.301   3.566 -0.3880  0.7650 -1.1912
19280TIP3    H279256   2.727   6.449   3.569  0.2479  0.8772 -0.1510
19281TIP3   OH279257   4.874   6.588  16.160  0.4905  0.1682  0.4298
19281TIP3    H179258   4.784   6.616  16.145  0.8534  0.4909 -1.2510
19281TIP3    H279259   4.866   6.502  16.201 -0.5828 -0.7421 -1.6361
19282TIP3   OH279260   4.524   6.117  16.570 -0.0745  0.0084 -0.3291
19282TIP3    H179261   4.562   6.097  16.656 -0.7966  1.5733  0.3801
19282TIP3    H279262   4.576   6.066  16.508  1.6643  0.2989  0.8476
19283TIP3   OH279263   2.847   6.378   2.901 -0.2032 -0.0508 -0.0080
19283TIP3    H179264   2.934   6.355   2.933 -0.0734 -0.5788 -0.7330
19283TIP3    H279265   2.850   6.472   2.888  0.1394 -0.0146  0.3143
19284TIP3   OH279266   0.418   5.022  10.940 -0.0653 -0.2375 -0.1704
19284TIP3    H179267   0.324   5.034  10.930 -0.1555 -0.8633 -0.0803
19284TIP3    H279268   0.443   4.965  10.868  0.3155  0.2618 -0.4370
19285TIP3   OH279269   1.280   3.718   5.117  0.4639 -0.2534 -0.0776
19285TIP3    H179270   1.348   3.714   5.184 -0.8901  0.0551  1.3086
19285TIP3    H279271   1.302   3.796   5.066 -0.0251  1.0396  1.6465
19286TIP3   OH279272   1.932   3.050   2.107 -0.1085  0.4954 -0.1652
19286TIP3    H179273   2.027   3.043   2.108 -0.2345 -1.4308  0.6723
19286TIP3    H279274   1.902   2.964   2.078 -1.5529  1.7267 -2.4537
19287TIP3   OH279275   0.650   0.429  12.772  0.0578  0.2725  0.1916
19287TIP3    H179276   0.564   0.395  12.747  1.2970 -1.6213 -1.5962
19287TIP3    H279277   0.630   0.505  12.828 -2.7554 -0.1365 -0.1867
19288TIP3   OH279278   5.295   1.224  16.687 -0.0938  0.2476  0.1791
19288TIP3    H179279   5.293   1.131  16.709  1.1767  0.3419  0.7094
19288TIP3    H279280   5.210   1.258  16.717  0.9307  0.0353  3.4686
19289TIP3   OH279281   5.827   2.723  15.340 -0.5210 -0.4594  0.2446
19289TIP3    H179282   5.858   2.706  15.429  1.0786  0.8760 -0.0275
19289TIP3    H279283   5.822   2.637  15.299  2.8104 -0.7415  0.3396
19290TIP3   OH279284   0.973   0.037  11.971  0.2886 -0.4926 -0.2239
19290TIP3    H179285   0.926   0.119  11.958 -1.6850 -1.5107  0.4156
19290TIP3    H279286   1.046   0.042  11.909 -0.4118  1.2724 -0.9468
19291TIP3   OH279287   6.296   2.945   0.141  0.2464 -0.4642  0.2254
19291TIP3    H179288   6.378   2.992   0.148  1.2271 -2.1404  0.2350
19291TIP3    H279289   6.258   2.974   0.058 -1.0120  3.1642  1.9500
19292TIP3   OH279290   2.804   4.224   1.374 -0.4963  0.0129  0.3618
19292TIP3    H179291   2.768   4.136   1.362 -0.6065  0.3700 -2.1889
19292TIP3    H279292   2.848   4.244   1.291  1.2920  1.5721  1.6339
19293TIP3   OH279293   3.158   1.102   6.295 -0.5762  0.1298  0.0085
19293TIP3    H179294   3.148   1.017   6.252  0.3323 -0.1655  0.3735
19293TIP3    H279295   3.235   1.092   6.351 -0.2074  1.3192 -0.2576
19294TIP3   OH279296   3.161   2.949  13.123 -0.2323 -0.2980 -0.6450
19294TIP3    H179297   3.167   2.957  13.027  1.3936 -1.4837 -0.6654
19294TIP3    H279298   3.104   3.022  13.149  0.7063  1.1050 -2.3516
19295TIP3   OH279299   4.015   2.588  16.023  0.4185  0.1879 -0.4028
19295TIP3    H179300   3.978   2.596  16.110  0.0479 -3.3085 -0.1482
19295TIP3    H279301   3.954   2.633  15.965 -2.1741 -2.0688  0.5054
19296TIP3   OH279302   2.954   5.419   0.723 -0.0378  0.1221 -0.0515
19296TIP3    H179303   2.984   5.447   0.810  2.3747 -1.1390 -0.4460
19296TIP3    H279304   2.977   5.492   0.665 -0.8155  0.5665  0.1793
19297TIP3   OH279305   4.356   1.612   1.655 -0.1574  0.5478 -0.1552
19297TIP3    H179306   4.264   1.635   1.648 -0.2229  0.2145 -0.4139
19297TIP3    H279307   4.371   1.605   1.750 -0.3041  0.9670 -0.1027
19298TIP3   OH279308   0.282   6.261   3.115 -0.1773 -0.2966 -0.1267
19298TIP3    H179309   0.365   6.252   3.067 -1.2383 -1.5258 -1.8007
19298TIP3    H279310   0.225   6.308   3.054 -1.5544 -1.9043 -0.1204
19299TIP3   OH279311   3.272   0.685  13.719  0.0471  0.9211 -0.2621
19299TIP3    H179312   3.194   0.716  13.672 -1.7702  1.1473  2.7705
19299TIP3    H279313   3.318   0.765  13.745 -0.2653  0.8523  0.4905
19300TIP3   OH279314   0.044   2.898   5.870  0.4568 -0.6581 -0.8100
19300TIP3    H179315   0.085   2.844   5.802 -0.2396 -1.7246 -0.4084
19300TIP3    H279316   0.117   2.932   5.921  0.9319 -0.7734 -1.4110
19301TIP3   OH279317   1.817   0.720  12.550 -0.3167 -0.2948 -0.2146
19301TIP3    H179318   1.726   0.691  12.541 -1.2093  2.3052 -0.1796
19301TIP3    H279319   1.836   0.710  12.643  0.2901 -3.1211 -0.5921
19302TIP3   OH279320   3.546   0.520   3.685 -0.5425 -0.3067 -0.1310
19302TIP3    H179321   3.507   0.595   3.639  0.4084  0.0215 -0.3988
19302TIP3    H279322   3.632   0.509   3.645 -1.1936 -2.3866 -1.0146
19303TIP3   OH279323   2.576   4.691   5.845 -0.3902  0.2052  0.5136
19303TIP3    H179324   2.602   4.769   5.794 -0.2839 -0.4684 -0.4815
19303TIP3    H279325   2.616   4.705   5.931 -0.6741  1.4233  0.4614
19304TIP3   OH279326   0.854   2.815  16.160  0.3578 -0.3965 -0.1155
19304TIP3    H179327   0.862   2.720  16.162 -2.0067 -0.6106  0.3484
19304TIP3    H279328   0.801   2.833  16.082  0.9425  0.5624 -0.3036
19305TIP3   OH279329   4.707   5.208   5.857  0.2334  0.0633  0.1365
19305TIP3    H179330   4.727   5.281   5.916 -1.6298  0.0754  0.7772
19305TIP3    H279331   4.612   5.212   5.845  0.1891 -1.9098 -0.2864
19306TIP3   OH279332   2.392   5.343  11.889  0.3395 -0.1299 -0.5622
19306TIP3    H179333   2.479   5.326  11.924  0.0982 -0.1049  0.0581
19306TIP3    H279334   2.342   5.264  11.910  0.5410 -0.6479 -1.9955
19307TIP3   OH279335   0.611   2.306   1.302  0.7587  0.2290  0.0236
19307TIP3    H179336   0.540   2.337   1.246  1.2881  1.1885 -0.1197
19307TIP3    H279337   0.579   2.320   1.391 -0.0777 -1.2845 -0.0078
19308TIP3   OH279338   2.702   3.238  15.251  0.0682 -0.0745 -0.1981
19308TIP3    H179339   2.676   3.156  15.293  0.7333 -0.9296 -1.4042
19308TIP3    H279340   2.682   3.225  15.158 -3.5691  2.6598  0.1025
19309TIP3   OH279341   6.338   6.344   4.799 -0.7215 -0.7970  0.3955
19309TIP3    H179342   6.429   6.372   4.788 -0.8364 -0.8134 -0.6526
19309TIP3    H279343   6.321   6.353   4.893 -0.0633  0.5204  0.3969
19310TIP3   OH279344   3.694   2.381  13.388 -0.0213  0.3633  0.3271
19310TIP3    H179345   3.777   2.427  13.399  1.0316 -1.5447  0.6309
19310TIP3    H279346   3.628   2.450  13.389  1.6324  2.0228 -0.9991
19311TIP3   OH279347   5.063   1.381  16.797  0.4949  0.5710  0.3347
19311TIP3    H179348   5.142   1.426  16.826  0.9287 -0.0039  0.0571
19311TIP3    H279349   4.991   1.427  16.840  1.0524  0.4123  1.4521
19312TIP3   OH279350   2.516   4.358   2.330 -0.1220 -0.4285 -0.0586
19312TIP3    H179351   2.437   4.312   2.355  0.1549 -0.8137  0.1106
19312TIP3    H279352   2.509   4.444   2.372  0.4001 -1.1085  1.4442
19313TIP3   OH279353   3.466   1.642   0.775  0.5354  0.1614  0.7829
19313TIP3    H179354   3.478   1.694   0.854  1.3724  0.0488  0.7404
19313TIP3    H279355   3.498   1.555   0.798 -3.0895 -1.0478  1.6077
19314TIP3   OH279356   4.382   1.442  15.280  0.4359  0.0752 -0.2279
19314TIP3    H179357   4.470   1.458  15.245  0.6544  1.2907  0.7925
19314TIP3    H279358   4.326   1.505  15.235  0.8966  2.3265  2.2374
19315TIP3   OH279359   4.134   6.072  16.498  0.3360 -0.0426 -0.1837
19315TIP3    H179360   4.139   6.075  16.594  0.9231  0.8681 -0.2352
19315TIP3    H279361   4.117   5.980  16.478 -0.5211 -0.1181  0.8267
19316TIP3   OH279362   1.706   3.075   2.939 -0.0856  0.3220 -0.5815
19316TIP3    H179363   1.698   3.043   3.029  0.2914 -2.0162 -1.3513
19316TIP3    H279364   1.715   2.996   2.886  0.0282  1.6868 -2.6509
19317TIP3   OH279365   3.124   2.934   0.979 -0.1983 -0.3679  0.3642
19317TIP3    H179366   3.111   2.919   0.885  0.0781 -1.5540  0.5045
19317TIP3    H279367   3.060   2.876   1.021  0.7230 -0.9843  0.9324
19318TIP3   OH279368   5.191   2.858   5.873  0.1519 -0.4765 -0.1990
19318TIP3    H179369   5.101   2.890   5.883 -0.0897 -0.6175 -1.7756
19318TIP3    H279370   5.184   2.783   5.815  1.3126 -0.3804 -0.4890
19319TIP3   OH279371   3.206   5.669  16.139  0.3929 -0.8522  0.4396
19319TIP3    H179372   3.210   5.765  16.139  1.7270 -0.8751  2.4720
19319TIP3    H279373   3.273   5.642  16.076 -1.1835 -0.4669 -1.4796
19320TIP3   OH279374   1.852   1.980  14.002 -0.0300 -0.5612  0.0613
19320TIP3    H179375   1.901   1.941  14.075  0.6274 -1.4759 -0.8570
19320TIP3    H279376   1.919   2.008  13.940 -0.5804  0.3750 -0.1306
19321TIP3   OH279377   4.739   3.660  12.389  0.2515 -0.3427  0.1502
19321TIP3    H179378   4.681   3.704  12.451  0.7118  1.7323 -0.8724
19321TIP3    H279379   4.681   3.600  12.342 -0.7566  0.5614  0.2232
19322TIP3   OH279380   2.475   1.713  11.195  0.5037  0.1338 -0.7426
19322TIP3    H179381   2.507   1.801  11.173 -0.1317  0.3999 -0.6250
19322TIP3    H279382   2.416   1.691  11.123  1.6514 -0.7382 -1.4321
19323TIP3   OH279383   2.093   2.889   1.496  0.5505  0.3302 -0.3447
19323TIP3    H179384   2.093   2.985   1.493 -1.1656  0.3627  0.1314
19323TIP3    H279385   2.131   2.868   1.581 -0.4264  0.6338  0.1759
19324TIP3   OH279386   3.549   4.363   0.175 -0.2304  0.0295  0.0628
19324TIP3    H179387   3.468   4.320   0.204 -0.6025 -0.0678 -1.0905
19324TIP3    H279388   3.531   4.389   0.085  0.3870  1.6586  0.4038
19325TIP3   OH279389   0.440   0.856  15.848  0.5131 -0.4701 -0.1718
19325TIP3    H179390   0.443   0.889  15.759  0.8479 -1.4308 -0.5218
19325TIP3    H279391   0.487   0.923  15.899 -0.8980  0.7700 -0.4725
19326TIP3   OH279392   2.575   0.775  17.195 -0.0962 -0.2430  0.6195
19326TIP3    H179393   2.590   0.806  17.106 -0.1709 -2.2873 -0.1326
19326TIP3    H279394   2.619   0.838  17.251  0.7810  0.5216 -0.9218
19327TIP3   OH279395   5.503   2.865  14.400 -0.0141  0.0727 -0.1841
19327TIP3    H179396   5.576   2.923  14.418 -0.3903  0.4517  0.1236
19327TIP3    H279397   5.541   2.793  14.349  0.0755  1.5956 -2.3517
19328TIP3   OH279398   2.423   0.513   4.434 -0.6164  0.0098  0.3282
19328TIP3    H179399   2.401   0.422   4.455  2.5523 -0.8561  0.1672
19328TIP3    H279400   2.388   0.563   4.508  2.2854 -1.9718  3.2002
19329TIP3   OH279401   5.926   4.440   2.535 -0.1412  0.1013  0.0933
19329TIP3    H179402   5.986   4.504   2.497  0.6072 -1.1440 -0.8618
19329TIP3    H279403   5.889   4.484   2.611 -1.8805  2.7300 -2.1853
19330TIP3   OH279404   5.957   4.408   0.006  0.5291 -0.0420 -0.3737
19330TIP3    H179405   5.921   4.328   0.043  0.5736  0.5759  1.0212
19330TIP3    H279406   6.050   4.405   0.027  0.1429  1.4631  1.7254
19331TIP3   OH279407   3.269   2.581  13.268 -0.4153 -0.3831 -0.3728
19331TIP3    H179408   3.238   2.574  13.177  1.5041  2.1002 -1.2667
19331TIP3    H279409   3.353   2.537  13.268  0.1702  0.7163 -0.1229
19332TIP3   OH279410   5.307   0.652  12.163  0.0839  0.2464 -0.1459
19332TIP3    H179411   5.245   0.707  12.211  0.0255 -0.3655  0.4803
19332TIP3    H279412   5.306   0.568  12.209  1.2364  0.1737 -0.2420
19333TIP3   OH279413   3.434   6.217   5.325 -0.9793 -0.4574  0.2587
19333TIP3    H179414   3.404   6.230   5.415 -1.4079 -0.9505  0.1932
19333TIP3    H279415   3.422   6.303   5.283  0.9873  0.2953  1.1552
19334TIP3   OH279416   6.003   4.301  11.059 -0.0142  0.3823 -0.1056
19334TIP3    H179417   5.996   4.272  11.150 -0.2583  0.5323 -0.0752
19334TIP3    H279418   6.072   4.368  11.060  1.1637 -0.7963 -0.3249
19335TIP3   OH279419   0.741   3.337  16.926 -0.5303 -0.1661 -0.5418
19335TIP3    H179420   0.649   3.344  16.950 -0.2913 -0.3987  0.4857
19335TIP3    H279421   0.785   3.311  17.007  0.1253 -2.3333 -1.5587
19336TIP3   OH279422   3.255   2.382   0.814 -0.6106 -0.3319 -0.0488
19336TIP3    H179423   3.196   2.415   0.746  0.3456  0.5766 -0.4560
19336TIP3    H279424   3.277   2.458   0.867  0.3160 -0.6217  0.0024
19337TIP3   OH279425   5.582   4.941   3.539 -0.1677  0.7054 -0.1104
19337TIP3    H179426   5.558   4.898   3.457  1.5941  2.7439 -1.7634
19337TIP3    H279427   5.550   4.883   3.607 -0.0970 -1.9230 -2.2488
19338TIP3   OH279428   6.694   6.763   3.305 -0.1761  0.5127  0.3357
19338TIP3    H179429   6.657   6.690   3.256  0.5553 -0.3131  1.0000
19338TIP3    H279430   6.772   6.726   3.347 -0.2594  1.4671  1.3361
19339TIP3   OH279431   4.398   0.859  15.416 -0.4760  0.2221 -0.2728
19339TIP3    H179432   4.377   0.768  15.435 -0.1679  0.1352 -0.3438
19339TIP3    H279433   4.485   0.872  15.454 -1.0858  0.8668  0.9124
19340TIP3   OH279434   2.391   2.580  14.475  0.6304  0.1845  0.0509
19340TIP3    H179435   2.484   2.573  14.496  0.3116 -1.4242  1.0734
19340TIP3    H279436   2.377   2.673  14.456  2.5798  0.3258 -0.8258
19341TIP3   OH279437   5.573   4.392   4.098  0.2544  0.7318  0.1606
19341TIP3    H179438   5.578   4.420   4.007 -1.2047 -0.2789 -0.2522
19341TIP3    H279439   5.627   4.313   4.103 -0.8922 -0.1048 -0.2199
19342TIP3   OH279440   3.387   6.561  17.215 -0.2412  0.3717 -0.1836
19342TIP3    H179441   3.358   6.595  17.130  0.3872  1.0283 -0.1493
19342TIP3    H279442   3.392   6.639  17.271  0.1913  0.0679  0.2039
19343TIP3   OH279443   0.710   1.065  12.435 -0.1114  0.0097  0.4311
19343TIP3    H179444   0.766   1.104  12.368  0.4002 -1.9970 -0.3286
19343TIP3    H279445   0.644   1.133  12.453  0.3078  0.9379 -1.3933
19344TIP3   OH279446   3.071   0.699   0.386 -0.1891  0.3231  0.4766
19344TIP3    H179447   3.020   0.759   0.440 -0.2876 -0.4467  1.2664
19344TIP3    H279448   3.093   0.749   0.308 -0.1909  1.4104  1.1567
19345TIP3   OH279449   5.103   2.762   1.341  0.3625 -0.5137 -0.5085
19345TIP3    H179450   5.050   2.690   1.307 -1.3029  0.8206 -0.7582
19345TIP3    H279451   5.154   2.791   1.266  0.0795 -0.5775 -0.7267
19346TIP3   OH279452   1.389   5.976   3.850 -0.7361  0.0265 -0.4529
19346TIP3    H179453   1.304   6.006   3.820  0.1477  0.9581 -2.1359
19346TIP3    H279454   1.446   5.985   3.774  1.0292  0.0749  0.8259
19347TIP3   OH279455   0.329   2.731  15.232  0.7318  0.1808  0.1168
19347TIP3    H179456   0.380   2.693  15.161 -0.4689 -0.2781 -0.4895
19347TIP3    H279457   0.393   2.743  15.303  1.7818  0.0337 -0.7957
19348TIP3   OH279458   1.610   2.552   1.563 -0.1610  0.4765 -0.3454
19348TIP3    H179459   1.646   2.523   1.479  0.3490 -0.1805  0.0946
19348TIP3    H279460   1.591   2.472   1.610 -0.1462  0.8434  0.2953
19349TIP3   OH279461   3.455   3.432  15.335 -0.2179 -0.0888  0.4514
19349TIP3    H179462   3.450   3.510  15.390 -0.8624 -0.5428  1.0491
19349TIP3    H279463   3.548   3.422  15.315 -0.0587  0.4646  0.8962
19350TIP3   OH279464   3.064   3.378  11.587 -0.3729 -0.0323  0.1834
19350TIP3    H179465   3.154   3.392  11.616 -0.4701 -0.7935  0.8669
19350TIP3    H279466   3.046   3.451  11.528  1.3382 -0.8772 -1.4648
19351TIP3   OH279467   6.438   6.745   3.611  0.2939 -0.3013  0.2119
19351TIP3    H179468   6.495   6.766   3.537  0.4261 -1.0075  0.1044
19351TIP3    H279469   6.377   6.681   3.575  0.2560 -0.5190  0.6720
19352TIP3   OH279470   2.071   4.730   2.564  0.2446 -0.1287  0.0942
19352TIP3    H179471   2.002   4.665   2.549  0.2361 -0.1462  0.2069
19352TIP3    H279472   2.067   4.787   2.487  0.0173 -0.0521  0.1618
19353TIP3   OH279473   2.504   2.594   4.050 -0.0344  0.2411 -0.0421
19353TIP3    H179474   2.583   2.564   4.004  0.5891  0.8986  0.5859
19353TIP3    H279475   2.511   2.556   4.137 -0.1595  0.7094  0.1726
19354TIP3   OH279476   6.017   5.340   3.294 -0.5011  0.1058  0.1734
19354TIP3    H179477   6.093   5.390   3.264 -0.5875  0.5872  0.7381
19354TIP3    H279478   6.053   5.258   3.326 -0.3272 -0.0835 -0.5056
19355TIP3   OH279479   3.492   4.261  11.836 -0.4533 -1.0687  0.2114
19355TIP3    H179480   3.439   4.336  11.865  0.4250  0.2125 -1.4062
19355TIP3    H279481   3.582   4.288  11.853 -0.0851 -1.3723 -1.2395
19356TIP3   OH279482   0.732   3.418  14.857  0.3517 -0.3654 -0.3708
19356TIP3    H179483   0.764   3.508  14.849 -0.9034  0.2178  1.0680
19356TIP3    H279484   0.752   3.393  14.947 -0.0198 -1.2688 -0.5297
19357TIP3   OH279485   4.508   6.360   5.636 -0.3263 -0.4036 -0.1048
19357TIP3    H179486   4.585   6.312   5.668 -1.9521 -3.3048 -0.3338
19357TIP3    H279487   4.439   6.335   5.697 -1.1136  2.1348  0.0596
19358TIP3   OH279488   1.452   6.562   2.242 -0.9646  0.2110 -0.3904
19358TIP3    H179489   1.390   6.553   2.170  0.4027 -0.3955 -1.5289
19358TIP3    H279490   1.533   6.590   2.200  0.2420 -1.4855  0.7309
19359TIP3   OH279491   5.892   4.858  10.703  0.7764  0.4640 -0.1421
19359TIP3    H179492   5.807   4.893  10.675 -0.8262  0.0613  3.9431
19359TIP3    H279493   5.955   4.923  10.672 -1.5519  3.6365  1.4788
19360TIP3   OH279494   6.277   0.130  10.923  0.0143  0.7865 -0.0335
19360TIP3    H179495   6.198   0.085  10.893 -0.3381  0.4826  1.3505
19360TIP3    H279496   6.339   0.061  10.942  0.0626  0.9608  0.4404
19361TIP3   OH279497   5.931   4.388   1.241  0.2393  0.0811 -0.1606
19361TIP3    H179498   5.858   4.448   1.222 -1.0353 -1.3959 -0.0412
19361TIP3    H279499   5.984   4.435   1.306 -1.4279  0.5859  0.8666
19362TIP3   OH279500   3.727   1.345  10.895 -0.2749  0.3629  0.2198
19362TIP3    H179501   3.700   1.267  10.944  0.9454 -0.8148 -0.9518
19362TIP3    H279502   3.733   1.414  10.962 -0.2172 -0.8227  1.4706
19363TIP3   OH279503   1.655   6.639   5.353 -0.0316 -0.5242  0.1491
19363TIP3    H179504   1.714   6.605   5.419  1.8583  0.1922 -1.1407
19363TIP3    H279505   1.590   6.690   5.402  1.1693 -0.2502  1.4580
19364TIP3   OH279506   1.208   0.016  13.684  0.0726 -0.1198 -0.1934
19364TIP3    H179507   1.187   0.090  13.628  0.8711  0.4537  0.2562
19364TIP3    H279508   1.195   0.049  13.773 -1.7471 -1.1916 -0.0442
19365TIP3   OH279509   4.044   4.554   2.376 -0.1185  0.7671 -0.2560
19365TIP3    H179510   4.020   4.646   2.385  0.7952  0.7348  2.9544
19365TIP3    H279511   3.968   4.506   2.406 -0.5878  0.4488 -1.9158
19366TIP3   OH279512   4.327   5.303   5.527 -0.6418  0.4649  0.0008
19366TIP3    H179513   4.341   5.397   5.516  0.3591  0.2172 -0.8708
19366TIP3    H279514   4.411   5.263   5.506 -0.3736 -0.4824  2.7119
19367TIP3   OH279515   1.741   3.835  10.257 -0.5067  0.1869  0.0162
19367TIP3    H179516   1.653   3.830  10.221  0.3895 -2.5537 -1.9048
19367TIP3    H279517   1.734   3.795  10.344 -1.3551  0.9620  0.3081
19368TIP3   OH279518   6.268   4.807  14.573  0.0410  0.2036  0.3486
19368TIP3    H179519   6.174   4.821  14.586 -0.3267 -2.0203  0.1880
19368TIP3    H279520   6.291   4.867  14.503 -1.2876  0.6597  0.2869
19369TIP3   OH279521   4.943   0.650   5.136  0.8876  0.6271 -0.2822
19369TIP3    H179522   4.858   0.683   5.166 -0.8337 -2.5460 -1.5021
19369TIP3    H279523   4.994   0.638   5.216 -0.8956 -0.3151  0.7352
19370TIP3   OH279524   3.705   6.131  10.582 -0.0785 -0.0527 -0.6764
19370TIP3    H179525   3.736   6.218  10.610 -0.5723 -0.3575  0.9161
19370TIP3    H279526   3.615   6.127  10.615 -0.3720 -0.8188 -1.5606
19371TIP3   OH279527   5.232   3.069  13.209 -0.3238  0.4618 -0.5070
19371TIP3    H179528   5.243   2.975  13.194  1.2987  0.6125 -0.3607
19371TIP3    H279529   5.232   3.078  13.304  1.0725  0.7548 -0.5175
19372TIP3   OH279530   4.358   3.288  11.951 -0.1068  0.0044  0.0671
19372TIP3    H179531   4.418   3.353  11.915  0.1546  0.2062  0.8528
19372TIP3    H279532   4.356   3.218  11.886 -0.3940  0.7977 -0.7891
19373TIP3   OH279533   5.222   6.245  12.304  0.2043  0.5592 -0.6796
19373TIP3    H179534   5.267   6.215  12.225  0.0206  2.2487 -1.4346
19373TIP3    H279535   5.129   6.230  12.286 -0.0359  3.0822 -1.7522
19374TIP3   OH279536   1.661   1.458  11.716  0.2240 -0.2121 -0.3627
19374TIP3    H179537   1.681   1.375  11.674 -0.5684  0.4624 -2.1222
19374TIP3    H279538   1.721   1.521  11.675 -0.8941  0.5490 -0.8543
19375TIP3   OH279539   3.075   1.143  13.964  0.0389  0.4288  0.1994
19375TIP3    H179540   3.163   1.179  13.975 -0.3541  1.1665  0.9532
19375TIP3    H279541   3.086   1.049  13.979  1.1113  0.1514 -2.0256
19376TIP3   OH279542   4.873   6.493   4.043 -0.0547 -0.2258 -0.0515
19376TIP3    H179543   4.789   6.519   4.082 -0.1311 -1.5840  0.7133
19376TIP3    H279544   4.858   6.500   3.949 -1.1674 -0.8882  0.0616
19377TIP3   OH279545   3.086   3.965   1.232  0.0841 -0.2501  0.0347
19377TIP3    H179546   3.177   3.942   1.210  0.3190  0.0197  0.6870
19377TIP3    H279547   3.077   4.056   1.204  0.3586  0.0675  0.9456
19378TIP3   OH279548   1.748   6.438   3.303  0.4081 -0.1275  0.6213
19378TIP3    H179549   1.751   6.441   3.399 -1.3494 -0.9682  0.7332
19378TIP3    H279550   1.656   6.417   3.283  0.1849  2.5006 -1.3209
19379TIP3   OH279551   1.563   0.216  12.295 -0.0794  0.1326 -0.1883
19379TIP3    H179552   1.478   0.252  12.270  1.2724  3.0673 -0.8052
19379TIP3    H279553   1.611   0.209  12.212  0.6317 -0.4892  0.2673
19380TIP3   OH279554   0.361   4.577  16.511 -0.4609 -0.0831 -0.5144
19380TIP3    H179555   0.396   4.602  16.597 -3.6592 -0.8662  1.1062
19380TIP3    H279556   0.302   4.649  16.488 -1.2502 -0.8847 -1.0162
19381TIP3   OH279557   2.323   6.089  12.042 -0.2018 -0.0976 -0.4646
19381TIP3    H179558   2.237   6.111  12.078  0.4434 -0.3863  1.2992
19381TIP3    H279559   2.367   6.043  12.114  1.3670 -0.0809 -1.4163
19382TIP3   OH279560   4.270   0.054   0.589  0.1182  0.6333  0.4482
19382TIP3    H179561   4.224   0.019   0.665 -0.5002 -0.1395 -0.2678
19382TIP3    H279562   4.215   0.029   0.515  1.0526  0.8004 -0.3080
19383TIP3   OH279563   5.814   4.216   2.154 -0.0339  0.2794  0.4456
19383TIP3    H179564   5.904   4.205   2.123 -0.4544 -0.1440 -0.6536
19383TIP3    H279565   5.796   4.309   2.143 -1.2493 -0.3294 -3.6901
19384TIP3   OH279566   1.839   2.717  11.992  0.2961 -0.0931 -0.2345
19384TIP3    H179567   1.859   2.624  11.983  1.3256  0.4243 -3.9456
19384TIP3    H279568   1.907   2.761  11.941 -1.4163  2.5666 -0.2888
19385TIP3   OH279569   1.036   0.408  10.450  0.3931  0.1930  0.4279
19385TIP3    H179570   0.976   0.355  10.397  0.4382  1.0819 -0.5168
19385TIP3    H279571   1.089   0.343  10.496 -0.2360 -0.5996  0.0707
19386TIP3   OH279572   4.282   4.132   5.640  0.2579 -0.0757 -0.3239
19386TIP3    H179573   4.357   4.135   5.581 -1.0129  1.0894 -1.9474
19386TIP3    H279574   4.239   4.049   5.621  0.9837 -0.6388  0.4468
19387TIP3   OH279575   5.360   3.922   4.843 -0.9458  0.0182  0.3748
19387TIP3    H179576   5.276   3.963   4.823 -0.1732  0.7196 -1.5510
19387TIP3    H279577   5.371   3.935   4.937 -2.4222  1.0120  0.4272
19388TIP3   OH279578   3.566   0.299   0.339 -0.1969 -0.5532  0.4343
19388TIP3    H179579   3.528   0.386   0.330 -0.6095 -0.7830 -0.0796
19388TIP3    H279580   3.581   0.269   0.250 -0.7804 -1.3157  0.5849
19389TIP3   OH279581   2.915   6.361   0.558  0.2560 -0.8377  0.5000
19389TIP3    H179582   2.949   6.314   0.635 -1.1509 -0.5294  1.3154
19389TIP3    H279583   2.830   6.321   0.541  0.2758 -0.4603 -0.5173
19390TIP3   OH279584   4.769   6.255  15.006 -0.4221 -0.5253  0.4863
19390TIP3    H179585   4.833   6.244  15.077 -0.3708 -0.0752  0.5073
19390TIP3    H279586   4.788   6.183  14.946  0.4621 -0.0724  0.2151
19391TIP3   OH279587   1.416   1.769  14.940 -0.4223 -0.1681  0.3781
19391TIP3    H179588   1.403   1.734  14.852 -2.0293  1.0217  0.1074
19391TIP3    H279589   1.507   1.750  14.961  0.0475 -0.2103 -1.6498
19392TIP3   OH279590   6.681   2.392   6.077  0.1576  0.2422  0.0430
19392TIP3    H179591   6.741   2.430   6.141  2.0693 -0.7847 -1.0921
19392TIP3    H279592   6.660   2.306   6.112 -1.9136  1.1688  1.1929
19393TIP3   OH279593   6.562   5.845   4.383  0.1486  0.5568 -0.2044
19393TIP3    H179594   6.592   5.897   4.457 -2.1762  0.6147  0.7292
19393TIP3    H279595   6.475   5.880   4.361 -0.7530 -1.8163 -0.6097
19394TIP3   OH279596   1.205   1.461   1.501 -0.1573  0.6258 -0.1494
19394TIP3    H179597   1.259   1.492   1.428 -0.0870  0.7396 -0.0508
19394TIP3    H279598   1.246   1.379   1.528 -1.7119 -0.7304 -1.8990
19395TIP3   OH279599   2.390   2.545  17.216  0.0862 -0.6148 -0.2199
19395TIP3    H179600   2.408   2.506  17.131  0.3234 -2.1128  0.5094
19395TIP3    H279601   2.468   2.527  17.268 -0.4752 -0.5994  0.6314
19396TIP3   OH279602   5.605   6.700  14.198  0.2007 -0.1921 -0.7210
19396TIP3    H179603   5.624   6.751  14.277 -1.0123  1.4466 -1.4515
19396TIP3    H279604   5.681   6.714  14.142  0.5959 -0.5078 -0.2668
19397TIP3   OH279605   3.962   3.717  15.063 -0.1443 -0.2246 -0.6021
19397TIP3    H179606   4.000   3.801  15.090 -0.3713 -0.1921 -0.3791
19397TIP3    H279607   4.037   3.666  15.031 -0.1860  0.5092 -1.8982
19398TIP3   OH279608   3.206   3.812  12.496 -0.1380 -0.3112 -0.3088
19398TIP3    H179609   3.257   3.893  12.496  0.0320 -0.4083 -1.3524
19398TIP3    H279610   3.222   3.773  12.410  0.6380 -1.9982  0.5704
19399TIP3   OH279611   6.074   0.860   5.446 -0.4169  0.1043 -0.8177
19399TIP3    H179612   6.027   0.845   5.365 -2.7148  0.4105  0.4215
19399TIP3    H279613   6.115   0.945   5.436 -2.6334  1.2017 -0.7779
19400TIP3   OH279614   6.632   4.750   5.682  0.0483  0.1108 -0.4361
19400TIP3    H179615   6.561   4.808   5.709 -1.5262 -1.6115 -0.7546
19400TIP3    H279616   6.632   4.755   5.587  0.3662  0.0958 -0.4390
19401TIP3   OH279617   6.517   1.347  11.561 -0.3080 -0.1615 -0.3557
19401TIP3    H179618   6.529   1.293  11.484  0.5959 -0.5373  0.0485
19401TIP3    H279619   6.500   1.284  11.632 -2.8425  0.2391 -0.5368
19402TIP3   OH279620   2.782   4.171   4.108  0.4685 -0.0099  0.2262
19402TIP3    H179621   2.808   4.089   4.066 -0.9067 -0.2021 -0.2681
19402TIP3    H279622   2.855   4.191   4.167  1.3586 -0.9534 -0.5265
19403TIP3   OH279623   3.299   4.247   1.429  0.5986  0.1393 -0.3518
19403TIP3    H179624   3.300   4.160   1.470  0.3065 -0.3612 -1.3923
19403TIP3    H279625   3.207   4.273   1.431  0.8837  1.1032  1.3397
19404TIP3   OH279626   4.249   1.800   2.142 -0.3246 -0.2002  0.1689
19404TIP3    H179627   4.192   1.742   2.192  0.7509 -1.3262  0.1004
19404TIP3    H279628   4.295   1.851   2.208 -1.1453  0.4888  0.2314
19405TIP3   OH279629   6.692   3.338  15.257 -0.0492  0.2708  0.1303
19405TIP3    H179630   6.657   3.416  15.214  0.4497 -0.0366 -0.8515
19405TIP3    H279631   6.632   3.268  15.231  0.8819 -0.1254 -0.9802
19406TIP3   OH279632   4.235   5.350   1.865  0.3917 -0.0865  0.3205
19406TIP3    H179633   4.305   5.403   1.904 -0.8141  0.7303  1.4123
19406TIP3    H279634   4.214   5.394   1.783  1.2648 -0.4206 -0.0860
19407TIP3   OH279635   5.339   2.426   0.455 -0.3979 -0.3435 -0.0214
19407TIP3    H179636   5.305   2.512   0.481  0.0768  0.3911 -1.7558
19407TIP3    H279637   5.314   2.368   0.527 -1.1269  1.1477  0.9659
19408TIP3   OH279638   3.779   4.837  11.902 -0.4632  0.2478  0.7053
19408TIP3    H179639   3.761   4.913  11.846  0.7030  1.5407  2.0304
19408TIP3    H279640   3.861   4.801  11.868 -0.6697 -0.0099  0.4855
19409TIP3   OH279641   6.024   5.704   5.786  0.0626  0.1991 -0.1675
19409TIP3    H179642   5.994   5.776   5.731  0.7509  0.3934 -0.3005
19409TIP3    H279643   6.104   5.673   5.742 -0.2228 -0.6376 -0.1104
19410TIP3   OH279644   3.884   5.496  13.705 -0.1447 -0.1768  0.3240
19410TIP3    H179645   3.791   5.509  13.724 -0.3896 -1.6933  0.2234
19410TIP3    H279646   3.929   5.524  13.784 -0.7329 -0.1893  0.6654
19411TIP3   OH279647   4.919   2.664   3.302  0.4585 -0.2654  0.4209
19411TIP3    H179648   4.887   2.638   3.388 -0.7655 -2.5252 -0.6712
19411TIP3    H279649   4.989   2.603   3.282 -0.7795 -1.2009 -1.1315
19412TIP3   OH279650   4.098   6.661   3.709 -0.1919  0.6495  0.5235
19412TIP3    H179651   4.012   6.633   3.739 -0.5454  1.0197 -0.1525
19412TIP3    H279652   4.084   6.692   3.620  0.3349  2.3055  1.0126
19413TIP3   OH279653   2.218   0.826   2.639  0.2910 -0.0144  0.4497
19413TIP3    H179654   2.166   0.799   2.563  0.7506 -1.9525  0.8079
19413TIP3    H279655   2.223   0.748   2.694  1.1141  0.9853  1.8266
19414TIP3   OH279656   5.365   2.113  13.252  0.2217  0.0782 -0.5237
19414TIP3    H179657   5.389   2.206  13.257  2.9539 -0.4630 -2.2921
19414TIP3    H279658   5.398   2.075  13.334  0.0661  0.4556 -0.2847
19415TIP3   OH279659   6.522   2.894  15.022  0.0867  0.2780 -0.4708
19415TIP3    H179660   6.447   2.843  15.052  1.6444 -0.6507  2.0196
19415TIP3    H279661   6.516   2.977  15.071  0.7955  0.1015 -0.0747
19416TIP3   OH279662   3.661   3.489   1.681  0.4488 -0.2609  0.0138
19416TIP3    H179663   3.638   3.483   1.588  1.1627  0.8449 -0.2497
19416TIP3    H279664   3.736   3.430   1.691  0.4799 -0.2498 -0.1486
19417TIP3   OH279665   6.569   0.285  13.347 -0.4069 -0.0140 -0.1070
19417TIP3    H179666   6.586   0.245  13.433 -1.5489  1.4870  0.8567
19417TIP3    H279667   6.643   0.258  13.293  1.2705  0.4499  1.8756
19418TIP3   OH279668   3.519   2.189  15.908  0.1968 -0.3931  0.1916
19418TIP3    H179669   3.564   2.133  15.844 -1.5880 -0.4202 -1.0863
19418TIP3    H279670   3.474   2.255  15.855 -0.7281  0.0162  1.4527
19419TIP3   OH279671   2.543   6.775  14.576 -0.3039 -0.1756  0.8126
19419TIP3    H179672   2.449   6.786  14.588 -0.3772  0.6628 -0.4129
19419TIP3    H279673   2.582   6.802  14.659 -1.0576  0.9239  0.8164
19420TIP3   OH279674   4.475   0.557  15.922 -0.2184 -0.2732  0.0729
19420TIP3    H179675   4.529   0.567  16.001 -1.0821  1.0474  0.5222
19420TIP3    H279676   4.439   0.644  15.907 -0.1893 -0.5512 -1.7105
19421TIP3   OH279677   6.255   3.931  13.850  0.0042  0.0150 -0.3283
19421TIP3    H179678   6.273   3.991  13.777  0.1263 -1.0858 -1.2194
19421TIP3    H279679   6.261   3.986  13.928 -1.1420  1.4409 -1.2046
19422TIP3   OH279680   3.720   2.399   3.856  0.7352  0.0745  0.3015
19422TIP3    H179681   3.740   2.401   3.763  1.7296  1.4177  0.5275
19422TIP3    H279682   3.665   2.321   3.867 -0.5327  0.6672 -1.6097
19423TIP3   OH279683   0.166   4.776   0.320  0.2145  0.0197 -0.3126
19423TIP3    H179684   0.242   4.719   0.329  0.3818  0.2780 -0.1011
19423TIP3    H279685   0.103   4.723   0.271  0.5213 -0.2008 -0.4725
19424TIP3   OH279686   0.908   1.813   0.922 -0.2264 -0.6089  0.2826
19424TIP3    H179687   0.830   1.846   0.877  0.2218  0.1878  0.0675
19424TIP3    H279688   0.888   1.825   1.015 -0.4493 -0.6131  0.2364
19425TIP3   OH279689   3.125   3.597  11.890  0.2361 -0.4564 -0.7220
19425TIP3    H179690   3.156   3.636  11.807  0.8603  0.6000 -0.0082
19425TIP3    H279691   3.204   3.587  11.942 -0.4216  0.7724  0.5226
19426TIP3   OH279692   0.482   1.713   3.515 -0.0037 -0.1172 -0.4970
19426TIP3    H179693   0.523   1.749   3.437 -0.2302  1.6223  0.1540
19426TIP3    H279694   0.414   1.654   3.482 -1.2909  1.9554 -1.6568
19427TIP3   OH279695   5.320   5.296   1.730  0.0234  0.7764  0.1430
19427TIP3    H179696   5.252   5.363   1.721  0.7204  1.6548  1.2636
19427TIP3    H279697   5.379   5.312   1.656 -0.5468  0.5239 -0.3708
19428TIP3   OH279698   0.824   3.327   5.107 -0.0757 -0.2008 -0.6085
19428TIP3    H179699   0.733   3.304   5.127 -0.2600  0.9661 -0.0762
19428TIP3    H279700   0.819   3.372   5.022 -0.0967  0.5656 -0.2029
19429TIP3   OH279701   5.218   4.732   5.431 -0.1779 -0.1123 -0.5899
19429TIP3    H179702   5.137   4.778   5.411 -1.5154 -2.0373  0.1667
19429TIP3    H279703   5.272   4.742   5.353 -1.3245  0.8152 -1.2821
19430TIP3   OH279704   0.279   0.717  14.896  0.6095 -0.3810 -0.3579
19430TIP3    H179705   0.366   0.723  14.857  1.0680  0.1720  0.7162
19430TIP3    H279706   0.294   0.673  14.980 -0.7029 -3.7237 -1.8002
19431TIP3   OH279707   5.765   4.034   1.683  0.0438 -0.6710  0.2010
19431TIP3    H179708   5.737   4.008   1.771  0.3884 -1.4868  0.0714
19431TIP3    H279709   5.686   4.025   1.629 -0.9598  2.6773  0.9892
19432TIP3   OH279710   1.176   1.449   5.604 -0.1962 -0.0544  0.8258
19432TIP3    H179711   1.179   1.521   5.668  2.1455  1.8508 -1.3247
19432TIP3    H279712   1.255   1.398   5.622 -1.5064 -1.7723  1.9001
19433TIP3   OH279713   0.485   1.336  11.183  0.1434 -0.2138 -0.2363
19433TIP3    H179714   0.447   1.259  11.224  0.6401 -0.7154 -0.7198
19433TIP3    H279715   0.533   1.303  11.107  1.0970  0.4595  0.0539
19434TIP3   OH279716   5.776   1.473  12.297 -0.1033  0.5506 -0.3142
19434TIP3    H179717   5.780   1.502  12.388  2.6964  2.1064 -0.8615
19434TIP3    H279718   5.752   1.381  12.302  0.0664  0.6065  2.0015
19435TIP3   OH279719   0.954   6.009  11.230 -0.6753 -0.2171  0.1276
19435TIP3    H179720   0.936   6.037  11.140  0.8312 -2.5925 -0.9598
19435TIP3    H279721   1.046   5.980  11.228 -0.5033  0.1022  2.5340
19436TIP3   OH279722   3.337   0.981  12.335  0.2424 -0.0264 -0.4951
19436TIP3    H179723   3.393   1.054  12.309 -0.0994  1.2427  2.1001
19436TIP3    H279724   3.326   0.993  12.430 -0.0703 -3.2867 -0.0706
19437TIP3   OH279725   6.031   2.939   6.264  0.2130 -0.8571 -0.0159
19437TIP3    H179726   6.013   2.977   6.178  2.7620 -1.5020 -0.8721
19437TIP3    H279727   6.013   3.010   6.326  0.0276  0.1645 -1.2140
19438TIP3   OH279728   2.333   3.496   2.337 -0.3103 -0.0558 -0.2175
19438TIP3    H179729   2.369   3.461   2.255 -0.7942 -0.0447 -0.4366
19438TIP3    H279730   2.405   3.544   2.377 -0.2828  0.5408 -0.9839
19439TIP3   OH279731   5.385   4.886  15.353 -0.8247 -0.6928 -0.0795
19439TIP3    H179732   5.337   4.888  15.436 -0.8492 -1.7417 -0.0584
19439TIP3    H279733   5.438   4.806  15.358  1.3048  0.6677  0.1038
19440TIP3   OH279734   0.420   6.525   4.074 -0.6377  0.4429 -0.0750
19440TIP3    H179735   0.503   6.566   4.100 -0.3220  0.5067 -1.1548
19440TIP3    H279736   0.444   6.435   4.052 -0.5742  0.8784 -1.8724
19441TIP3   OH279737   4.782   1.898   1.989 -0.2096  0.0009  0.6712
19441TIP3    H179738   4.811   1.835   2.055  1.8000 -1.2011 -1.2830
19441TIP3    H279739   4.788   1.983   2.032  0.5552 -0.8105  2.2055
19442TIP3   OH279740   5.515   4.822  11.689  0.3469  0.3728 -0.0302
19442TIP3    H179741   5.425   4.799  11.664 -0.5356  1.8808  1.6684
19442TIP3    H279742   5.561   4.738  11.692 -1.3194 -0.5615  0.2940
19443TIP3   OH279743   5.491   5.027   6.199 -0.1815 -0.3228 -0.4867
19443TIP3    H179744   5.550   4.963   6.237  2.0104  1.6330 -0.4617
19443TIP3    H279745   5.425   4.975   6.153  0.3741 -2.5866  1.2016
19444TIP3   OH279746   3.561   5.305   4.058  0.3180  0.0661 -0.0204
19444TIP3    H179747   3.553   5.274   3.968  1.1980 -0.1532 -0.0257
19444TIP3    H279748   3.476   5.345   4.077 -0.0938 -0.4658 -0.7256
19445TIP3   OH279749   3.248   6.431   6.182  0.0687  0.2617  1.2364
19445TIP3    H179750   3.281   6.512   6.222 -0.3494  0.4898  1.1255
19445TIP3    H279751   3.325   6.389   6.145  0.2838  0.6306  1.2631
19446TIP3   OH279752   1.802   4.560   0.859  0.2667  0.6484  0.4806
19446TIP3    H179753   1.812   4.593   0.948 -0.7661  1.9228  0.1413
19446TIP3    H279754   1.709   4.540   0.850  0.6465 -1.1314  0.2305
19447TIP3   OH279755   6.654   3.202   4.316  0.1845 -0.1909  0.1927
19447TIP3    H179756   6.626   3.112   4.299 -0.8907  0.0407  0.6669
19447TIP3    H279757   6.607   3.227   4.396  1.4808  0.3554  0.8066
19448TIP3   OH279758   4.416   3.832   1.421 -0.3415 -0.3530 -0.0040
19448TIP3    H179759   4.352   3.761   1.420 -0.2815 -0.4107  0.2053
19448TIP3    H279760   4.382   3.893   1.487 -0.5243 -0.0650 -0.3601
19449TIP3   OH279761   5.638   5.826   5.559 -0.6766 -0.4038  0.5820
19449TIP3    H179762   5.634   5.814   5.654  1.3502  2.6179  1.1091
19449TIP3    H279763   5.723   5.789   5.535 -0.4317  0.4087  0.2023
19450TIP3   OH279764   2.382   0.045  16.285  0.0780  0.1365  0.1594
19450TIP3    H179765   2.377   0.131  16.328  0.8803 -0.6690  1.9253
19450TIP3    H279766   2.467   0.047  16.241  0.7272 -0.2543  1.3639
19451TIP3   OH279767   3.693   2.797   4.484 -0.4047  0.5985  0.0794
19451TIP3    H179768   3.712   2.885   4.453  0.7360  0.5440  0.5852
19451TIP3    H279769   3.702   2.802   4.579  1.1087 -0.3732  0.0177
19452TIP3   OH279770   5.869   5.637   6.012 -0.0663  0.1555  0.1213
19452TIP3    H179771   5.909   5.689   5.942 -1.3403  0.3247 -0.4907
19452TIP3    H279772   5.935   5.572   6.034  1.9210  2.5193  1.4721
19453TIP3   OH279773   5.221   1.924   5.018 -0.1615 -0.1962  0.3679
19453TIP3    H179774   5.254   1.991   5.078  0.9649 -1.0019  0.6644
19453TIP3    H279775   5.262   1.946   4.934 -0.7197  0.1692  0.1859
19454TIP3   OH279776   4.121   4.678  14.426  0.2033  0.2485  0.5015
19454TIP3    H179777   4.117   4.741  14.498  2.4116 -0.7582  1.5324
19454TIP3    H279778   4.202   4.699  14.380  0.1247 -0.8163 -0.1261
19455TIP3   OH279779   4.297   2.193   3.896 -0.2786 -0.1694  0.1391
19455TIP3    H179780   4.384   2.156   3.879 -0.7283 -1.0131 -0.3530
19455TIP3    H279781   4.315   2.274   3.943  0.7924 -0.1962 -0.1965
19456TIP3   OH279782   3.934   0.138   0.920 -0.0761 -0.1056  0.0913
19456TIP3    H179783   3.865   0.205   0.923  1.5427  1.5748  0.3684
19456TIP3    H279784   3.951   0.118   1.012  0.5408  0.2566  0.0585
19457TIP3   OH279785   4.961   3.387  12.888 -0.1443  0.0346  0.0097
19457TIP3    H179786   4.893   3.345  12.940 -0.5563 -0.1030 -0.6380
19457TIP3    H279787   5.043   3.353  12.924 -0.3785  0.7957  1.3167
19458TIP3   OH279788   0.414   1.213  15.696  0.0334  0.4400  0.2187
19458TIP3    H179789   0.466   1.261  15.761  0.3690 -0.0579  0.3244
19458TIP3    H279790   0.356   1.158  15.748  0.6328 -0.3142  0.1108
19459TIP3   OH279791   2.469   4.665   4.082  0.4014  0.4797 -0.2443
19459TIP3    H179792   2.497   4.575   4.100  0.5518  0.4352 -0.6944
19459TIP3    H279793   2.434   4.662   3.993 -1.0302  0.5335  0.2993
19460TIP3   OH279794   4.920   5.384  16.705  0.4109  0.0364 -0.6596
19460TIP3    H179795   4.840   5.374  16.757 -0.1716  0.0461 -1.5376
19460TIP3    H279796   4.980   5.430  16.762 -0.1728 -0.0709  0.0533
19461TIP3   OH279797   5.082   0.561   4.541  0.0644  0.4720 -0.1249
19461TIP3    H179798   5.136   0.543   4.464 -0.1172  0.6094 -0.2850
19461TIP3    H279799   5.141   0.601   4.604  0.0869  0.8620 -0.3988
19462TIP3   OH279800   4.929   3.897   2.152  0.1722  0.2429 -0.0891
19462TIP3    H179801   4.973   3.820   2.187  0.3102 -0.1499 -1.1097
19462TIP3    H279802   4.999   3.947   2.109 -0.0511  0.5423 -0.1057
19463TIP3   OH279803   6.408   3.589   2.801 -0.2239  0.1412  0.1418
19463TIP3    H179804   6.501   3.572   2.812 -0.1328  0.3784 -0.2638
19463TIP3    H279805   6.365   3.513   2.839  0.1498 -0.3175 -0.3506
19464TIP3   OH279806   4.655   6.203   1.470  0.0019 -0.5537  0.2207
19464TIP3    H179807   4.750   6.200   1.480  0.1483  2.4541  0.1333
19464TIP3    H279808   4.639   6.174   1.381  1.0025  0.6593 -0.3690
19465TIP3   OH279809   2.281   5.082  11.921 -0.3270 -0.0523 -0.0489
19465TIP3    H179810   2.325   5.073  11.837  0.1439  2.5024 -0.1026
19465TIP3    H279811   2.282   4.994  11.958  1.4917 -0.7614 -1.7067
19466TIP3   OH279812   2.467   4.692   5.057 -0.2333  0.1061 -0.6352
19466TIP3    H179813   2.452   4.741   5.138 -1.0563  0.1367 -0.8020
19466TIP3    H279814   2.463   4.600   5.084 -2.8908  0.0720 -1.0315
19467TIP3   OH279815   2.680   3.284   5.421  0.6481 -0.0363  0.6986
19467TIP3    H179816   2.598   3.333   5.432  0.6261 -0.1399  0.9990
19467TIP3    H279817   2.700   3.291   5.327  1.8866  2.4848  1.1339
19468TIP3   OH279818   0.582   3.359  14.094 -0.1008  0.0586 -0.1794
19468TIP3    H179819   0.652   3.308  14.134  0.0615  0.2533 -0.2120
19468TIP3    H279820   0.557   3.424  14.160  0.8004  0.9776 -0.7136
19469TIP3   OH279821   6.176   2.136   5.582 -0.5076  0.0116 -0.0923
19469TIP3    H179822   6.137   2.212   5.538 -0.4596 -0.0278 -0.2021
19469TIP3    H279823   6.200   2.076   5.511  0.3898  0.3366 -0.0771
19470TIP3   OH279824   1.508   0.545   5.653 -0.1233  0.0885 -0.1941
19470TIP3    H179825   1.493   0.637   5.632 -1.1279 -0.3102 -1.2737
19470TIP3    H279826   1.573   0.516   5.589 -0.4098 -0.1554 -0.3785
19471TIP3   OH279827   6.123   0.628   2.244  0.6845 -0.3388  0.5095
19471TIP3    H179828   6.087   0.713   2.219 -0.5534 -0.7607  0.8498
19471TIP3    H279829   6.218   0.643   2.250  0.6022  0.7082 -0.6322
19472TIP3   OH279830   5.549   6.101  11.004  0.2717  0.2119  0.0323
19472TIP3    H179831   5.518   6.187  10.976  1.1093  0.2080 -0.9385
19472TIP3    H279832   5.481   6.040  10.974  0.3115  0.4017 -0.4479
19473TIP3   OH279833   1.304   4.286   2.575  0.4554  0.2152 -0.1140
19473TIP3    H179834   1.328   4.255   2.662 -0.3848 -0.3869 -0.0851
19473TIP3    H279835   1.218   4.246   2.559  0.8189 -0.0697 -1.4111
19474TIP3   OH279836   0.397   5.406   6.265 -0.1644  0.4154 -0.3469
19474TIP3    H179837   0.419   5.344   6.195 -0.2788  0.7262 -0.6593
19474TIP3    H279838   0.412   5.357   6.346 -0.1927 -0.0009 -0.5913
19475TIP3   OH279839   6.514   2.311  12.272  0.7068 -0.5043 -0.1278
19475TIP3    H179840   6.464   2.272  12.200 -0.0574  0.8142 -0.3231
19475TIP3    H279841   6.452   2.314  12.345  1.5295 -2.0035  0.6702
19476TIP3   OH279842   0.342   6.760  14.287 -0.5841 -0.4685  0.2480
19476TIP3    H179843   0.329   6.756  14.382 -0.2378 -0.2284  0.3060
19476TIP3    H279844   0.291   6.686  14.253 -0.0307 -1.0653  0.6981
19477TIP3   OH279845   5.559   4.977  15.861  0.4705 -0.9030 -0.1309
19477TIP3    H179846   5.548   5.050  15.800 -1.7801 -1.7537 -0.8097
19477TIP3    H279847   5.593   5.016  15.941 -0.1986  0.8131 -0.6765
19478TIP3   OH279848   1.369   5.613  10.494 -0.3436 -0.0858 -0.6507
19478TIP3    H179849   1.462   5.604  10.471 -0.4280 -0.4700 -0.8371
19478TIP3    H279850   1.363   5.699  10.534  0.3075 -0.5149  0.3815
19479TIP3   OH279851   4.415   4.881  11.259 -0.0199 -0.7007 -0.6922
19479TIP3    H179852   4.439   4.962  11.302 -0.7040 -0.6420 -0.4299
19479TIP3    H279853   4.478   4.873  11.187  0.1520 -0.0344 -0.6139
19480TIP3   OH279854   4.193   5.617   3.108 -0.0712 -0.0713  0.1365
19480TIP3    H179855   4.221   5.696   3.155 -0.7864 -0.0909  0.6121
19480TIP3    H279856   4.269   5.559   3.111 -0.0458 -0.0035  1.1385
19481TIP3   OH279857   3.793   1.292   0.076  0.5053 -0.3932 -0.0204
19481TIP3    H179858   3.812   1.385   0.070  0.1315 -0.2980  0.2634
19481TIP3    H279859   3.763   1.267  -0.011  0.3261 -0.1885 -0.0147
19482TIP3   OH279860   2.082   2.672   2.879 -0.4836  0.6016  0.5508
19482TIP3    H179861   2.033   2.719   2.811 -2.5750 -0.7082  1.0860
19482TIP3    H279862   2.115   2.593   2.834 -0.7445  0.3904  0.7298
19483TIP3   OH279863   4.797   1.039   5.679  0.2412 -0.1674  0.5042
19483TIP3    H179864   4.882   1.027   5.636  0.5843  0.4104  1.0132
19483TIP3    H279865   4.747   0.961   5.656  0.3724  0.1751 -1.0571
19484TIP3   OH279866   3.991   2.339  13.460 -0.1518 -0.6433 -0.3769
19484TIP3    H179867   3.950   2.345  13.547  0.8520 -1.9117  0.2003
19484TIP3    H279868   3.992   2.429  13.428 -2.4222 -0.4270  0.0476
19485TIP3   OH279869   6.469   5.312   1.828  0.4050  0.0793 -0.1322
19485TIP3    H179870   6.407   5.379   1.799  1.7173  1.1835 -0.4115
19485TIP3    H279871   6.503   5.273   1.747  3.1087  2.2846 -0.1036
19486TIP3   OH279872   3.631   0.835  14.394 -0.8075  0.4100  0.8135
19486TIP3    H179873   3.706   0.777  14.387 -1.1860  0.1979 -2.0313
19486TIP3    H279874   3.571   0.789  14.453  0.5693 -0.1954  1.7731
19487TIP3   OH279875   1.801   5.439   1.995  0.2975 -0.6514  0.4275
19487TIP3    H179876   1.851   5.365   1.964  0.0844 -1.1399  1.2348
19487TIP3    H279877   1.725   5.443   1.937  1.6671  0.6061 -1.3265
19488TIP3   OH279878   5.915   3.416   1.197 -0.4065  0.4467 -0.0724
19488TIP3    H179879   5.912   3.431   1.102 -1.8519  2.3282  0.2335
19488TIP3    H279880   5.829   3.380   1.219 -0.3037  0.5981  0.5991
19489TIP3   OH279881   6.413   1.090   1.011  0.6393 -0.0433 -0.0395
19489TIP3    H179882   6.366   1.165   0.972 -1.5043 -0.6993  1.1762
19489TIP3    H279883   6.424   1.029   0.938 -0.1743  0.2486 -0.4239
19490TIP3   OH279884   4.791   4.106   4.861 -0.0566  0.1043  0.7681
19490TIP3    H179885   4.826   4.100   4.950  1.3727  3.5874  0.5546
19490TIP3    H279886   4.869   4.106   4.805 -0.8425 -0.0147 -0.3342
19491TIP3   OH279887   1.505   2.343  14.646 -0.7696  1.0265  0.5280
19491TIP3    H179888   1.472   2.328  14.735 -1.3903  1.1061  0.3113
19491TIP3    H279889   1.437   2.309  14.589 -1.1223  2.4737  0.0634
19492TIP3   OH279890   5.048   2.017  13.929  0.3705  0.1513  0.5055
19492TIP3    H179891   5.009   1.930  13.934  0.0641  0.3183  1.1570
19492TIP3    H279892   4.995   2.064  13.865  2.0915 -0.9118 -1.7717
19493TIP3   OH279893   1.218   5.619   2.128  0.3081  0.4202 -0.0089
19493TIP3    H179894   1.260   5.701   2.155  0.1175  0.4467  0.2118
19493TIP3    H279895   1.210   5.626   2.033  0.4132  0.6018 -0.0047
19494TIP3   OH279896   6.097   2.224   3.566  0.9798 -0.4721 -0.0311
19494TIP3    H179897   6.158   2.283   3.609 -1.4971  0.0427  2.9249
19494TIP3    H279898   6.117   2.138   3.602 -0.5756 -0.1618  1.6431
19495TIP3   OH279899   3.383   5.810  13.714 -0.0675  0.6152  0.2109
19495TIP3    H179900   3.319   5.834  13.781 -1.3257  0.5158 -0.9355
19495TIP3    H279901   3.437   5.889  13.703  2.1451 -0.3516  3.5204
19496TIP3   OH279902   2.838   5.464   0.265 -0.3575 -0.2666 -0.4014
19496TIP3    H179903   2.795   5.535   0.312  0.5123 -0.5745  0.8937
19496TIP3    H279904   2.823   5.387   0.320  1.7560 -0.3857  0.0565
19497TIP3   OH279905   1.828   0.088   0.380  0.2400 -0.2605 -0.1604
19497TIP3    H179906   1.916   0.093   0.344  0.7375 -0.3993  1.0299
19497TIP3    H279907   1.771   0.096   0.303  1.2652  0.9485 -0.8279
19498TIP3   OH279908   1.694   2.156   3.058 -0.3573 -0.0005 -0.0405
19498TIP3    H179909   1.787   2.156   3.035 -0.3942 -0.9936 -0.1777
19498TIP3    H279910   1.659   2.076   3.020 -0.9520 -0.4094  1.3135
19499TIP3   OH279911   6.240   1.861  13.916 -0.4254  0.3418 -0.4210
19499TIP3    H179912   6.274   1.928  13.975 -0.5520 -2.8502  3.4435
19499TIP3    H279913   6.316   1.806  13.895 -0.7493  0.4115 -1.8571
19500TIP3   OH279914   0.724   2.046   1.335  0.0585 -0.7772 -0.4119
19500TIP3    H179915   0.717   2.004   1.421 -1.2744 -0.4473 -0.3490
19500TIP3    H279916   0.668   2.123   1.341  1.6698  0.4470 -0.8832
19501TIP3   OH279917   1.234   5.780  11.464 -0.0589  0.5184  0.3869
19501TIP3    H179918   1.292   5.824  11.403  0.5103 -1.0759 -0.2368
19501TIP3    H279919   1.146   5.792  11.427  0.2796 -0.4447 -0.7568
19502TIP3   OH279920   0.266   4.496   3.671 -0.0210 -0.0274 -0.2637
19502TIP3    H179921   0.205   4.440   3.622 -1.5558 -0.7265  2.3497
19502TIP3    H279922   0.211   4.565   3.707  0.7106 -0.6862  2.1785
19503TIP3   OH279923   5.447   1.545   2.404 -0.0016 -0.3035  0.1345
19503TIP3    H179924   5.421   1.487   2.333 -1.1805 -1.6937  1.6712
19503TIP3    H279925   5.367   1.591   2.429  0.4898  0.4776  0.2849
19504TIP3   OH279926   1.068   2.741   0.969  0.0588  0.1294 -0.1313
19504TIP3    H179927   1.011   2.808   0.931  0.6839  0.4044 -0.6036
19504TIP3    H279928   1.015   2.661   0.967 -0.3855  0.4252 -0.3684
19505TIP3   OH279929   4.467   0.882  12.367 -0.4975 -0.1694  0.2346
19505TIP3    H179930   4.482   0.927  12.284 -1.1672  0.6196  0.5357
19505TIP3    H279931   4.394   0.823  12.350  1.3236 -2.2697 -0.5716
19506TIP3   OH279932   3.187   5.305   5.433  0.4512 -0.0014 -0.2712
19506TIP3    H179933   3.130   5.322   5.358 -1.2348  1.3451  1.2918
19506TIP3    H279934   3.135   5.327   5.510  2.7653  0.4219  1.2525
19507TIP3   OH279935   4.827   3.784  15.912 -0.0642 -0.0846  0.1275
19507TIP3    H179936   4.857   3.860  15.861 -0.3020 -0.5355 -0.6805
19507TIP3    H279937   4.742   3.762  15.874 -0.1941 -0.4831  0.6553
19508TIP3   OH279938   1.525   4.885  13.545 -0.3627 -0.0897  0.1168
19508TIP3    H179939   1.600   4.904  13.601 -2.1838  2.4291  1.8513
19508TIP3    H279940   1.461   4.844  13.604 -0.1484 -2.8947 -1.4975
19509TIP3   OH279941   5.423   5.340  13.660 -0.4374 -0.5112 -0.3752
19509TIP3    H179942   5.485   5.278  13.697  1.0614  0.7826 -0.6624
19509TIP3    H279943   5.469   5.379  13.586 -0.3308  2.7423  1.2887
19510TIP3   OH279944   4.070   3.301   2.190  0.1528 -0.4693  0.5406
19510TIP3    H179945   4.067   3.352   2.109 -1.2181  0.2757  1.0393
19510TIP3    H279946   4.023   3.220   2.169  1.7024 -1.2441 -0.0373
19511TIP3   OH279947   6.502   5.798  12.510 -0.0345 -0.3785 -0.2973
19511TIP3    H179948   6.482   5.719  12.560 -1.5763  0.8092  1.0324
19511TIP3    H279949   6.431   5.858  12.532 -0.0476  0.6352 -2.9362
19512TIP3   OH279950   1.151   3.131   4.285 -0.2228  0.3217 -0.4485
19512TIP3    H179951   1.173   3.175   4.367  0.5294 -0.4973 -0.2004
19512TIP3    H279952   1.134   3.040   4.311 -0.5125  0.1797 -1.1301
19513TIP3   OH279953   1.299   6.458   3.098 -0.1097 -0.3132  0.1172
19513TIP3    H179954   1.283   6.453   3.004 -0.5540 -2.1366  0.2719
19513TIP3    H279955   1.245   6.388   3.135 -1.5499  1.6871  1.9409
19514TIP3   OH279956   4.614   1.370   4.786  0.3853 -0.3047 -0.2945
19514TIP3    H179957   4.681   1.439   4.779 -0.7604  0.8148 -0.3274
19514TIP3    H279958   4.620   1.322   4.704  0.2489  0.6301 -0.8567
19515TIP3   OH279959   4.550   2.027  12.177  0.0083 -0.2856  0.1112
19515TIP3    H179960   4.495   2.074  12.114  0.2972  2.5497  1.8350
19515TIP3    H279961   4.507   1.942  12.188 -3.3003  1.3179  0.3453
19516TIP3   OH279962   4.607   6.779  15.059  0.1990 -0.1633  0.6299
19516TIP3    H179963   4.529   6.834  15.047 -0.0061 -0.8454 -1.4818
19516TIP3    H279964   4.644   6.808  15.142 -0.3528  2.6171 -0.0304
19517TIP3   OH279965   0.016   3.298  11.337  0.3028  0.3372  0.6145
19517TIP3    H179966   0.073   3.231  11.376  0.3746  1.2995  2.2008
19517TIP3    H279967   0.048   3.308  11.247  1.2449 -0.6881  0.8323
19518TIP3   OH279968   5.014   6.315   3.149 -0.3395  0.1871 -0.0471
19518TIP3    H179969   4.981   6.233   3.112 -1.9326  0.5462  0.5604
19518TIP3    H279970   5.103   6.293   3.179 -1.0324 -1.5425  0.8405
19519TIP3   OH279971   4.466   5.248  17.029 -0.1157  0.2224 -0.5847
19519TIP3    H179972   4.397   5.266  16.965  0.8323  1.5493 -1.2341
19519TIP3    H279973   4.474   5.152  17.027  1.0857  0.3180 -3.7138
19520TIP3   OH279974   3.418   3.619   5.847  0.0224 -0.1173  0.6579
19520TIP3    H179975   3.487   3.568   5.891 -0.9513 -1.7077  0.3553
19520TIP3    H279976   3.367   3.656   5.919 -0.0632 -0.6680  0.8850
19521TIP3   OH279977   1.978   0.672   5.019  0.1379  0.3167  0.3692
19521TIP3    H179978   2.003   0.580   5.031  2.5812  0.8624 -0.2031
19521TIP3    H279979   1.935   0.675   4.934 -0.4911 -0.3824  0.6568
19522TIP3   OH279980   5.612   0.340   2.838 -0.0066  0.3210 -0.0612
19522TIP3    H179981   5.623   0.359   2.745  2.7838 -1.3870 -0.1464
19522TIP3    H279982   5.636   0.421   2.882  1.1055  0.3873 -0.7663
19523TIP3   OH279983   2.105   5.554  12.465 -0.3819 -0.7735 -0.3157
19523TIP3    H179984   2.179   5.614  12.475 -1.2646  0.2525  0.1540
19523TIP3    H279985   2.125   5.504  12.386  2.7572 -3.2856  1.9346
19524TIP3   OH279986   2.348   2.056  13.501  0.1803 -0.4407 -0.3272
19524TIP3    H179987   2.432   2.036  13.542  0.3790 -1.2398 -1.1096
19524TIP3    H279988   2.317   1.972  13.468 -1.2121 -0.2428  0.4837
19525TIP3   OH279989   0.124   5.919   5.828 -0.1256  0.0020 -0.0617
19525TIP3    H179990   0.220   5.927   5.824 -0.1016 -0.1366  0.2285
19525TIP3    H279991   0.102   5.940   5.919 -0.3323 -0.3611 -0.0256
19526TIP3   OH279992   2.217   0.378  13.788 -0.3806  0.0127  0.6127
19526TIP3    H179993   2.266   0.341  13.714  0.9039  0.4214  1.2508
19526TIP3    H279994   2.125   0.358  13.768 -0.0155 -0.1815 -0.9182
19527TIP3   OH279995   3.968   5.834  16.632  0.0849 -0.1751  0.4967
19527TIP3    H179996   4.036   5.799  16.690  0.1628 -0.2667  0.3550
19527TIP3    H279997   3.951   5.922  16.664 -0.0034 -0.2938  0.7691
19528TIP3   OH279998   0.834   6.440  16.183  0.3652  0.8138 -0.4937
19528TIP3    H179999   0.809   6.529  16.207 -1.1646  0.1265  0.4980
19528TIP3    H280000   0.853   6.445  16.089 -0.1961  2.0662 -0.5499
19529TIP3   OH280001   5.328   4.213  13.818 -0.0230 -0.5055 -0.8498
19529TIP3    H180002   5.301   4.232  13.908 -1.8020 -1.5359 -1.1542
19529TIP3    H280003   5.297   4.289  13.768  2.0995  0.6880 -0.4264
19530TIP3   OH280004   6.409   2.371  16.201  0.6722  0.4894  0.0308
19530TIP3    H180005   6.432   2.305  16.135  1.6022  1.3452 -0.5139
19530TIP3    H280006   6.376   2.445  16.150  1.6678  1.2690  0.5085
19531TIP3   OH280007   4.750   0.369   3.598 -0.1837  0.1660 -0.5549
19531TIP3    H180008   4.682   0.422   3.640 -1.8874 -1.9319 -0.5256
19531TIP3    H280009   4.758   0.406   3.510 -0.5502  1.1802 -0.1601
19532TIP3   OH280010   0.122   4.460   1.215  0.1893 -0.4218 -0.1564
19532TIP3    H180011   0.173   4.538   1.234  0.2544 -0.1881 -1.2500
19532TIP3    H280012   0.106   4.420   1.300 -0.5047  1.1960  0.4851
19533TIP3   OH280013   2.878   1.590  16.539 -0.4440  0.5559 -0.7449
19533TIP3    H180014   2.824   1.669  16.548 -4.2478 -2.0647  0.5831
19533TIP3    H280015   2.845   1.547  16.460  1.7056  0.3214 -1.5482
19534TIP3   OH280016   2.396   4.045  11.047  0.0726  0.3036  0.3061
19534TIP3    H180017   2.449   3.967  11.031  1.2790  0.9386  1.0892
19534TIP3    H280018   2.460   4.116  11.053 -0.9468  1.2232  0.4166
19535TIP3   OH280019   3.539   6.635  16.550 -0.4399 -0.0725 -0.4698
19535TIP3    H180020   3.587   6.673  16.623  2.1636 -1.9245 -1.1557
19535TIP3    H280021   3.577   6.547  16.539 -3.3947 -1.2675 -1.6087
19536TIP3   OH280022   5.955   6.664  15.502 -0.0199  0.5304 -0.5410
19536TIP3    H180023   5.998   6.579  15.492 -0.5236  0.0602  1.1592
19536TIP3    H280024   5.967   6.686  15.595 -1.3991  1.4912 -0.5858
19537TIP3   OH280025   5.587   6.502   3.428 -0.0805 -0.2439 -0.6715
19537TIP3    H180026   5.527   6.477   3.499 -1.5657  0.5375 -1.6308
19537TIP3    H280027   5.606   6.594   3.444  2.2349 -0.8967  0.5806
19538TIP3   OH280028   4.345   0.250   2.438  0.1484 -0.0620  0.4791
19538TIP3    H180029   4.318   0.260   2.346  0.1156  1.8455  0.6690
19538TIP3    H280030   4.400   0.172   2.439  0.9366  0.4508 -1.3463
19539TIP3   OH280031   1.332   6.223  14.343  0.5281 -0.2167  0.5214
19539TIP3    H180032   1.331   6.232  14.438  1.5551 -0.0375  0.5238
19539TIP3    H280033   1.331   6.313  14.310 -0.0907 -0.2810  0.3536
19540TIP3   OH280034   5.128   6.304   5.436 -0.0464 -0.1130  0.0923
19540TIP3    H180035   5.067   6.268   5.501 -0.7495  1.4736  0.3484
19540TIP3    H280036   5.214   6.272   5.463 -0.5168 -0.6736  0.9475
19541TIP3   OH280037   0.369   4.813  14.410 -0.4784 -0.1516  0.2791
19541TIP3    H180038   0.373   4.717  14.418  1.0025 -0.2092 -0.9818
19541TIP3    H280039   0.357   4.843  14.500 -1.3071 -1.5354  0.6509
19542TIP3   OH280040   0.462   6.182   4.351  0.8653 -0.1894  0.0977
19542TIP3    H180041   0.544   6.176   4.302  1.6730  0.8503  1.3197
19542TIP3    H280042   0.484   6.153   4.439 -0.3491 -1.0125  0.1447
19543TIP3   OH280043   6.018   3.910  14.538 -0.2569 -0.3990 -0.7408
19543TIP3    H180044   6.093   3.857  14.512 -1.2209 -2.3125  0.2945
19543TIP3    H280045   6.045   3.951  14.620 -0.3184 -1.0432 -0.3967
19544TIP3   OH280046   2.918   0.390  12.797  0.4777 -0.4575  0.0429
19544TIP3    H180047   2.865   0.469  12.788  1.3831 -0.0290 -1.6760
19544TIP3    H280048   2.974   0.407  12.873 -0.1856  0.0455  0.4213
19545TIP3   OH280049   5.740   1.708   4.618  0.3378 -0.3618 -0.6706
19545TIP3    H180050   5.774   1.739   4.702  0.7467 -1.6154 -0.3592
19545TIP3    H280051   5.648   1.732   4.619  0.4818  0.1851 -0.1332
19546TIP3   OH280052   1.207   5.367  11.871  0.3639  0.3568  0.6373
19546TIP3    H180053   1.223   5.455  11.838  1.0858 -0.0816 -0.2176
19546TIP3    H280054   1.159   5.323  11.801  0.8887 -0.2283  0.6329
19547TIP3   OH280055   1.709   1.228   2.980  0.2124 -0.2539  0.4666
19547TIP3    H180056   1.713   1.223   2.885  0.3380  0.5906  0.4235
19547TIP3    H280057   1.719   1.137   3.010 -0.9735 -0.6593 -0.3562
19548TIP3   OH280058   2.730   1.209   2.620  0.4312  0.7167 -0.1324
19548TIP3    H180059   2.753   1.121   2.649 -1.7321  0.2087  0.0778
19548TIP3    H280060   2.805   1.237   2.567  1.0586 -1.3010 -0.3479
19549TIP3   OH280061   6.317   2.847  14.035  1.0460  0.2870 -0.3149
19549TIP3    H180062   6.298   2.835  14.128 -0.8606  0.1339 -0.7039
19549TIP3    H280063   6.406   2.881  14.033  2.0270 -1.9830  1.4683
19550TIP3   OH280064   0.413   2.145   3.327  0.3328 -0.0201 -0.4912
19550TIP3    H180065   0.464   2.169   3.405 -0.6829  1.2103 -0.1667
19550TIP3    H280066   0.331   2.194   3.338 -0.6816 -1.5429 -1.2617
19551TIP3   OH280067   5.780   2.897  10.728  0.3914  0.2121  0.1404
19551TIP3    H180068   5.851   2.866  10.673 -0.5090  0.5303 -1.2064
19551TIP3    H280069   5.754   2.981  10.691 -0.6620  0.1269  0.6430
19552TIP3   OH280070   5.799   0.991   4.745 -0.0674  0.1172  0.0144
19552TIP3    H180071   5.872   1.052   4.727  1.6197 -2.1154 -0.9727
19552TIP3    H280072   5.775   0.957   4.659  0.5571 -2.3033  0.7615
19553TIP3   OH280073   2.925   6.339  16.304  0.2518 -0.9022  0.1565
19553TIP3    H180074   2.878   6.262  16.272  0.4046 -1.0675  0.3276
19553TIP3    H280075   2.860   6.386  16.356 -0.5041  0.2905 -1.8422
19554TIP3   OH280076   3.640   0.895  12.634  0.1372 -0.3278 -0.3021
19554TIP3    H180077   3.565   0.843  12.663  0.8400 -0.9676  0.3659
19554TIP3    H280078   3.649   0.875  12.541 -0.4578 -0.3200 -0.3633
19555TIP3   OH280079   6.153   2.221  14.415  0.2872 -0.2870  0.1316
19555TIP3    H180080   6.143   2.252  14.325  0.6913 -1.4982 -0.3311
19555TIP3    H280081   6.077   2.165  14.431  0.8202 -1.0131  0.1468
19556TIP3   OH280082   0.317   5.419   4.093  0.3478  0.4196  0.3007
19556TIP3    H180083   0.271   5.427   4.176 -1.1096 -0.6254 -0.3898
19556TIP3    H280084   0.283   5.491   4.039  0.1628  0.1813  0.0958
19557TIP3   OH280085   5.335   1.545   6.635 -0.0844  0.7042  0.0494
19557TIP3    H180086   5.288   1.462   6.648 -0.5476  0.7498 -1.3145
19557TIP3    H280087   5.366   1.568   6.723 -1.0393 -0.2649  0.6640
19558TIP3   OH280088   5.427   1.223  15.275 -0.1763 -0.4371 -0.3184
19558TIP3    H180089   5.493   1.159  15.249 -0.3566 -0.4797 -0.6828
19558TIP3    H280090   5.397   1.261  15.192 -0.2278 -0.0405 -0.1158
19559TIP3   OH280091   6.286   1.654  12.886  0.4897  0.2016 -0.7643
19559TIP3    H180092   6.194   1.647  12.861  0.0532 -0.7605  1.0130
19559TIP3    H280093   6.302   1.575  12.939  1.7064  1.5100  0.8596
19560TIP3   OH280094   2.693   5.247  10.752  0.1733 -0.0426  0.0780
19560TIP3    H180095   2.711   5.178  10.688  1.2192 -0.6331  0.9960
19560TIP3    H280096   2.763   5.239  10.817 -0.7220  0.7212  1.1621
19561TIP3   OH280097   1.872   5.933   1.515  0.2640  0.1479 -0.0836
19561TIP3    H180098   1.806   5.882   1.562 -0.1715  0.0492 -0.7861
19561TIP3    H280099   1.821   5.981   1.449  0.8889  0.1417 -0.5683
19562TIP3   OH280100   0.610   4.685  12.030  0.0033  0.1055  0.0711
19562TIP3    H180101   0.602   4.771  11.986  0.3666 -0.1289 -0.4606
19562TIP3    H280102   0.662   4.703  12.108 -1.0000  0.6078  0.6355
19563TIP3   OH280103   3.197   3.372  12.843  0.0546  0.1801  0.5054
19563TIP3    H180104   3.282   3.333  12.866 -0.0320  1.3332  2.8531
19563TIP3    H280105   3.220   3.449  12.791  0.2780 -1.8465 -2.5214
19564TIP3   OH280106   5.612   2.700   1.903  0.5477 -0.5173 -0.3475
19564TIP3    H180107   5.607   2.627   1.841  0.5225  0.3029 -1.3331
19564TIP3    H280108   5.570   2.773   1.857  0.6903  0.1489  0.5716
19565TIP3   OH280109   1.459   0.213  14.291  0.4571  0.2236 -0.0780
19565TIP3    H180110   1.455   0.297  14.245  1.2968 -0.5319 -1.5704
19565TIP3    H280111   1.369   0.179  14.285  0.0557  1.1034  0.7451
19566TIP3   OH280112   0.117   0.501  10.719  0.6291 -0.2116  0.0898
19566TIP3    H180113   0.137   0.434  10.655  2.3742  0.1534  0.2185
19566TIP3    H280114   0.075   0.571  10.669  0.8076 -0.4665 -0.4118
19567TIP3   OH280115   5.494   1.755   3.468  0.6952  0.0023  0.0719
19567TIP3    H180116   5.416   1.777   3.519  1.2059  0.3805  0.6995
19567TIP3    H280117   5.535   1.682   3.515  0.8561 -0.0329 -0.1180
19568TIP3   OH280118   2.569   5.239  13.026  0.3079 -0.4986 -0.0796
19568TIP3    H180119   2.608   5.315  13.070  1.1695 -1.0233  0.0545
19568TIP3    H280120   2.517   5.197  13.094 -0.9120  0.4752 -0.3843
19569TIP3   OH280121   5.275   2.641  17.138 -0.0395 -0.0880 -0.5139
19569TIP3    H180122   5.307   2.630  17.227 -0.4698 -1.2233 -0.4893
19569TIP3    H280123   5.216   2.716  17.143 -0.4005 -0.4121  0.2570
19570TIP3   OH280124   0.290   0.091  13.365  0.1941  0.2889  0.2767
19570TIP3    H180125   0.343   0.162  13.329  0.7198 -0.5297 -0.6012
19570TIP3    H280126   0.200   0.115  13.342  0.4832 -0.0034 -1.2413
19571TIP3   OH280127   2.974   1.103  16.646  1.2670  0.4040  0.5388
19571TIP3    H180128   2.939   1.098  16.557  3.0538  0.8775 -0.2034
19571TIP3    H280129   2.954   1.193  16.674  1.3225  0.4715  0.3624
19572TIP3   OH280130   5.420   0.774   0.661 -0.0810 -0.1668  0.2898
19572TIP3    H180131   5.357   0.728   0.716 -0.4827  1.4045  1.1652
19572TIP3    H280132   5.372   0.791   0.579  0.1403 -1.4820 -0.1114
19573TIP3   OH280133   2.232   6.292  16.290 -0.8142 -0.3240 -0.1535
19573TIP3    H180134   2.185   6.223  16.335 -1.1003 -0.3850 -0.5450
19573TIP3    H280135   2.189   6.373  16.318 -2.2083 -0.4788 -1.7434
19574TIP3   OH280136   4.726   5.847  10.832  0.4953 -0.3919 -0.4609
19574TIP3    H180137   4.639   5.807  10.832  0.7196 -0.8891 -0.2767
19574TIP3    H280138   4.763   5.822  10.747  0.2539  0.2741 -0.7646
19575TIP3   OH280139   5.024   5.295  11.629  0.8798  0.0657 -0.0813
19575TIP3    H180140   4.929   5.293  11.621  0.8417 -0.3364  0.4582
19575TIP3    H280141   5.056   5.313  11.541  0.3069  0.1179 -0.2750
19576TIP3   OH280142   5.745   5.888  10.547  0.6779 -0.5706  0.5667
19576TIP3    H180143   5.652   5.866  10.555  0.2548  1.1848  0.5488
19576TIP3    H280144   5.773   5.847  10.465  0.0375 -1.4648  0.7870
19577TIP3   OH280145   0.051   1.667   3.625 -0.2848 -0.5319 -0.1183
19577TIP3    H180146   0.023   1.585   3.583 -1.4535 -0.1252 -0.1448
19577TIP3    H280147   0.011   1.736   3.573  2.3592  0.1673 -1.3370
19578TIP3   OH280148   6.124   6.488  13.577 -0.2910  0.1147  0.1087
19578TIP3    H180149   6.161   6.404  13.547 -2.0807 -1.0230  1.0394
19578TIP3    H280150   6.180   6.514  13.650  1.2314  0.5594 -1.1658
19579TIP3   OH280151   1.199   1.761  12.193  0.3685  0.2154  0.1606
19579TIP3    H180152   1.259   1.692  12.221 -1.7695 -1.0363  1.9049
19579TIP3    H280153   1.117   1.741  12.239 -1.6349  1.3985 -2.6964
19580TIP3   OH280154   0.406   2.466   4.062  0.6448  0.5644  0.4732
19580TIP3    H180155   0.382   2.535   4.123  1.7455  1.2787  0.1163
19580TIP3    H280156   0.381   2.499   3.976  0.8103  0.3552  0.3412
19581TIP3   OH280157   4.903   0.236  10.587  0.6470  0.1202 -0.6690
19581TIP3    H180158   4.989   0.213  10.623 -0.5925 -1.3531  1.5270
19581TIP3    H280159   4.888   0.326  10.615  0.7045 -0.2378  0.5362
19582TIP3   OH280160   2.815   5.482   3.105  0.2348 -0.6753  0.3622
19582TIP3    H180161   2.880   5.457   3.171  0.0686  0.5665  1.0118
19582TIP3    H280162   2.847   5.566   3.072 -0.6735 -0.3982  0.1941
19583TIP3   OH280163   3.355   1.923  15.977 -0.3461 -0.0899 -0.5082
19583TIP3    H180164   3.406   1.849  16.010  0.7782  0.9219  0.0723
19583TIP3    H280165   3.271   1.917  16.021  0.3876  0.0116  0.9123
19584TIP3   OH280166   5.646   3.885  11.813  0.4411  0.4351  0.0849
19584TIP3    H180167   5.706   3.953  11.845  1.4305 -0.4743  0.2043
19584TIP3    H280168   5.580   3.933  11.762  1.6634  1.3915 -0.6372
19585TIP3   OH280169   2.143   0.078  12.734  0.0484  0.0976 -0.2996
19585TIP3    H180170   2.090   0.079  12.655 -0.6530 -0.5115  0.1555
19585TIP3    H280171   2.148   0.169  12.761  0.3970  0.3266 -1.1060
19586TIP3   OH280172   5.644   0.776   4.046  0.1262 -0.2861  0.0239
19586TIP3    H180173   5.566   0.782   3.991  0.4304  0.3224 -0.3463
19586TIP3    H280174   5.610   0.763   4.135 -0.4057  0.5196 -0.0632
19587TIP3   OH280175   0.357   5.757   3.213 -0.1710 -0.3991 -0.1484
19587TIP3    H180176   0.322   5.712   3.135  0.0326 -0.8789  0.0330
19587TIP3    H280177   0.432   5.704   3.239  0.3801  0.3479 -0.2311
19588TIP3   OH280178   2.753   5.036  15.656  0.0187  0.0456  0.0565
19588TIP3    H180179   2.704   4.967  15.701  0.8766 -1.2686 -0.9853
19588TIP3    H280180   2.713   5.041  15.570  0.5923  0.1724 -0.2037
19589TIP3   OH280181   0.308   5.581   1.045 -0.3207 -0.0028 -0.5312
19589TIP3    H180182   0.213   5.576   1.029 -0.3085 -0.1780 -0.5560
19589TIP3    H280183   0.317   5.648   1.113 -0.8608 -2.9067  2.5687
19590TIP3   OH280184   5.343   1.284  15.028 -0.6366  0.3739 -0.2513
19590TIP3    H180185   5.249   1.302  15.021 -0.6219  0.3799 -0.4636
19590TIP3    H280186   5.366   1.245  14.943 -0.1232  1.8622 -0.8176
19591TIP3   OH280187   3.731   0.817   5.323 -0.3023 -0.6358  0.0080
19591TIP3    H180188   3.744   0.897   5.272  0.4735 -0.5215  0.3755
19591TIP3    H280189   3.708   0.847   5.410 -0.8687 -0.8248 -0.0754
19592TIP3   OH280190   0.537   3.250  12.543  0.0240  0.1883 -0.2950
19592TIP3    H180191   0.518   3.225  12.633 -2.0852 -2.0639 -1.3265
19592TIP3    H280192   0.633   3.260  12.541  0.0605  0.6723  2.2664
19593TIP3   OH280193   4.402   5.261  16.067  0.0774  0.0448  0.4103
19593TIP3    H180194   4.330   5.241  16.128 -0.3947  1.5675  0.3700
19593TIP3    H280195   4.407   5.184  16.010 -3.2332  0.9478 -1.2247
19594TIP3   OH280196   0.100   4.116   0.762  0.6426 -0.1958  0.2525
19594TIP3    H180197   0.156   4.170   0.818 -0.6349  1.2748  0.1297
19594TIP3    H280198   0.057   4.055   0.823  0.4129  0.3909  0.6797
19595TIP3   OH280199   1.066   2.112  16.039 -0.3602 -0.4039  0.1955
19595TIP3    H180200   1.042   2.093  15.948  1.9996 -0.1443 -0.5138
19595TIP3    H280201   1.137   2.176  16.032  0.6052 -1.2184  2.1771
19596TIP3   OH280202   3.812   1.377  15.152  0.6679  0.2003  0.2430
19596TIP3    H180203   3.864   1.318  15.098 -0.4351 -2.5474  2.0404
19596TIP3    H280204   3.868   1.395  15.228  0.3451  0.0810  0.5097
19597TIP3   OH280205   6.403   5.656  11.914 -0.1349  0.1570 -0.4706
19597TIP3    H180206   6.490   5.665  11.954 -0.2291  0.0057 -0.2303
19597TIP3    H280207   6.384   5.563  11.920  0.7461 -0.1953 -2.7622
19598TIP3   OH280208   0.965   3.480  15.374  0.4224  0.1632 -0.1229
19598TIP3    H180209   0.881   3.523  15.361 -0.0712 -0.8427 -0.3654
19598TIP3    H280210   1.023   3.548  15.407 -0.4463  0.9039 -0.1213
19599TIP3   OH280211   0.533   2.346  10.672 -0.0261 -0.4972 -0.2887
19599TIP3    H180212   0.566   2.415  10.614  3.0957  0.1446  2.1030
19599TIP3    H280213   0.439   2.343  10.654  0.0531  3.0991 -1.8041
19600TIP3   OH280214   2.897   4.716   1.164 -0.3039  0.6206  0.5144
19600TIP3    H180215   2.879   4.733   1.071 -1.1722 -2.2730  0.0928
19600TIP3    H280216   2.992   4.713   1.169 -0.2771 -1.0555 -0.6757
19601TIP3   OH280217   1.499   3.536  15.501 -0.3387 -0.1665  0.2962
19601TIP3    H180218   1.507   3.483  15.580 -0.0531 -0.8224 -0.1764
19601TIP3    H280219   1.585   3.532  15.460 -0.7433 -0.5590 -0.5154
19602TIP3   OH280220   4.107   1.308   2.772 -0.6952 -0.0075  0.6150
19602TIP3    H180221   4.163   1.261   2.832 -1.5144 -0.5585  0.9560
19602TIP3    H280222   4.040   1.348   2.828 -1.7475 -0.9294  0.0319
19603TIP3   OH280223   4.552   1.289   1.232 -0.3509  0.3844  0.5379
19603TIP3    H180224   4.520   1.282   1.322  0.1406  2.2772  0.8881
19603TIP3    H280225   4.609   1.366   1.233 -1.0089  0.9215 -1.5884
19604TIP3   OH280226   6.017   6.592  17.012 -0.1444  0.3295  0.0471
19604TIP3    H180227   5.970   6.528  17.064 -1.6478  2.0619  0.8714
19604TIP3    H280228   5.995   6.571  16.921 -3.2314  1.6221  0.4518
19605TIP3   OH280229   3.654   6.755  15.503  0.5716 -0.3215 -0.1968
19605TIP3    H180230   3.561   6.758  15.521  0.4660 -3.3686 -0.0215
19605TIP3    H280231   3.694   6.814  15.567 -1.0223 -0.6389  1.0861
19606TIP3   OH280232   1.144   5.052  13.109 -0.2065 -0.0994 -0.2885
19606TIP3    H180233   1.122   5.094  13.026  1.0115 -0.2183 -0.6802
19606TIP3    H280234   1.231   5.086  13.131  0.2724 -1.4812 -0.0026
19607TIP3   OH280235   0.022   3.727   1.445 -0.6102 -0.5952  0.1735
19607TIP3    H180236   0.012   3.811   1.401 -2.3767 -0.2407  1.1891
19607TIP3    H280237   0.011   3.747   1.538  1.1142 -1.6249  0.6167
19608TIP3   OH280238   0.867   0.777  16.989  0.3635  0.1912  0.1374
19608TIP3    H180239   0.831   0.866  16.989  0.6011  0.2881 -1.1545
19608TIP3    H280240   0.917   0.773  17.070 -0.3075  0.9609  0.6134
19609TIP3   OH280241   1.324   2.891   1.540  0.0833 -0.2379 -0.4641
19609TIP3    H180242   1.233   2.860   1.542  0.0735 -0.1743  0.6448
19609TIP3    H280243   1.336   2.925   1.452 -1.2587  0.5785 -0.3507
19610TIP3   OH280244   2.583   6.120  16.074 -0.3689  0.0280  0.2153
19610TIP3    H180245   2.620   6.108  15.987 -0.4015 -1.0909  0.3436
19610TIP3    H280246   2.490   6.137  16.058 -0.4654 -0.6555  0.0576
19611TIP3   OH280247   4.451   6.456   5.133  0.5440  0.0297  0.0318
19611TIP3    H180248   4.507   6.380   5.122  1.7497  0.4657  2.6496
19611TIP3    H280249   4.483   6.519   5.069  1.4512 -0.6208 -0.1628
19612TIP3   OH280250   2.821   1.331  13.959  0.1800 -0.2261 -0.5252
19612TIP3    H180251   2.899   1.284  13.930  0.3598 -1.2648  1.5404
19612TIP3    H280252   2.786   1.371  13.879  0.8289 -2.6761 -2.1111
19613TIP3   OH280253   1.137   5.087  10.597 -0.3942 -0.2414 -0.0536
19613TIP3    H180254   1.165   5.144  10.525 -0.7524  0.7813  0.6071
19613TIP3    H280255   1.167   5.132  10.676  0.3374 -1.5561  0.4248
19614TIP3   OH280256   3.081   1.510   0.732  0.3763 -0.0717  0.7716
19614TIP3    H180257   3.129   1.588   0.707 -1.4611  0.8325 -0.0209
19614TIP3    H280258   3.086   1.453   0.656 -1.3954  0.8143 -0.0285
19615TIP3   OH280259   0.964   5.710  12.708 -0.7340 -0.0639  0.1555
19615TIP3    H180260   0.992   5.794  12.744 -0.0824 -0.4288  0.4997
19615TIP3    H280261   0.973   5.648  12.780  2.1771 -1.1316 -1.0530
19616TIP3   OH280262   5.994   2.698   0.345 -0.0794  0.4133  0.4535
19616TIP3    H180263   5.997   2.632   0.276 -1.3185  0.0822  0.7062
19616TIP3    H280264   5.936   2.661   0.411  1.4830  0.5142  1.9079
19617TIP3   OH280265   5.292   2.840  11.428  0.5537 -0.3049 -0.1189
19617TIP3    H180266   5.262   2.749  11.428  2.2825 -0.9084  1.4946
19617TIP3    H280267   5.328   2.853  11.340 -2.1064 -0.3204 -1.2392
19618TIP3   OH280268   1.238   3.436  13.319  0.2271  0.6669  0.3549
19618TIP3    H180269   1.206   3.435  13.229  1.1811  0.8018  0.0079
19618TIP3    H280270   1.279   3.350  13.331 -0.1536  0.5384  0.7587
19619TIP3   OH280271   2.683   5.448  14.129  0.5509  0.0901 -0.0442
19619TIP3    H180272   2.732   5.515  14.177  1.6168  0.2914 -1.3866
19619TIP3    H280273   2.748   5.381  14.107 -0.1026 -0.4290 -0.4247
19620TIP3   OH280274   6.747   3.699  14.246  0.6570 -0.2714  0.3858
19620TIP3    H180275   6.738   3.707  14.341  0.8323  0.0230  0.3752
19620TIP3    H280276   6.817   3.635  14.234  1.4073  0.5263  0.4556
19621TIP3   OH280277   1.894   5.791   2.255 -0.1767  0.8380  0.0654
19621TIP3    H180278   1.844   5.785   2.336 -0.8722 -1.6597 -0.4985
19621TIP3    H280279   1.983   5.768   2.279 -0.8174 -2.1551 -0.2208
19622TIP3   OH280280   3.807   1.826   0.323  0.1430  0.4764 -0.1511
19622TIP3    H180281   3.735   1.805   0.382  1.3717  1.2279  1.6353
19622TIP3    H280282   3.765   1.838   0.238 -1.6749 -0.3165  0.6108
19623TIP3   OH280283   0.225   5.407  12.957  0.1593  0.9067 -0.2100
19623TIP3    H180284   0.309   5.452  12.965  1.2644 -0.9840 -0.8255
19623TIP3    H280285   0.225   5.372  12.868 -0.6378 -0.3746  0.2803
19624TIP3   OH280286   4.348   1.699   5.028  0.5753  0.0163  0.2939
19624TIP3    H180287   4.442   1.698   5.045  0.6475 -0.0885 -0.1018
19624TIP3    H280288   4.334   1.629   4.964 -0.0685 -1.3133  1.8561
19625TIP3   OH280289   3.510   0.146   1.598 -0.2189 -0.0759 -0.0526
19625TIP3    H180290   3.580   0.133   1.534  1.3891 -0.6207  1.7353
19625TIP3    H280291   3.543   0.103   1.678 -2.2750  0.3228  1.0482
19626TIP3   OH280292   0.237   4.446   1.995  0.2804 -0.2346 -0.2160
19626TIP3    H180293   0.227   4.448   1.900 -0.7839 -1.0159 -0.1253
19626TIP3    H280294   0.293   4.370   2.012 -0.8610 -1.0572 -0.1084
19627TIP3   OH280295   1.904   5.608   5.637  0.2630 -0.3658  0.1271
19627TIP3    H180296   1.913   5.512   5.633 -0.7703 -0.6000  2.3866
19627TIP3    H280297   1.978   5.641   5.586  2.0014 -2.3523  1.2608
19628TIP3   OH280298   0.512   1.723   1.012 -0.0383 -0.0476 -0.3255
19628TIP3    H180299   0.577   1.785   1.046 -1.0417 -0.2485  2.0446
19628TIP3    H280300   0.443   1.779   0.976  0.5142  0.1769 -1.0572
19629TIP3   OH280301   3.121   3.135  15.660 -0.2720  0.2204 -0.2249
19629TIP3    H180302   3.026   3.142  15.645 -0.0876 -1.0271 -2.1402
19629TIP3    H280303   3.150   3.068  15.599  1.9737  1.0470 -0.1182
19630TIP3   OH280304   5.212   2.590   3.625  0.0280  0.2417 -0.2392
19630TIP3    H180305   5.239   2.565   3.714 -1.3157 -1.3213 -0.2448
19630TIP3    H280306   5.294   2.592   3.575  0.9968  2.6464  1.3557
19631TIP3   OH280307   3.853   0.259  10.981 -0.5023 -0.1377  0.7623
19631TIP3    H180308   3.839   0.247  10.888 -0.6238  1.1946  0.5913
19631TIP3    H280309   3.906   0.184  11.008 -0.3931 -0.4803 -0.3946
19632TIP3   OH280310   0.906   2.004   2.814  0.3739  0.8366  0.6094
19632TIP3    H180311   0.850   1.927   2.802  1.9872 -0.5801  1.8098
19632TIP3    H280312   0.927   2.003   2.907  0.0336  3.0415  0.7320
19633TIP3   OH280313   3.788   1.144   0.406  0.4273 -0.3703 -0.5446
19633TIP3    H180314   3.751   1.056   0.412 -1.7670  0.4931 -1.0324
19633TIP3    H280315   3.723   1.201   0.446  0.3403  1.4313 -3.1175
19634TIP3   OH280316   0.533   2.969  15.171  0.2510 -0.0999  0.4536
19634TIP3    H180317   0.486   3.014  15.102  0.6839 -0.4708 -0.0908
19634TIP3    H280318   0.625   2.991  15.155  0.1683  1.6599  2.2580
19635TIP3   OH280319   5.360   1.680   5.117 -0.2332 -0.2390  0.4570
19635TIP3    H180320   5.322   1.736   5.049 -2.1510 -2.0366 -0.0097
19635TIP3    H280321   5.303   1.693   5.193 -1.5685 -2.5926 -0.0987
19636TIP3   OH280322   0.565   2.895  14.482  0.1578 -0.4883 -0.4381
19636TIP3    H180323   0.653   2.886  14.518  0.2420 -2.5334 -1.0969
19636TIP3    H280324   0.520   2.815  14.508 -0.3580 -1.1415 -3.1729
19637TIP3   OH280325   5.540   3.380  11.787 -0.3916  0.3684 -0.0836
19637TIP3    H180326   5.548   3.474  11.805 -3.1511  0.9974 -1.8554
19637TIP3    H280327   5.504   3.343  11.868  1.6558  0.6076  0.9858
19638TIP3   OH280328   2.278   1.537  15.025 -0.0491  0.1441  0.2405
19638TIP3    H180329   2.342   1.493  15.081  0.0586 -0.9390 -0.7112
19638TIP3    H280330   2.263   1.622  15.067  0.8789 -0.2000  1.2826
19639TIP3   OH280331   4.766   4.390  12.741 -0.2665  0.2554 -0.0564
19639TIP3    H180332   4.691   4.330  12.736 -0.5165  0.5020  0.5986
19639TIP3    H280333   4.745   4.460  12.679 -1.4500  1.2636  1.4360
19640TIP3   OH280334   1.133   6.586  11.756 -0.2311  0.0264 -0.5445
19640TIP3    H180335   1.099   6.498  11.774  0.3131  0.0675  0.7685
19640TIP3    H280336   1.228   6.577  11.765 -0.0430  0.3756 -2.1041
19641TIP3   OH280337   3.082   1.449  13.605 -0.1032  0.6713 -0.2990
19641TIP3    H180338   3.003   1.468  13.554 -1.5938 -1.6667  1.0303
19641TIP3    H280339   3.054   1.381  13.667  2.8784  0.0707  0.4339
19642TIP3   OH280340   2.606   2.450   4.775  0.3825  0.1301  0.1696
19642TIP3    H180341   2.691   2.421   4.743  0.8098 -0.4200  1.7748
19642TIP3    H280342   2.623   2.536   4.813  0.7923 -1.1623  2.9813
19643TIP3   OH280343   6.533   5.393   0.777  0.6523 -0.0394 -0.1855
19643TIP3    H180344   6.459   5.334   0.764  0.0632  0.4414  0.9147
19643TIP3    H280345   6.515   5.436   0.861  1.5246  1.0446 -0.5439
19644TIP3   OH280346   1.747   3.701  12.745 -0.4845 -0.3544 -0.5516
19644TIP3    H180347   1.767   3.608  12.748  2.8592  0.2726 -1.1348
19644TIP3    H280348   1.733   3.721  12.653 -0.7022 -0.1757 -0.4818
19645TIP3   OH280349   3.465   1.038   1.578 -0.2328 -0.3192 -0.0229
19645TIP3    H180350   3.436   1.070   1.663 -0.6950 -0.7306 -0.0275
19645TIP3    H280351   3.560   1.029   1.587 -0.2792 -0.3490  0.4415
19646TIP3   OH280352   5.915   5.555   5.211  0.1506  0.4786  0.0214
19646TIP3    H180353   6.002   5.531   5.180  0.7884  0.3907  1.7824
19646TIP3    H280354   5.924   5.645   5.242 -0.2604  0.3098  0.6471
19647TIP3   OH280355   4.186   2.974  12.528  0.3387  0.1928  0.2935
19647TIP3    H180356   4.191   3.053  12.582 -1.5119  0.2226  0.4305
19647TIP3    H280357   4.278   2.955  12.506  0.8896  1.7504  1.1479
19648TIP3   OH280358   3.740   5.341  14.243  0.2198  0.0296 -0.0447
19648TIP3    H180359   3.776   5.375  14.162  0.6404  1.1292  0.5951
19648TIP3    H280360   3.715   5.418  14.294 -1.1767 -0.6677  0.3725
19649TIP3   OH280361   3.399   5.071   1.610 -0.0841 -0.4114 -0.7806
19649TIP3    H180362   3.317   5.079   1.561 -0.7122 -0.4378  0.2394
19649TIP3    H280363   3.447   5.151   1.591 -0.5253 -0.2160 -1.0800
19650TIP3   OH280364   5.635   1.453  15.377 -0.1593  0.2879  0.4158
19650TIP3    H180365   5.561   1.429  15.322  0.0876 -0.8523  0.5705
19650TIP3    H280366   5.610   1.536  15.417  0.4937  2.2007 -2.9970
19651TIP3   OH280367   1.519   5.305  15.962  0.1604  0.3613  0.0445
19651TIP3    H180368   1.510   5.276  15.871  1.3436  1.8901 -0.5760
19651TIP3    H280369   1.591   5.367  15.960  0.2215  0.3679  2.0548
19652TIP3   OH280370   2.153   6.264  12.550 -0.4969 -0.0726 -0.1752
19652TIP3    H180371   2.120   6.239  12.636  0.2199 -1.3665 -0.2657
19652TIP3    H280372   2.199   6.186  12.518 -0.1684  0.6211 -1.4364
19653TIP3   OH280373   3.010   4.256   5.398 -0.4611 -0.4148  0.1803
19653TIP3    H180374   3.094   4.274   5.356  1.1520 -2.3889  2.4166
19653TIP3    H280375   2.997   4.330   5.458 -0.5124  0.0962 -0.4608
19654TIP3   OH280376   2.364   0.477  13.290 -0.1752 -0.0914  0.0837
19654TIP3    H180377   2.332   0.426  13.216 -0.1701  0.2365 -0.1463
19654TIP3    H280378   2.303   0.550  13.297  0.2682  0.2963 -0.0822
19655TIP3   OH280379   5.097   4.818   0.432 -0.6285 -0.0987  0.5950
19655TIP3    H180380   5.103   4.735   0.384 -1.0133  0.5593 -0.6270
19655TIP3    H280381   5.032   4.802   0.500  0.9713 -1.4758  1.8100
19656TIP3   OH280382   1.205   0.603  14.617 -0.0425  0.0915  0.5518
19656TIP3    H180383   1.138   0.656  14.573 -1.8102 -0.1448  2.8721
19656TIP3    H280384   1.167   0.515  14.621  0.3699 -0.0391  1.8925
19657TIP3   OH280385   4.641   3.399  16.202  0.3486  0.1929 -0.1374
19657TIP3    H180386   4.610   3.451  16.129 -1.2972  0.8679  1.0081
19657TIP3    H280387   4.722   3.442  16.230 -1.2849  2.5177  1.1641
19658TIP3   OH280388   2.593   2.682   0.512 -0.1715  0.2036 -0.2016
19658TIP3    H180389   2.663   2.667   0.576  0.1082 -0.9113 -0.7428
19658TIP3    H280390   2.633   2.661   0.428 -1.1668 -0.4824 -0.5106
19659TIP3   OH280391   5.006   6.314   3.764  0.1032 -0.2698  0.1134
19659TIP3    H180392   5.081   6.297   3.822 -0.0082 -0.6477  0.1509
19659TIP3    H280393   4.934   6.265   3.804  0.5389 -2.3011 -1.5086
19660TIP3   OH280394   6.297   1.289   3.804  0.4492  0.2922  0.1190
19660TIP3    H180395   6.263   1.255   3.721  1.3900  3.7648 -1.7590
19660TIP3    H280396   6.254   1.374   3.815  1.3056  0.4521  2.5477
19661TIP3   OH280397   2.605   1.293   0.211  0.6028 -0.0629  0.0837
19661TIP3    H180398   2.516   1.327   0.202  1.2789  1.5522 -0.6923
19661TIP3    H280399   2.602   1.241   0.292 -0.8574  0.5343  0.4402
19662TIP3   OH280400   5.853   2.494  12.617 -0.7981 -0.8330 -0.0782
19662TIP3    H180401   5.943   2.463  12.626 -1.0544 -1.4719  0.2711
19662TIP3    H280402   5.799   2.416  12.629 -1.3963 -0.4688 -0.3812
19663TIP3   OH280403   4.189   1.855   4.073  0.2638 -0.1155  0.0258
19663TIP3    H180404   4.200   1.855   4.169  0.6360 -1.0083 -0.0149
19663TIP3    H280405   4.095   1.840   4.060  0.5229 -2.1006  0.2349
19664TIP3   OH280406   5.649   6.088   0.796 -0.5713  0.0828  0.1496
19664TIP3    H180407   5.655   6.068   0.703  1.0466  2.1145 -0.2214
19664TIP3    H280408   5.561   6.122   0.808 -1.3071 -1.5930 -0.3229
19665TIP3   OH280409   3.847   2.506   0.470  0.2430  0.7190 -0.2910
19665TIP3    H180410   3.911   2.537   0.406  2.4852 -0.0584  1.5053
19665TIP3    H280411   3.860   2.563   0.546  0.9537 -1.3836  1.2072
19666TIP3   OH280412   4.559   4.630   3.354  0.3067 -0.3131  0.7101
19666TIP3    H180413   4.618   4.557   3.338  1.7085  1.0296 -0.3646
19666TIP3    H280414   4.558   4.640   3.450  0.7695 -1.1778  0.8043
19667TIP3   OH280415   1.413   4.170  11.811 -0.3071 -0.4109  0.3944
19667TIP3    H180416   1.438   4.103  11.874 -1.1142  0.1026  1.2701
19667TIP3    H280417   1.478   4.163  11.741 -0.6330 -2.3752  0.2734
19668TIP3   OH280418   6.329   5.044   4.891  0.2988 -0.3796  0.3926
19668TIP3    H180419   6.385   5.020   4.818  0.7456  4.5924 -1.1045
19668TIP3    H280420   6.387   5.044   4.967  1.0950 -0.4346 -0.2131
19669TIP3   OH280421   3.653   2.894   4.742 -0.2019  0.3724  0.0538
19669TIP3    H180422   3.640   2.989   4.750 -1.0776  0.3358 -0.9324
19669TIP3    H280423   3.697   2.870   4.824 -0.4013  1.5481  0.5264
19670TIP3   OH280424   4.907   0.481  12.848  0.6663  0.0210 -0.2964
19670TIP3    H180425   4.896   0.425  12.924  0.8387  1.3532  0.7213
19670TIP3    H280426   4.947   0.561  12.882 -0.7644  1.2965 -1.4924
19671TIP3   OH280427   1.298   5.890   0.996  0.0206 -0.0072 -0.5077
19671TIP3    H180428   1.294   5.848   0.910  0.2342  1.6433 -1.3425
19671TIP3    H280429   1.215   5.866   1.038 -0.7442  0.3993 -1.7575
19672TIP3   OH280430   1.783   6.416  11.358 -0.0695 -0.3233 -0.3270
19672TIP3    H180431   1.704   6.460  11.390 -0.2966 -0.5909 -0.5256
19672TIP3    H280432   1.762   6.323  11.362  0.5794 -0.4465  0.5499
19673TIP3   OH280433   6.195   5.042   1.867  0.6964  0.2867  0.0626
19673TIP3    H180434   6.138   4.987   1.813  1.4537  0.8422 -1.3445
19673TIP3    H280435   6.135   5.092   1.923  0.0716 -3.6392  3.0803
19674TIP3   OH280436   2.197   2.213  11.820 -0.0653 -0.0304  0.4382
19674TIP3    H180437   2.239   2.296  11.796 -0.5076 -0.0963 -0.5939
19674TIP3    H280438   2.130   2.237  11.883 -0.0074  0.3589  0.3508
19675TIP3   OH280439   4.572   4.613   1.936 -0.0770  0.1334 -0.0450
19675TIP3    H180440   4.501   4.550   1.946  0.7972 -0.8506  0.0382
19675TIP3    H280441   4.536   4.681   1.879 -1.9169  0.9595  2.0284
19676TIP3   OH280442   0.627   3.043  13.690 -0.1028  0.5761  0.2450
19676TIP3    H180443   0.532   3.049  13.686 -0.1076  1.0945  1.0925
19676TIP3    H280444   0.654   3.033  13.598 -1.0039 -0.1970  0.0528
19677TIP3   OH280445   2.452   5.387   0.289 -0.2677  0.4814  0.2593
19677TIP3    H180446   2.445   5.300   0.248 -1.5509  0.9785 -0.6133
19677TIP3    H280447   2.365   5.404   0.325  0.2106  1.0558  1.1664
19678TIP3   OH280448   5.698   6.687   5.203 -0.4024  0.4464  0.2497
19678TIP3    H180449   5.750   6.757   5.243  0.6282  0.1302 -0.5169
19678TIP3    H280450   5.730   6.607   5.245 -0.1526  0.2343 -0.3506
19679TIP3   OH280451   2.027   3.358   4.347  0.1859 -0.0716 -0.1967
19679TIP3    H180452   1.948   3.309   4.324  0.2804 -0.6466  0.6713
19679TIP3    H280453   2.088   3.292   4.378  1.6428  0.1556 -2.4565
19680TIP3   OH280454   0.411   5.766  12.448 -0.4662  0.5280  0.1723
19680TIP3    H180455   0.332   5.788  12.498  1.0689 -1.3570  3.6334
19680TIP3    H280456   0.462   5.847  12.447 -0.7113  0.7018  1.2816
19681TIP3   OH280457   6.251   0.219  14.838 -0.2476 -0.5300 -0.3153
19681TIP3    H180458   6.203   0.254  14.763 -0.1410 -2.2820 -1.2142
19681TIP3    H280459   6.204   0.140  14.862  1.1744 -1.3274 -0.1097
19682TIP3   OH280460   3.753   6.740   5.126 -0.0605 -0.1711 -0.6150
19682TIP3    H180461   3.725   6.682   5.196  0.3176 -0.3203 -0.5865
19682TIP3    H280462   3.844   6.761   5.147  0.1162 -0.3774 -1.1655
19683TIP3   OH280463   2.482   0.675  11.511 -0.0916  0.2642 -0.3391
19683TIP3    H180464   2.477   0.605  11.576  0.3430 -1.6914 -2.3521
19683TIP3    H280465   2.391   0.694  11.489 -0.1839 -0.3603 -0.5028
19684TIP3   OH280466   0.309   1.790   3.759  0.1254 -0.4757 -0.4667
19684TIP3    H180467   0.226   1.780   3.714  0.0567  0.2222 -0.4951
19684TIP3    H280468   0.375   1.779   3.691  0.1349 -3.3927 -0.0439
19685TIP3   OH280469   0.455   0.827  13.912  0.1124  0.3940 -0.0940
19685TIP3    H180470   0.549   0.811  13.918  0.2546  0.5398 -1.7553
19685TIP3    H280471   0.447   0.921  13.902 -0.2587  0.4730  0.9512
19686TIP3   OH280472   2.903   4.536   5.165 -0.4194  0.0669 -0.1978
19686TIP3    H180473   2.860   4.617   5.190 -0.1536 -0.1416  0.9918
19686TIP3    H280474   2.845   4.467   5.198 -0.1625 -0.2178 -0.3408
19687TIP3   OH280475   6.471   2.687   4.350 -0.0898  0.0538  0.4999
19687TIP3    H180476   6.486   2.622   4.281 -0.0956  0.1562  0.4022
19687TIP3    H280477   6.389   2.729   4.325  0.0695  0.3057  0.4051
19688TIP3   OH280478   1.816   0.463  15.333  0.3120 -0.2195 -0.1306
19688TIP3    H180479   1.746   0.509  15.379  0.3947 -1.2965  1.1153
19688TIP3    H280480   1.789   0.462  15.242 -0.0463  1.6301 -0.0549
19689TIP3   OH280481   4.530   5.698   1.724  0.4964 -0.1412  0.2317
19689TIP3    H180482   4.490   5.638   1.661  0.7148  0.6192 -0.6495
19689TIP3    H280483   4.608   5.652   1.755  0.4423 -0.4817 -0.1353
19690TIP3   OH280484   1.384   6.068   1.351  0.3312  0.4531  0.0787
19690TIP3    H180485   1.428   6.019   1.282  1.2825 -0.7165  1.4899
19690TIP3    H280486   1.388   6.159   1.321  4.3054  0.4853  0.4115
19691TIP3   OH280487   4.618   3.942   2.901 -0.2808 -0.1093 -0.1969
19691TIP3    H180488   4.645   4.013   2.843 -0.1922  0.0459  0.0338
19691TIP3    H280489   4.647   3.862   2.857 -0.1581  0.0111 -0.3329
19692TIP3   OH280490   0.750   4.753  13.297  0.4627  0.0220 -0.4113
19692TIP3    H180491   0.746   4.739  13.392  1.1069  0.1455 -0.3587
19692TIP3    H280492   0.803   4.833  13.287  1.1588 -0.4957 -0.9037
19693TIP3   OH280493   5.470   0.367  16.739  0.8187 -0.0307 -0.4414
19693TIP3    H180494   5.412   0.344  16.667 -1.2635 -2.5962  1.9711
19693TIP3    H280495   5.513   0.285  16.764  1.6018  0.8279  1.1571
19694TIP3   OH280496   1.317   2.366   4.389 -0.2019  0.4445  0.2445
19694TIP3    H180497   1.387   2.422   4.355  0.0489  0.6793  1.1228
19694TIP3    H280498   1.237   2.406   4.357 -0.0759  1.8421  1.5757
19695TIP3   OH280499   2.844   0.583  15.095  0.0469 -0.1601  0.3699
19695TIP3    H180500   2.839   0.520  15.167  1.5461  1.5869  2.0539
19695TIP3    H280501   2.926   0.563  15.050  0.5044  0.5482  0.8816
19696TIP3   OH280502   5.347   0.789   5.116 -0.3556  0.5508  0.1617
19696TIP3    H180503   5.317   0.711   5.162 -1.9778  0.5196 -0.8891
19696TIP3    H280504   5.337   0.860   5.179 -0.0721  0.0914  0.7182
19697TIP3   OH280505   1.704   0.644   0.767  0.0992 -0.1173  0.2233
19697TIP3    H180506   1.614   0.643   0.737  0.7027 -0.9565 -1.6586
19697TIP3    H280507   1.740   0.559   0.741  1.7732  0.6825 -0.2135
19698TIP3   OH280508   3.439   4.999   4.965 -0.0333  0.0979 -0.0741
19698TIP3    H180509   3.376   5.071   4.963  0.1150  0.2073 -1.5215
19698TIP3    H280510   3.385   4.920   4.974 -0.2812  0.2994  0.1841
19699TIP3   OH280511   1.591   1.112  12.666 -0.5404  0.4591  0.9909
19699TIP3    H180512   1.526   1.104  12.596 -0.5374  1.3922  0.8789
19699TIP3    H280513   1.672   1.081  12.626 -0.5245  1.0534  0.5587
19700TIP3   OH280514   2.760   1.914   3.273  0.0572 -0.0704 -0.6524
19700TIP3    H180515   2.724   1.897   3.360 -0.5475 -0.8691 -1.0507
19700TIP3    H280516   2.826   1.845   3.261  1.4514  1.1416 -0.0925
19701TIP3   OH280517   2.923   6.709   5.304  0.5962  0.6447 -0.1182
19701TIP3    H180518   2.907   6.784   5.247 -1.3176 -0.5213 -1.1640
19701TIP3    H280519   2.857   6.715   5.373 -1.1217 -1.3317 -1.5323
19702TIP3   OH280520   3.162   6.288  12.923  0.1786  0.1356 -0.1071
19702TIP3    H180521   3.199   6.203  12.948  0.7885  0.0218 -1.3399
19702TIP3    H280522   3.076   6.291  12.964  0.4574 -0.7777  0.5341
19703TIP3   OH280523   6.290   3.245  14.938 -0.3984 -0.0817  0.1625
19703TIP3    H180524   6.213   3.258  14.882 -1.0469  0.0390  1.0675
19703TIP3    H280525   6.364   3.244  14.877 -0.8371  2.4315 -0.5058
19704TIP3   OH280526   0.495   4.371  10.805 -0.4989 -0.8674  0.0821
19704TIP3    H180527   0.486   4.327  10.721 -1.5394 -0.3981 -0.0719
19704TIP3    H280528   0.480   4.464  10.785 -1.0733 -0.7887  0.8222
19705TIP3   OH280529   3.893   1.612  14.376 -0.4437 -0.4754 -0.3332
19705TIP3    H180530   3.876   1.584  14.467  0.5695  1.2145  0.3897
19705TIP3    H280531   3.905   1.530  14.328 -3.0437 -1.4912  0.6230
19706TIP3   OH280532   4.940   4.081   4.092  0.1882  0.2466  0.0183
19706TIP3    H180533   4.975   4.072   4.003 -1.1711  1.8711 -0.7055
19706TIP3    H280534   4.869   4.017   4.096  2.1076 -1.9185  0.9595
19707TIP3   OH280535   6.105   1.636   0.973 -0.5393  0.1315  0.3501
19707TIP3    H180536   6.011   1.620   0.969 -0.7291  0.7648  2.1150
19707TIP3    H280537   6.130   1.653   0.882 -2.4409  1.6773  0.0821
19708TIP3   OH280538   3.770   0.598  15.578  0.0234  0.3097 -0.5370
19708TIP3    H180539   3.774   0.692  15.562 -3.9335  0.2749 -2.3736
19708TIP3    H280540   3.692   0.586  15.632  2.1485 -1.6910  2.2526
19709TIP3   OH280541   1.501   5.413   0.784  0.1871  0.5276 -0.1387
19709TIP3    H180542   1.465   5.385   0.868  1.4040 -0.6859 -0.0149
19709TIP3    H280543   1.444   5.372   0.719  0.2210  0.1596  0.0655
19710TIP3   OH280544   6.757   5.398  16.641 -0.5931 -0.2102  0.0395
19710TIP3    H180545   6.786   5.380  16.731 -1.6146  0.7991  0.5673
19710TIP3    H280546   6.794   5.484  16.621 -1.8867  0.3727  0.1459
19711TIP3   OH280547   4.421   5.470   1.554  0.3145  0.2125  0.3131
19711TIP3    H180548   4.484   5.404   1.583  1.3716  1.3370  0.6285
19711TIP3    H280549   4.356   5.421   1.505  1.0021 -1.0899  0.6756
19712TIP3   OH280550   5.470   1.753  12.948  0.2145 -0.4463 -0.2653
19712TIP3    H180551   5.416   1.750  12.869 -0.0481 -0.6617 -0.0782
19712TIP3    H280552   5.532   1.681  12.937  0.5112 -0.1534 -0.5145
19713TIP3   OH280553   3.128   2.842  14.721 -0.3163 -0.0759  0.2055
19713TIP3    H180554   3.195   2.774  14.722 -1.5755 -1.3296  0.2880
19713TIP3    H280555   3.096   2.846  14.811 -0.5481  0.3259  0.1100
19714TIP3   OH280556   4.604   0.946  12.139 -0.1117 -0.3518 -0.0059
19714TIP3    H180557   4.698   0.935  12.122 -0.3616 -2.0150 -0.4784
19714TIP3    H280558   4.582   1.032  12.104  1.8377  1.3700  2.7868
19715TIP3   OH280559   1.645   2.819   2.882  0.1611 -0.0296 -0.9151
19715TIP3    H180560   1.641   2.773   2.798  3.0742 -1.0530 -0.5672
19715TIP3    H280561   1.568   2.790   2.930 -0.1436 -1.4768 -2.2380
19716TIP3   OH280562   2.267   6.065   0.357 -0.1553 -0.0968 -0.2043
19716TIP3    H180563   2.267   6.063   0.261  2.5014  0.5174 -0.2346
19716TIP3    H280564   2.258   6.157   0.379  2.7724  0.1409  0.0859
19717TIP3   OH280565   2.301   3.210  12.740 -0.0963 -0.6943  0.0458
19717TIP3    H180566   2.389   3.232  12.710 -0.3069  0.4984  0.3063
19717TIP3    H280567   2.267   3.291  12.778 -0.3354 -1.8280  2.3245
19718TIP3   OH280568   3.659   0.765  13.554 -0.0919 -0.0594  0.1020
19718TIP3    H180569   3.754   0.757  13.560  0.1131  1.5875 -0.7377
19718TIP3    H280570   3.637   0.832  13.619 -0.8291 -1.2427  1.1082
19719TIP3   OH280571   5.824   2.777   7.182 -0.0886  0.1041  0.3154
19719TIP3    H180572   5.892   2.739   7.126  0.0718  0.1094  0.5057
19719TIP3    H280573   5.818   2.716   7.256 -0.4531 -0.0196  0.1852
19720TIP3   OH280574   1.641   3.412   2.078 -0.0222 -0.6813 -0.0313
19720TIP3    H180575   1.723   3.434   2.120 -0.9644  0.0023  1.4812
19720TIP3    H280576   1.666   3.362   2.000  1.7890 -0.6961  0.5539
19721TIP3   OH280577   4.948   0.648   0.039 -0.1783 -0.0657 -0.7782
19721TIP3    H180578   4.971   0.581   0.105  0.9833 -1.6295 -2.7246
19721TIP3    H280579   5.005   0.722   0.059 -1.0951  0.1935  1.0660
19722TIP3   OH280580   2.951   0.877   5.227  0.4163  0.0800  0.0766
19722TIP3    H180581   3.014   0.843   5.163  0.8618 -1.3505  1.2375
19722TIP3    H280582   2.907   0.798   5.261  0.0190  0.8314  1.3463
19723TIP3   OH280583   4.391   3.028  14.457  0.3204  0.2328  0.2455
19723TIP3    H180584   4.409   3.064  14.544 -0.0790  1.8479 -0.3359
19723TIP3    H280585   4.327   3.088  14.419 -0.6081 -1.2784 -0.6125
19724TIP3   OH280586   5.729   4.366  10.680  0.0875  0.2585  0.1626
19724TIP3    H180587   5.786   4.303  10.637 -1.0821 -1.5553  1.2084
19724TIP3    H280588   5.775   4.389  10.761 -0.1133 -0.3000  0.4371
19725TIP3   OH280589   2.327   5.173   6.625  0.0943 -0.3375  0.1117
19725TIP3    H180590   2.402   5.231   6.609  0.4704 -0.7882  0.2273
19725TIP3    H280591   2.342   5.099   6.567 -0.8877  0.1286 -0.7377
19726TIP3   OH280592   3.075   6.769   3.255 -0.7229 -0.4755 -0.2727
19726TIP3    H180593   3.013   6.747   3.186 -0.3853 -1.5077 -0.2515
19726TIP3    H280594   3.076   6.865   3.256 -1.6761 -0.4497 -0.8382
19727TIP3   OH280595   5.737   1.711   0.499  0.1872  0.5179  0.1460
19727TIP3    H180596   5.799   1.700   0.571  0.1350  1.6585  0.3738
19727TIP3    H280597   5.790   1.701   0.420  0.6463  1.4263  0.3390
19728TIP3   OH280598   4.086   3.587  13.197  0.0214  0.7366  0.6678
19728TIP3    H180599   4.012   3.640  13.229 -0.2394  0.0593  1.1871
19728TIP3    H280600   4.140   3.572  13.275  0.2347  0.4528  0.4645
19729TIP3   OH280601   3.089   4.572   6.237  0.5466 -0.2455  0.2181
19729TIP3    H180602   3.032   4.496   6.242  1.9504 -1.3630 -0.3926
19729TIP3    H280603   3.081   4.614   6.322 -0.1843 -1.1187  0.5836
19730TIP3   OH280604   5.944   0.466  11.959  0.1112  0.1679 -0.5599
19730TIP3    H180605   5.872   0.433  12.013 -0.1028 -0.5029 -1.2572
19730TIP3    H280606   5.977   0.389  11.913 -0.1402  0.8659 -1.9206
19731TIP3   OH280607   6.437   4.295  14.145  0.5123  0.1016 -0.4500
19731TIP3    H180608   6.427   4.338  14.229  2.0610  1.5883 -0.9883
19731TIP3    H280609   6.502   4.348  14.098  0.8982 -1.6201 -1.9461
19732TIP3   OH280610   0.576   3.714  14.745  0.2307 -0.3357  0.1003
19732TIP3    H180611   0.578   3.715  14.841 -1.7777  1.0042  0.1664
19732TIP3    H280612   0.656   3.759  14.718  1.1165 -1.2753  1.1346
19733TIP3   OH280613   0.155   0.502   6.441  0.1322 -0.3319 -0.0001
19733TIP3    H180614   0.075   0.548   6.416 -0.9342 -0.7315  2.5861
19733TIP3    H280615   0.223   0.570   6.441 -0.2217  0.0563 -1.9110
19734TIP3   OH280616   6.126   6.381  14.929  0.1588  0.0245  0.8235
19734TIP3    H180617   6.098   6.445  14.995 -2.6286  0.7703 -0.9722
19734TIP3    H280618   6.196   6.426  14.881 -1.3742  1.5653 -0.0469
19735TIP3   OH280619   0.748   4.098   3.715 -0.3285  0.0632  0.2626
19735TIP3    H180620   0.770   4.005   3.717  0.2308  0.2076  2.2855
19735TIP3    H280621   0.657   4.101   3.745 -0.2633  0.1738  0.4537
19736TIP3   OH280622   3.714   1.212  13.643  0.0592  0.2220 -0.3852
19736TIP3    H180623   3.738   1.129  13.684 -0.9748  0.5405  0.8822
19736TIP3    H280624   3.792   1.266  13.651  0.7628 -0.6263 -1.2720
19737TIP3   OH280625   3.909   3.781  13.297  0.2093 -0.1644  0.0277
19737TIP3    H180626   3.972   3.852  13.283 -1.5285  1.6090  0.9882
19737TIP3    H280627   3.825   3.817  13.269 -0.6886 -1.8941  0.4221
19738TIP3   OH280628   1.058   0.330  15.992 -0.0404 -0.2135  0.2002
19738TIP3    H180629   1.131   0.288  15.947  0.4331  0.3514  0.4297
19738TIP3    H280630   0.984   0.272  15.978  0.5806 -1.0623  0.4142
19739TIP3   OH280631   4.899   3.692  11.949  0.3494 -0.2771  0.2596
19739TIP3    H180632   4.861   3.628  11.890 -0.2843 -0.8471  1.2727
19739TIP3    H280633   4.984   3.657  11.972  0.5656 -0.0903 -0.2509
19740TIP3   OH280634   6.669   5.370  17.183 -0.2642  0.2821 -0.5132
19740TIP3    H180635   6.713   5.403  17.262 -2.2086  1.0287  0.2748
19740TIP3    H280636   6.740   5.333  17.130  1.0595 -0.3114  1.6196
19741TIP3   OH280637   4.371   2.854  13.196  0.2219 -0.2967 -0.1131
19741TIP3    H180638   4.455   2.850  13.150  1.1894  1.7838  1.4152
19741TIP3    H280639   4.393   2.878  13.286 -1.8848 -1.3326  0.7161
19742TIP3   OH280640   3.420   0.492  10.500 -0.3339  0.1266 -0.4532
19742TIP3    H180641   3.479   0.426  10.462 -0.5418  0.2470 -0.9899
19742TIP3    H280642   3.476   0.568  10.515 -0.1989 -0.0030 -0.2816
19743TIP3   OH280643   2.208   4.945  16.413  0.4883  0.4746  0.6278
19743TIP3    H180644   2.273   4.886  16.375 -0.4452  0.6827 -1.3889
19743TIP3    H280645   2.221   5.028  16.367 -0.7493  0.7064  0.6825
19744TIP3   OH280646   6.240   2.902  15.461  0.2635 -0.3691  0.3523
19744TIP3    H180647   6.185   2.933  15.389  0.1262  1.0273  1.0484
19744TIP3    H280648   6.179   2.857  15.519 -0.4055  2.3019  1.7750
19745TIP3   OH280649   2.081   2.253   5.699 -0.2450 -0.0890  0.1769
19745TIP3    H180650   2.012   2.238   5.634 -0.4082 -1.1287  0.5793
19745TIP3    H280651   2.111   2.166   5.722  0.3654  0.3157  0.9176
19746TIP3   OH280652   6.264   0.293  11.897  0.1939 -0.2401 -0.6566
19746TIP3    H180653   6.174   0.266  11.911 -0.2481  0.5061 -1.9948
19746TIP3    H280654   6.284   0.265  11.807  0.1513  2.6943 -1.6145
19747TIP3   OH280655   5.597   0.801  16.735 -0.2474 -0.3304  0.0756
19747TIP3    H180656   5.649   0.822  16.813  0.9501  0.1783 -0.8402
19747TIP3    H280657   5.602   0.705  16.729  0.0706 -0.3330  0.3419
19748TIP3   OH280658   4.409   2.980  14.099 -0.1206 -0.2265 -0.6186
19748TIP3    H180659   4.321   2.945  14.084 -0.4062 -0.1648  0.7938
19748TIP3    H280660   4.440   2.932  14.176  0.3078  1.1307  0.0627
19749TIP3   OH280661   4.083   1.532   3.322  0.2818  0.0621 -0.1745
19749TIP3    H180662   4.119   1.601   3.378  1.0876  1.5906 -2.5361
19749TIP3    H280663   4.104   1.559   3.233 -0.5344 -2.5989 -1.2248
19750TIP3   OH280664   4.905   1.182  14.656 -0.8205 -0.3443 -0.2461
19750TIP3    H180665   4.990   1.213  14.688  0.1939 -1.1182 -2.1063
19750TIP3    H280666   4.898   1.093  14.690 -0.6470 -0.4655 -0.5268
19751TIP3   OH280667   2.502   3.215  15.597 -0.3507  0.2504  0.7317
19751TIP3    H180668   2.534   3.299  15.565 -1.6474  0.4530 -0.0720
19751TIP3    H280669   2.438   3.238  15.665 -1.4722 -0.0570 -0.2165
19752TIP3   OH280670   6.574   0.899   1.119 -0.1300  0.2173 -0.0798
19752TIP3    H180671   6.587   0.855   1.035  0.0506 -1.3684  0.7525
19752TIP3    H280672   6.495   0.953   1.106 -1.0142 -1.2136 -0.7955
19753TIP3   OH280673   2.818   4.144   3.511  0.2710 -0.6134 -0.7221
19753TIP3    H180674   2.912   4.129   3.513  0.3883  0.2858  0.7023
19753TIP3    H280675   2.789   4.128   3.601 -0.4948  1.8289 -0.5122
19754TIP3   OH280676   0.287   2.912   4.893  0.2889 -0.2375 -0.4113
19754TIP3    H180677   0.347   2.925   4.820  0.4311 -0.4182 -0.3259
19754TIP3    H280678   0.200   2.911   4.853  0.2779  0.8458 -0.4456
19755TIP3   OH280679   0.652   6.720   5.889 -0.7139  0.0212 -0.1756
19755TIP3    H180680   0.625   6.745   5.977  0.7963  0.1678  0.2670
19755TIP3    H280681   0.704   6.640   5.902 -0.3768  0.1127 -0.9231
19756TIP3   OH280682   4.521   4.190   4.777 -0.1086  0.3253  0.0961
19756TIP3    H180683   4.613   4.208   4.796  0.2803  0.4646 -1.8544
19756TIP3    H280684   4.494   4.129   4.845  1.0135  1.4124  1.5486
19757TIP3   OH280685   0.495   1.029   5.118 -0.0945 -0.4293  0.1997
19757TIP3    H180686   0.456   1.104   5.163  1.2839  0.5942 -0.2730
19757TIP3    H280687   0.422   0.987   5.073 -0.7516  1.0935 -0.1694
19758TIP3   OH280688   1.823   4.295  15.609  0.1177  0.9111  0.5178
19758TIP3    H180689   1.842   4.204  15.630 -0.2904  0.5689 -0.5842
19758TIP3    H280690   1.791   4.333  15.691  1.3872  0.3658  1.2672
19759TIP3   OH280691   1.624   4.154  16.476  0.2451 -0.3486 -0.1528
19759TIP3    H180692   1.556   4.110  16.527 -0.4529  2.0315  1.0307
19759TIP3    H280693   1.587   4.162  16.388 -1.8290  2.5524  0.9025
19760TIP3   OH280694   0.661   0.182   0.990  0.1321 -0.4444  0.3843
19760TIP3    H180695   0.576   0.206   0.953  0.4199  1.9871  1.2038
19760TIP3    H280696   0.724   0.201   0.919  0.2363  0.1155  0.6231
19761TIP3   OH280697   2.252   3.492   5.832 -0.0378 -0.1257 -0.0949
19761TIP3    H180698   2.231   3.572   5.786 -0.9155 -0.9783 -1.2088
19761TIP3    H280699   2.178   3.478   5.891  1.1413  1.0319  1.7020
19762TIP3   OH280700   2.895   5.255  15.736  0.1010 -0.6596 -0.4164
19762TIP3    H180701   2.828   5.273  15.802 -0.0115  0.0806 -0.7246
19762TIP3    H280702   2.873   5.168  15.703 -0.8861 -0.3212 -0.7075
19763TIP3   OH280703   3.231   6.644  13.392 -0.1758  1.0487 -0.2928
19763TIP3    H180704   3.283   6.626  13.470  0.0694  0.1065 -0.6660
19763TIP3    H280705   3.295   6.654  13.322 -0.5568 -2.8032 -1.2975
19764TIP3   OH280706   0.655   5.424  10.462 -0.5342  0.1035 -0.2294
19764TIP3    H180707   0.669   5.478  10.384  1.8867  0.5767  0.4887
19764TIP3    H280708   0.598   5.477  10.518 -0.6469  0.6164 -0.8252
19765TIP3   OH280709   6.527   6.719  13.339  0.1879 -0.3427 -0.0800
19765TIP3    H180710   6.596   6.654  13.356 -0.2018 -0.5507  0.7426
19765TIP3    H280711   6.535   6.738  13.246  0.7931 -1.0169 -0.1758
19766TIP3   OH280712   1.332   0.150   4.126  0.0219 -0.4440 -0.2357
19766TIP3    H180713   1.296   0.062   4.140 -3.2384  0.5383 -1.8567
19766TIP3    H280714   1.394   0.140   4.055 -0.2729 -1.4678 -0.3592
19767TIP3   OH280715   0.124   3.040  10.514 -0.6056 -0.0609  0.4687
19767TIP3    H180716   0.070   3.105  10.559 -1.2184 -0.7787  0.7737
19767TIP3    H280717   0.073   2.959  10.518 -0.5556 -0.2105 -1.2677
19768TIP3   OH280718   3.752   3.782  14.325  0.2029  0.0512 -0.8232
19768TIP3    H180719   3.659   3.769  14.305  0.3504 -0.6497 -1.0773
19768TIP3    H280720   3.757   3.872  14.356 -0.8121 -0.3887  0.6829
19769TIP3   OH280721   2.691   0.026   0.165 -0.4289  0.1985  0.1767
19769TIP3    H180722   2.661   0.094   0.225 -0.8692 -0.3316  0.5590
19769TIP3    H280723   2.611  -0.008   0.125 -0.1388  0.5616 -0.7301
19770TIP3   OH280724   1.491   2.010  16.340  0.1060 -0.3954 -0.5530
19770TIP3    H180725   1.402   1.975  16.339 -0.4578  0.9786 -0.1008
19770TIP3    H280726   1.530   1.976  16.420 -0.2235 -0.4926 -0.4339
19771TIP3   OH280727   4.166   1.937   5.428  0.3681  0.2708  0.2359
19771TIP3    H180728   4.083   1.929   5.381  0.1029  1.0649  0.5561
19771TIP3    H280729   4.162   1.871   5.496  0.5551 -0.5778 -0.5659
19772TIP3   OH280730   5.152   2.894   6.167 -0.1255  0.3852  0.2265
19772TIP3    H180731   5.122   2.828   6.229  2.8325 -0.8110  0.4553
19772TIP3    H280732   5.139   2.855   6.081 -0.1598  0.2834  0.2791
19773TIP3   OH280733   4.524   1.872   1.128  0.8037 -0.3112  0.2186
19773TIP3    H180734   4.490   1.808   1.190  0.9465  0.4878  1.1442
19773TIP3    H280735   4.545   1.948   1.182  0.3779  0.6137 -0.8992
19774TIP3   OH280736   6.371   3.284   3.938 -0.1619  0.1490 -0.0475
19774TIP3    H180737   6.312   3.345   3.894  1.8502  1.1452 -1.4662
19774TIP3    H280738   6.366   3.204   3.886 -1.0738 -0.1515  0.4853
19775TIP3   OH280739   0.874   6.400  12.668  0.2734  0.2004 -0.1450
19775TIP3    H180740   0.911   6.471  12.720  2.3083 -1.0053  0.1209
19775TIP3    H280741   0.870   6.433  12.579  1.9842  0.3870 -0.1653
19776TIP3   OH280742   0.796   0.022  13.006 -0.2584  0.1121  0.5464
19776TIP3    H180743   0.704   0.017  13.030 -0.7303  0.3167 -1.1660
19776TIP3    H280744   0.814  -0.062  12.963  0.1713  0.3367  0.2838
19777TIP3   OH280745   5.806   5.292  15.546 -0.1152  0.5894  0.0286
19777TIP3    H180746   5.890   5.289  15.501 -0.7500  1.5157 -1.2590
19777TIP3    H280747   5.798   5.206  15.588  1.0894  0.1930 -0.5305
19778TIP3   OH280748   6.676   0.138   0.756  0.2476  0.1220 -0.0901
19778TIP3    H180749   6.769   0.135   0.735  0.0374 -1.0699 -0.9157
19778TIP3    H280750   6.669   0.200   0.829  1.9224 -1.2981  1.3074
19779TIP3   OH280751   1.899   5.227  15.376 -0.2668 -0.3253 -0.4201
19779TIP3    H180752   1.868   5.253  15.289  2.0858  1.2651 -0.8476
19779TIP3    H280753   1.891   5.306  15.429 -0.0832 -0.8206  0.3525
19780TIP3   OH280754   0.899   3.023  11.658  0.2230 -0.3182 -0.1043
19780TIP3    H180755   0.805   3.042  11.652  0.7832  2.5381 -0.4134
19780TIP3    H280756   0.905   2.953  11.723 -2.2494 -1.7276 -1.3197
19781TIP3   OH280757   5.890   3.386   3.512  0.0091  0.0823 -0.1519
19781TIP3    H180758   5.865   3.363   3.423 -1.0485  2.9136 -0.6582
19781TIP3    H280759   5.815   3.361   3.565 -0.7146  1.3272 -0.5531
19782TIP3   OH280760   1.087   6.710   1.719  0.1072  0.1058 -0.3083
19782TIP3    H180761   1.024   6.778   1.743 -1.2306 -0.2751 -2.5369
19782TIP3    H280762   1.047   6.667   1.643  1.5608 -2.2732  0.2143
19783TIP3   OH280763   5.767   2.888   3.202  0.2434  0.0018  0.7735
19783TIP3    H180764   5.692   2.839   3.236 -0.0806  0.5338  0.8466
19783TIP3    H280765   5.748   2.900   3.109  0.8575 -0.9675  0.5263
19784TIP3   OH280766   1.302   2.844   4.670  0.2163 -0.3162 -0.7007
19784TIP3    H180767   1.260   2.930   4.662  0.0850 -0.0570  2.0659
19784TIP3    H280768   1.394   2.865   4.686  0.0324 -0.6347  0.8466
19785TIP3   OH280769   0.818   1.688  11.736 -0.3705  0.1385 -0.5154
19785TIP3    H180770   0.890   1.674  11.674  0.1812  1.0571 -0.0753
19785TIP3    H280771   0.827   1.779  11.765 -0.4017 -0.3842  1.2079
19786TIP3   OH280772   2.949   5.300   3.919 -0.4649 -0.5980 -0.0497
19786TIP3    H180773   3.039   5.270   3.928 -0.5653 -0.8281  0.2269
19786TIP3    H280774   2.918   5.260   3.838 -0.9604 -2.2218  0.8939
19787TIP3   OH280775   5.588   6.482  11.595 -0.9719  0.2005  0.2596
19787TIP3    H180776   5.672   6.525  11.583 -1.1754  0.2943 -0.9245
19787TIP3    H280777   5.603   6.418  11.665 -0.2555  1.0748  0.9134
19788TIP3   OH280778   3.560   1.251  16.556 -0.6943 -0.3769 -0.5380
19788TIP3    H180779   3.595   1.205  16.480 -0.0776  0.4810 -0.7729
19788TIP3    H280780   3.535   1.337  16.522  0.5487  0.3820  0.4430
19789TIP3   OH280781   0.200   6.297  10.889  0.6324  0.0467 -0.2862
19789TIP3    H180782   0.160   6.305  10.802 -2.7678 -1.6014  1.0539
19789TIP3    H280783   0.166   6.372  10.938 -0.0182 -0.7906  0.5570
19790TIP3   OH280784   0.885   0.304  14.903 -0.2999 -0.2643  0.4021
19790TIP3    H180785   0.840   0.355  14.835  1.1445 -0.4955 -0.7487
19790TIP3    H280786   0.884   0.214  14.870  1.6033 -0.1668  0.0273
19791TIP3   OH280787   3.893   0.696  10.051  0.9977 -0.0487  0.4868
19791TIP3    H180788   3.872   0.610  10.087 -1.2437  0.3763  0.2386
19791TIP3    H280789   3.811   0.746  10.056  2.0257  1.7807 -0.2018
19792TIP3   OH280790   2.372   2.929   1.347  0.4851 -0.8395  0.2014
19792TIP3    H180791   2.370   2.852   1.289  2.6771 -1.2810  0.6705
19792TIP3    H280792   2.392   2.893   1.434 -3.2237 -0.2412  1.4168
19793TIP3   OH280793   0.206   4.041   0.321  0.2839  0.7238 -0.8043
19793TIP3    H180794   0.225   4.036   0.415  0.3628 -1.6139 -0.9116
19793TIP3    H280795   0.114   4.064   0.316 -0.0048 -0.2848 -0.1429
19794TIP3   OH280796   5.156   2.397  11.766  0.1939  0.5580 -0.2931
19794TIP3    H180797   5.215   2.398  11.841  0.3919 -0.8668 -0.4207
19794TIP3    H280798   5.212   2.382  11.690 -0.1393  0.7692 -0.5818
19795TIP3   OH280799   6.358   5.446  17.008  0.0793  0.0593  0.1373
19795TIP3    H180800   6.296   5.420  16.940  0.0988  1.0243 -0.2595
19795TIP3    H280801   6.423   5.375  17.009 -0.0431 -0.0687 -0.6964
19796TIP3   OH280802   2.441   5.562  10.579 -0.0176 -0.0364 -0.3866
19796TIP3    H180803   2.534   5.543  10.580 -0.2450 -1.1417  0.0847
19796TIP3    H280804   2.403   5.492  10.525 -0.5843  0.3282 -0.4666
19797TIP3   OH280805   5.114   4.494   1.136  0.2454  0.4766  0.3458
19797TIP3    H180806   5.120   4.564   1.072  0.6780  1.0776  1.0368
19797TIP3    H280807   5.172   4.521   1.207  0.0937 -0.3775  0.8058
19798TIP3   OH280808   3.071   2.100  16.558  0.1057  0.3151 -0.0921
19798TIP3    H180809   3.038   2.100  16.648  0.2623  1.3043 -0.0325
19798TIP3    H280810   2.996   2.127  16.505  0.4757  1.3978 -0.0786
19799TIP3   OH280811   0.806   0.120  15.627  0.0895  0.0920 -0.0937
19799TIP3    H180812   0.719   0.154  15.608 -0.8831 -2.8409 -1.0288
19799TIP3    H280813   0.830   0.161  15.711 -0.5366  3.8722 -1.6752
19800TIP3   OH280814   2.393   0.018   5.050 -0.2839  0.1667 -0.3690
19800TIP3    H180815   2.454   0.089   5.071 -0.4379  0.4102 -0.7436
19800TIP3    H280816   2.442  -0.062   5.070 -0.1728  0.3800  0.2228
19801TIP3   OH280817   2.664   3.401  14.892  0.1333  0.0572 -0.0391
19801TIP3    H180818   2.760   3.398  14.895  0.0628 -2.1525  0.9994
19801TIP3    H280819   2.643   3.491  14.915  1.9212  0.0431  1.8300
19802TIP3   OH280820   5.298   1.282   2.807 -0.3664 -0.0224  0.4948
19802TIP3    H180821   5.222   1.292   2.750 -0.8922  0.9973  1.3529
19802TIP3    H280822   5.373   1.303   2.751 -0.6777 -1.3062 -0.4255
19803TIP3   OH280823   2.380   3.874  15.396  0.1970 -0.0207 -0.3029
19803TIP3    H180824   2.335   3.952  15.364 -0.3702 -0.1591  0.1340
19803TIP3    H280825   2.456   3.908  15.443 -0.3838  0.3011  0.4133
19804TIP3   OH280826   1.152   2.288   0.080  0.2033 -0.0581 -0.1454
19804TIP3    H180827   1.228   2.230   0.074  1.1516  1.1660 -0.2118
19804TIP3    H280828   1.080   2.237   0.045  1.0870 -1.1059 -0.4562
19805TIP3   OH280829   5.016   0.046   3.957 -0.1288  0.0411  0.1523
19805TIP3    H180830   5.085   0.039   3.890  0.0060  0.3269  0.2577
19805TIP3    H280831   5.029  -0.031   4.012 -1.4940 -1.2583 -1.3108
19806TIP3   OH280832   0.125   3.741   4.398  0.1291 -0.0419 -0.4807
19806TIP3    H180833   0.040   3.708   4.369 -0.0446 -0.6304  0.6922
19806TIP3    H280834   0.188   3.701   4.338  0.0229 -3.2616  1.4738
19807TIP3   OH280835   6.786   2.410   1.992 -0.0240  0.3888  0.4783
19807TIP3    H180836   6.821   2.487   2.036  0.2381 -0.6172  2.0922
19807TIP3    H280837   6.699   2.397   2.030 -0.5933  0.6242 -0.7121
19808TIP3   OH280838   3.503   6.177  11.032 -0.3381  0.3650  0.7850
19808TIP3    H180839   3.410   6.201  11.040 -0.6199 -0.3612 -0.2258
19808TIP3    H280840   3.521   6.125  11.110 -0.9948 -0.1424  0.6058
19809TIP3   OH280841   2.909   5.139   4.746  0.1573 -0.2883  0.4557
19809TIP3    H180842   2.847   5.083   4.700 -1.5509  1.4828  0.5292
19809TIP3    H280843   2.995   5.116   4.709 -0.9463 -0.2204 -2.2470
19810TIP3   OH280844   4.834   2.220  13.846 -0.3399  0.6876  0.3873
19810TIP3    H180845   4.834   2.296  13.906 -0.5576 -0.4942  1.9245
19810TIP3    H280846   4.745   2.186  13.852 -0.7848  1.4334 -1.7824
19811TIP3   OH280847   5.318   3.158  12.247 -0.2920  0.0385 -0.3594
19811TIP3    H180848   5.303   3.067  12.222 -2.7449  0.4373 -0.4683
19811TIP3    H280849   5.230   3.193  12.265  0.7965  1.7699  1.8397
19812TIP3   OH280850   0.767   0.403  14.501  0.8068  0.3732 -0.4626
19812TIP3    H180851   0.703   0.371  14.565  0.0386  2.2894 -0.2267
19812TIP3    H280852   0.775   0.332  14.438  1.6810 -1.6288  1.8137
19813TIP3   OH280853   1.391   5.961  17.186  0.1856  0.3925  0.2433
19813TIP3    H180854   1.301   5.992  17.196 -0.6051 -1.6183 -0.5006
19813TIP3    H280855   1.417   5.934  17.274 -1.0028 -1.7962 -0.0436
19814TIP3   OH280856   4.224   0.892   0.590 -0.6093  0.0509  0.8891
19814TIP3    H180857   4.130   0.878   0.579 -0.4000  0.0662 -1.0324
19814TIP3    H280858   4.263   0.858   0.509  1.0784 -0.3486  1.8425
19815TIP3   OH280859   6.185   5.696   4.105 -0.5958 -0.5235  0.4218
19815TIP3    H180860   6.219   5.608   4.090 -1.7842 -1.1015  1.0424
19815TIP3    H280861   6.262   5.753   4.098 -0.2544 -1.2643 -2.8415
19816TIP3   OH280862   3.829   6.120   5.458 -0.4183 -0.1732 -0.2061
19816TIP3    H180863   3.878   6.147   5.536  0.6056  1.7145 -1.4418
19816TIP3    H280864   3.809   6.028   5.472  2.8652 -0.8226  0.6892
19817TIP3   OH280865   3.419   1.471  10.505 -0.5911  0.6158  0.7499
19817TIP3    H180866   3.424   1.452  10.411  0.6468  0.6098  0.8061
19817TIP3    H280867   3.496   1.429  10.542  0.8234  3.5111  1.2678
19818TIP3   OH280868   5.476   4.935  14.948  0.3384  0.0392 -0.1201
19818TIP3    H180869   5.489   4.928  14.854 -0.5939  1.4136 -0.3724
19818TIP3    H280870   5.446   4.848  14.975  1.1848 -0.5301 -0.9881
19819TIP3   OH280871   4.792   3.198   5.931  0.2281 -0.1847 -0.2187
19819TIP3    H180872   4.822   3.273   5.879  0.6859 -0.3114 -0.1377
19819TIP3    H280873   4.766   3.236   6.015 -1.2643  0.1330 -0.7972
19820TIP3   OH280874   5.140   3.819  12.063 -0.2901 -0.4485  0.1093
19820TIP3    H180875   5.182   3.889  12.112 -1.0313 -1.0414  1.6161
19820TIP3    H280876   5.046   3.839  12.069 -0.4428 -1.0580 -0.2471
19821TIP3   OH280877   1.646   0.167  15.381 -0.4390  0.3199  0.1626
19821TIP3    H180878   1.642   0.123  15.466 -2.3537  2.8687  1.4634
19821TIP3    H280879   1.702   0.244  15.396 -0.9093  0.8636 -0.8242
19822TIP3   OH280880   0.599   5.559   4.422 -0.1072 -0.1778  0.8080
19822TIP3    H180881   0.686   5.598   4.437 -0.4583  0.2038  1.9257
19822TIP3    H280882   0.605   5.521   4.335  1.0139  0.3284  0.6460
19823TIP3   OH280883   3.186   6.476  14.477  0.9320  0.0738  0.0328
19823TIP3    H180884   3.238   6.401  14.505  0.2151 -0.2003  0.6541
19823TIP3    H280885   3.123   6.439  14.414 -0.6274 -0.2007  1.7148
19824TIP3   OH280886   3.028   6.037   4.850 -0.0898 -0.6403  0.7416
19824TIP3    H180887   3.095   5.972   4.871  1.9137  0.6960 -1.2741
19824TIP3    H280888   3.000   6.016   4.761  1.1838  1.6743 -0.2558
19825TIP3   OH280889   2.312   4.288  11.818 -0.5984  0.1070  0.6392
19825TIP3    H180890   2.236   4.285  11.759 -0.1848 -0.8566  0.1287
19825TIP3    H280891   2.384   4.255  11.764  0.2363  1.2694  1.0389
19826TIP3   OH280892   4.951   5.988   3.879  0.0630 -0.3963  0.3640
19826TIP3    H180893   5.038   5.958   3.853  0.3516  0.5384  0.2008
19826TIP3    H280894   4.943   5.963   3.971  0.9836  0.5450  0.7145
19827TIP3   OH280895   3.417   0.667  16.534  0.2952 -0.3230  0.3720
19827TIP3    H180896   3.474   0.719  16.591  0.3842  0.4599 -0.4407
19827TIP3    H280897   3.341   0.722  16.519 -0.9269 -1.5384  1.8260
19828TIP3   OH280898   3.339   2.047  16.230 -0.0342  0.1410 -0.1566
19828TIP3    H180899   3.345   2.053  16.135 -0.4583 -0.7699 -0.2490
19828TIP3    H280900   3.347   1.954  16.249 -1.7581  0.1213  0.5653
19829TIP3   OH280901   4.334   2.314   0.462 -0.3063 -0.4393  0.0398
19829TIP3    H180902   4.386   2.234   0.452  0.9666  0.1115  1.9334
19829TIP3    H280903   4.272   2.294   0.532  0.8127  0.5745  1.3725
19830TIP3   OH280904   0.882   3.618   5.308 -0.5977 -0.6840  0.3047
19830TIP3    H180905   0.916   3.530   5.292  0.0130 -0.2138 -1.0623
19830TIP3    H280906   0.901   3.634   5.401  1.3084 -1.1369  0.0191
19831TIP3   OH280907   6.467   5.117  13.851 -0.7086  0.1999  0.3316
19831TIP3    H180908   6.405   5.182  13.821 -0.3876 -0.2008 -1.2117
19831TIP3    H280909   6.455   5.043  13.792  0.5698 -0.2471  0.6208
19832TIP3   OH280910   2.721   2.590   3.467  0.4426 -0.0821 -0.4541
19832TIP3    H180911   2.748   2.564   3.379  2.8407 -0.5272  0.3996
19832TIP3    H280912   2.634   2.552   3.477  0.4876 -0.7362 -2.3118
19833TIP3   OH280913   1.524   4.699  16.527 -0.1549 -0.6158 -0.1011
19833TIP3    H180914   1.552   4.629  16.468 -0.1992 -1.1853  0.5533
19833TIP3    H280915   1.439   4.671  16.559 -0.4044 -0.0141 -0.2316
19834TIP3   OH280916   3.520   5.074  10.625 -0.1090  0.4767  0.3045
19834TIP3    H180917   3.446   5.058  10.566 -0.9118  0.0017  1.4063
19834TIP3    H280918   3.502   5.161  10.662 -1.3534 -0.5596  2.2721
19835TIP3   OH280919   0.940   3.536   2.386 -0.2066  0.0795 -0.2763
19835TIP3    H180920   0.900   3.549   2.472  1.0729 -2.3772  0.7460
19835TIP3    H280921   1.022   3.584   2.390  0.1492 -0.5645  0.0971
19836TIP3   OH280922   5.761   2.760  14.618  0.0339  0.3358  0.6872
19836TIP3    H180923   5.716   2.821  14.559  0.8004  0.8538  0.6427
19836TIP3    H280924   5.763   2.805  14.702  0.4624  0.3028  0.6939
19837TIP3   OH280925   5.331   5.397  16.473  0.3088 -0.3594 -0.3923
19837TIP3    H180926   5.426   5.397  16.460  0.5701 -2.1610  1.2815
19837TIP3    H280927   5.312   5.482  16.511  1.4275 -0.4246  0.3345
19838TIP3   OH280928   2.696   1.379   5.790 -0.0362  0.1101 -0.3824
19838TIP3    H180929   2.751   1.445   5.833 -1.2377 -0.8653  2.8597
19838TIP3    H280930   2.758   1.318   5.751  1.1905  0.1700  1.3979
19839TIP3   OH280931   2.939   1.374  16.698 -0.1456 -0.5655  0.0412
19839TIP3    H180932   2.898   1.443  16.645 -0.2992  0.1488  1.0903
19839TIP3    H280933   3.023   1.411  16.725  0.5761 -1.4868 -0.9104
19840TIP3   OH280934   1.065   2.423   1.640 -0.5355  0.3796 -0.3844
19840TIP3    H180935   1.119   2.399   1.564  1.9840 -2.4300  2.1156
19840TIP3    H280936   0.993   2.359   1.639 -0.9524  0.8539 -0.8442
19841TIP3   OH280937   5.294   3.979   5.898  0.0012 -0.0549  0.4519
19841TIP3    H180938   5.362   3.967   5.964 -0.1632 -0.1228  0.6098
19841TIP3    H280939   5.249   4.060   5.924  0.0495  0.0152  0.3216
19842TIP3   OH280940   1.337   3.286  13.635 -0.3758 -0.0970 -0.0951
19842TIP3    H180941   1.384   3.353  13.585  1.4008 -1.1877  0.0613
19842TIP3    H280942   1.276   3.336  13.690  0.8606  1.4026 -0.0295
19843TIP3   OH280943   2.043   1.553  16.617 -0.1259 -0.0896  0.3825
19843TIP3    H180944   2.106   1.600  16.562 -1.0880  0.4325 -0.3007
19843TIP3    H280945   1.984   1.621  16.649 -1.1818 -0.7527 -0.1437
19844TIP3   OH280946   6.707   0.323  14.684  0.4208  0.0090  0.2698
19844TIP3    H180947   6.617   0.318  14.718 -0.3586  1.9889 -1.4346
19844TIP3    H280948   6.756   0.259  14.737 -2.3350 -2.4122  0.0396
19845TIP3   OH280949   3.848   3.245  15.411 -0.3472 -0.2264 -0.1931
19845TIP3    H180950   3.875   3.205  15.328  1.2974 -1.5474  0.9232
19845TIP3    H280951   3.931   3.259  15.457 -1.3890 -1.9925  2.3017
19846TIP3   OH280952   4.906   0.756   5.514 -0.0630  0.3343 -0.3873
19846TIP3    H180953   4.949   0.687   5.464  0.7376  1.0867 -0.7448
19846TIP3    H280954   4.906   0.832   5.456 -1.4930  0.4786 -0.2282
19847TIP3   OH280955   1.210   1.194  12.677 -0.0124 -0.0203 -0.2476
19847TIP3    H180956   1.129   1.158  12.642  0.5833  0.4740 -2.2104
19847TIP3    H280957   1.264   1.118  12.699 -0.0470 -0.3461 -1.2814
19848TIP3   OH280958   0.456   1.807   0.642 -0.0202 -0.2227  0.3943
19848TIP3    H180959   0.433   1.863   0.568  1.8011  0.8256  0.5929
19848TIP3    H280960   0.503   1.734   0.603  1.3373  0.5589  0.5445
19849TIP3   OH280961   4.896   2.343  14.077 -0.2583  0.0917 -0.2109
19849TIP3    H180962   4.986   2.373  14.084 -0.5402  1.1406 -0.9062
19849TIP3    H280963   4.893   2.262  14.127  0.7170  0.8160  1.0539
19850TIP3   OH280964   2.825   3.023   0.423  0.2134 -0.0814  0.3106
19850TIP3    H180965   2.773   2.969   0.363  0.9447 -1.7766  1.1690
19850TIP3    H280966   2.858   2.961   0.488  3.2452  0.9456 -0.1628
19851TIP3   OH280967   5.214   5.333  11.395  0.0543 -0.4415  0.2259
19851TIP3    H180968   5.236   5.241  11.383 -0.2223 -0.4712 -0.0831
19851TIP3    H280969   5.280   5.380  11.343  0.2827 -0.4565  0.4991
19852TIP3   OH280970   4.495   3.962   4.976 -0.3393 -0.1631  0.1909
19852TIP3    H180971   4.537   3.880   4.951  0.0182 -0.0208  0.3277
19852TIP3    H280972   4.404   3.938   4.995  0.0204 -0.7093  1.2577
19853TIP3   OH280973   1.208   5.408  10.579  0.4546 -0.0163 -0.4041
19853TIP3    H180974   1.279   5.468  10.558 -0.0221  0.6223 -0.2330
19853TIP3    H280975   1.162   5.394  10.496  0.4672 -0.0132 -0.4119
19854TIP3   OH280976   2.224   1.970   0.011  0.0434 -0.4321 -0.2387
19854TIP3    H180977   2.213   1.878  -0.015  2.1767 -0.5662 -0.7461
19854TIP3    H280978   2.238   1.965   0.106 -1.8778 -0.4480  0.0498
19855TIP3   OH280979   3.627   5.071  14.506 -0.5835 -0.3695  0.0299
19855TIP3    H180980   3.575   5.103  14.579 -0.7799 -1.1149  0.2223
19855TIP3    H280981   3.564   5.025  14.451 -0.3358 -0.2796 -0.3311
19856TIP3   OH280982   0.609   5.402  16.115 -0.4280  0.3336 -0.1285
19856TIP3    H180983   0.526   5.358  16.100  0.4822 -1.6877  0.6281
19856TIP3    H280984   0.585   5.484  16.159 -2.0282 -0.1433 -0.0981
19857TIP3   OH280985   3.101   6.434   5.323 -0.1879  0.4693 -0.1901
19857TIP3    H180986   3.044   6.480   5.262 -0.6417 -0.8345 -0.7756
19857TIP3    H280987   3.078   6.468   5.409 -0.8725  0.9602 -0.5647
19858TIP3   OH280988   2.896   4.191  14.299 -0.3219  0.2651  0.1476
19858TIP3    H180989   2.898   4.125  14.368  1.1462 -0.0449 -0.1776
19858TIP3    H280990   2.934   4.269  14.340  2.0211 -0.3554 -0.7141
19859TIP3   OH280991   5.939   3.182   3.223  0.4992  0.1316  0.9615
19859TIP3    H180992   5.991   3.176   3.304  2.4873 -2.6937 -0.4256
19859TIP3    H280993   5.958   3.100   3.177 -1.8800  0.9701 -1.6301
19860TIP3   OH280994   5.321   1.274   4.042  0.0010  0.5163 -0.0179
19860TIP3    H180995   5.326   1.357   4.088 -0.0340 -0.1357  1.1935
19860TIP3    H280996   5.405   1.231   4.061 -0.4124 -0.1767  0.2742
19861TIP3   OH280997   5.647   6.575   2.774  0.4074 -0.1122 -0.2546
19861TIP3    H180998   5.637   6.481   2.762  1.0387  0.0571 -2.4149
19861TIP3    H280999   5.557   6.608   2.779  0.1681 -0.7063 -0.5416
19862TIP3   OH281000   2.544   2.189  17.179  0.2570 -0.3546 -0.2918
19862TIP3    H181001   2.462   2.208  17.134 -0.4183  0.6482  1.3313
19862TIP3    H281002   2.580   2.275  17.200 -0.5197 -0.7840  3.0121
19863TIP3   OH281003   3.365   0.210  13.506  0.0484  1.2103  0.5181
19863TIP3    H181004   3.364   0.301  13.537 -0.3837  1.6789 -0.8287
19863TIP3    H281005   3.272   0.189  13.494 -0.0089 -0.2755  3.2494
19864TIP3   OH281006   5.177   3.255  11.769 -0.3736  0.0705 -0.4326
19864TIP3    H181007   5.266   3.246  11.737  0.4697  1.1493  1.4932
19864TIP3    H281008   5.143   3.331  11.722  0.7487  1.4620  0.9443
19865TIP3   OH281009   3.032   3.594  11.354 -0.0419 -0.2674  0.0788
19865TIP3    H181010   2.949   3.609  11.309 -0.5356 -1.1981  0.6518
19865TIP3    H281011   3.078   3.532  11.297 -0.5264 -1.1854  0.6723
19866TIP3   OH281012   5.507   0.403  12.297  0.0898 -0.2301 -0.7098
19866TIP3    H181013   5.593   0.403  12.255 -0.9921 -0.3879 -2.9731
19866TIP3    H281014   5.449   0.361  12.234 -1.9162  1.0299  0.2441
19867TIP3   OH281015   5.615   1.017  15.219 -0.4747  0.6984  0.4235
19867TIP3    H181016   5.692   1.070  15.197 -1.7245  2.3547 -0.1247
19867TIP3    H281017   5.643   0.927  15.203  0.8904  1.3706 -1.1992
19868TIP3   OH281018   2.842   3.334   0.482  0.8872 -0.0214  0.6912
19868TIP3    H181019   2.920   3.369   0.437  1.0779 -0.9707  0.2754
19868TIP3    H281020   2.846   3.240   0.467 -1.3994  0.0962 -1.0501
19869TIP3   OH281021   6.489   1.095  14.880 -0.3343  0.2973 -0.4855
19869TIP3    H181022   6.565   1.148  14.903  0.7002 -1.1651 -0.5018
19869TIP3    H281023   6.419   1.159  14.868  0.7068  1.6111  0.2168
19870TIP3   OH281024   6.217   4.311   3.532  0.5335 -0.3981  0.0754
19870TIP3    H181025   6.204   4.349   3.445  0.4868 -0.3949  0.0835
19870TIP3    H281026   6.263   4.229   3.515  0.3037 -0.5192  0.0250
19871TIP3   OH281027   2.166   6.767   0.520 -0.6690 -0.4205  0.1201
19871TIP3    H181028   2.133   6.720   0.443 -2.1659 -0.3990  0.7386
19871TIP3    H281029   2.172   6.858   0.491 -2.7626 -0.1443  0.4898
19872TIP3   OH281030   2.185   3.771  13.439 -0.0617  0.1233 -0.2170
19872TIP3    H181031   2.135   3.845  13.474 -0.1151  0.5882 -1.2556
19872TIP3    H281032   2.149   3.695  13.484  1.8668  0.9916  2.9181
19873TIP3   OH281033   0.116   1.833   4.134  0.8981  0.1184  0.9302
19873TIP3    H181034   0.085   1.908   4.184  0.9031  0.6603  0.1211
19873TIP3    H281035   0.202   1.859   4.102  0.7514 -0.0958  0.3520
19874TIP3   OH281036   3.986   3.443  14.721 -0.3465 -0.3201 -0.2627
19874TIP3    H181037   3.999   3.530  14.757 -2.1663 -0.4250  0.7413
19874TIP3    H281038   3.987   3.385  14.797  1.7847 -1.3026 -1.0138
19875TIP3   OH281039   2.111   6.329  11.490 -0.1771 -0.1790  0.4675
19875TIP3    H181040   2.103   6.415  11.449  1.8533 -0.0747  0.2465
19875TIP3    H281041   2.153   6.274  11.424 -1.1341 -1.2657  0.7348
19876TIP3   OH281042   1.824   4.658  12.942  0.5495  0.1093  0.1545
19876TIP3    H181043   1.907   4.702  12.959 -0.2181  1.4630  0.4426
19876TIP3    H281044   1.776   4.666  13.024 -0.3561  0.3924 -0.4065
19877TIP3   OH281045   5.482   1.672   2.039  0.3072 -0.1283  0.1237
19877TIP3    H181046   5.462   1.596   1.985  0.5285  0.1055 -0.2934
19877TIP3    H281047   5.525   1.733   1.979  1.0382 -0.0820  0.6848
19878TIP3   OH281048   4.506   3.920  10.995 -0.4421  0.2975  0.1439
19878TIP3    H181049   4.515   4.011  10.970 -0.9190  0.3345  0.1131
19878TIP3    H281050   4.584   3.902  11.048  0.0779  0.4860 -0.5508
19879TIP3   OH281051   2.673   1.891  13.263  0.1694  0.4890  0.0325
19879TIP3    H181052   2.641   1.874  13.175  1.6359  1.4906 -0.7269
19879TIP3    H281053   2.647   1.814  13.314 -2.6791  0.9153 -0.7041
19880TIP3   OH281054   5.621   0.448   0.086  0.2633 -0.6555  0.7970
19880TIP3    H181055   5.688   0.495   0.136 -0.0164 -0.4874  1.0086
19880TIP3    H281056   5.669   0.414   0.010  0.6749 -0.8716  1.1479
19881TIP3   OH281057   5.405   3.483  10.401  0.1639  0.6175  0.2347
19881TIP3    H181058   5.386   3.391  10.387  0.2862  0.7413 -0.8192
19881TIP3    H281059   5.499   3.486  10.416  0.2220  0.6067 -0.1143
19882TIP3   OH281060   4.898   5.404   1.327  0.5400 -0.3910  0.0496
19882TIP3    H181061   4.929   5.410   1.418 -0.4308 -1.9528  0.4924
19882TIP3    H281062   4.821   5.461   1.324 -0.7457 -2.0599  0.7956
19883TIP3   OH281063   6.554   4.943  13.478 -0.2983  0.9227  0.1903
19883TIP3    H181064   6.642   4.910  13.458 -0.2135  1.5732 -0.5558
19883TIP3    H281065   6.502   4.864  13.492 -0.0651  0.4473 -1.4277
19884TIP3   OH281066   4.499   3.913  13.748  0.4518 -0.1703 -0.0494
19884TIP3    H181067   4.551   3.992  13.729 -0.6613  0.9063  1.2743
19884TIP3    H281068   4.409   3.938  13.729  0.0988 -1.1636  0.2816
19885TIP3   OH281069   2.951   4.439   4.091  0.4697  0.6372  0.1133
19885TIP3    H181070   2.937   4.401   4.178 -3.1350 -0.5757 -0.9343
19885TIP3    H281071   2.976   4.365   4.036 -2.1254  0.5101 -0.9388
19886TIP3   OH281072   3.717   1.461   0.722  0.3104 -0.1739  0.4826
19886TIP3    H181073   3.675   1.402   0.660  1.9773 -0.7431 -0.1520
19886TIP3    H281074   3.661   1.461   0.799 -1.4170 -0.0175 -0.7529
19887TIP3   OH281075   0.425   2.531   3.084  0.0658  0.0506 -0.3548
19887TIP3    H181076   0.376   2.594   3.136 -0.3262 -0.9007  0.4404
19887TIP3    H281077   0.511   2.528   3.126  0.2524  0.4339 -0.7056
19888TIP3   OH281078   1.177   1.667  11.219 -0.4931 -0.4320 -0.0172
19888TIP3    H181079   1.239   1.595  11.210 -0.9551 -0.7132 -0.9896
19888TIP3    H281080   1.231   1.745  11.226 -0.0411 -0.5968 -1.5693
19889TIP3   OH281081   0.402   0.359  15.347  0.9327  0.1505 -0.1478
19889TIP3    H181082   0.437   0.316  15.425  1.8645  0.0151 -0.6331
19889TIP3    H281083   0.393   0.451  15.372  0.0644 -0.1149  0.5104
19890TIP3   OH281084   3.176   5.388   3.469  0.1874 -0.0332  0.0219
19890TIP3    H181085   3.114   5.319   3.448  0.1258 -0.3338  1.1844
19890TIP3    H281086   3.261   5.344   3.475  0.3954  0.2491 -0.7793
19891TIP3   OH281087   4.943   6.089   2.925 -0.1699  0.1057 -0.3161
19891TIP3    H181088   5.012   6.023   2.940 -0.7095 -0.6343 -1.0289
19891TIP3    H281089   4.870   6.058   2.978  0.0268  0.8697  0.4041
19892TIP3   OH281090   6.065   4.497  11.389  0.7333 -0.3350 -0.0598
19892TIP3    H181091   6.052   4.588  11.419  0.8278 -0.5942  0.7946
19892TIP3    H281092   6.149   4.471  11.427  1.4243 -0.3005 -1.5292
19893TIP3   OH281093   1.463   1.047  15.419 -0.1706 -0.1764 -0.3562
19893TIP3    H181094   1.477   1.119  15.480 -1.3066  0.2451 -0.5725
19893TIP3    H281095   1.551   1.017  15.395  0.2996 -1.3727  2.6762
19894TIP3   OH281096   0.659   0.096  17.222 -0.1133 -0.3442  0.0646
19894TIP3    H181097   0.707   0.023  17.183  1.4622  1.2577 -1.0635
19894TIP3    H281098   0.676   0.170  17.163 -0.0297  1.4365  2.2650
19895TIP3   OH281099   4.991   6.528  12.685  0.2550 -0.5152  0.3146
19895TIP3    H181100   5.086   6.517  12.684  0.2934 -0.2657 -1.8541
19895TIP3    H281101   4.964   6.495  12.770  2.1819 -1.4919  0.5836
19896TIP3   OH281102   2.942   4.246  13.485  0.3328  0.4566  0.1314
19896TIP3    H181103   2.899   4.289  13.559  1.4642 -0.3385  1.2817
19896TIP3    H281104   3.024   4.294  13.474  0.1611  0.5815 -0.6252
19897TIP3   OH281105   1.699   0.296   6.574 -0.1846 -0.1194 -0.0210
19897TIP3    H181106   1.614   0.267   6.541  0.1611  0.3954 -1.4060
19897TIP3    H281107   1.701   0.390   6.555  1.0543 -0.3017 -0.8235
19898TIP3   OH281108   5.185   3.414   2.839  0.2164 -0.2803  0.1356
19898TIP3    H181109   5.220   3.379   2.756  1.0959  0.7501  0.0601
19898TIP3    H281110   5.219   3.354   2.906  0.7472 -0.2600 -0.1083
19899TIP3   OH281111   0.301   4.104   3.196  0.8105  0.5103 -0.3022
19899TIP3    H181112   0.213   4.138   3.208  0.6276  0.2265 -0.7931
19899TIP3    H281113   0.353   4.146   3.264  0.1694  0.2163  0.3708
19900TIP3   OH281114   4.453   4.609  13.038 -0.0508  0.3878  0.0988
19900TIP3    H181115   4.493   4.522  13.047 -2.1315 -0.6698 -0.6483
19900TIP3    H281116   4.472   4.652  13.121  2.4473 -0.1305 -0.1370
19901TIP3   OH281117   1.186   6.399  13.327 -0.3546 -0.0058  0.0295
19901TIP3    H181118   1.109   6.453  13.315  0.6864  1.7336  1.0677
19901TIP3    H281119   1.244   6.451  13.383  1.2799 -1.5647 -0.1715
19902TIP3   OH281120   4.579   3.942   0.142  0.0199  0.5907 -0.8237
19902TIP3    H181121   4.534   4.012   0.190  0.2989 -0.0992  0.4777
19902TIP3    H281122   4.653   3.985   0.100  0.1725  1.0869 -0.0561
19903TIP3   OH281123   2.529   6.129   5.655  0.4903  0.2224 -0.4702
19903TIP3    H181124   2.526   6.220   5.625  1.2988  0.9343  1.5767
19903TIP3    H281125   2.438   6.104   5.666  0.3159  1.9654  2.3943
19904TIP3   OH281126   0.720   5.002   1.755 -0.4996  0.0827  0.3795
19904TIP3    H181127   0.723   5.045   1.669 -2.3488 -0.2862  0.1166
19904TIP3    H281128   0.695   5.072   1.815  0.1044  0.1782  0.5291
19905TIP3   OH281129   1.483   3.031  12.642  0.4842  0.3269  0.8325
19905TIP3    H181130   1.555   2.986  12.598 -0.1688  1.4057 -1.4026
19905TIP3    H281131   1.516   3.049  12.730  1.4843 -2.6716  1.1315
19906TIP3   OH281132   1.917   2.640   6.390  0.2451  0.0201  0.3934
19906TIP3    H181133   1.919   2.647   6.485  2.6289 -1.5642  0.4807
19906TIP3    H281134   1.855   2.569   6.372  0.0948  0.0553  0.7700
19907TIP3   OH281135   5.703   2.882   4.962  0.1449 -0.2985 -0.1647
19907TIP3    H181136   5.668   2.829   5.034 -0.2623 -0.7122 -0.6587
19907TIP3    H281137   5.651   2.855   4.886 -0.1209  0.8867 -0.3998
19908TIP3   OH281138   5.534   0.721  15.607  0.8045 -0.4961 -0.2571
19908TIP3    H181139   5.562   0.655  15.544 -1.4613 -2.1830  0.4558
19908TIP3    H281140   5.561   0.804  15.568  2.2444 -1.7143 -1.9322
19909TIP3   OH281141   5.106   3.732   2.277 -0.4895 -0.1601  0.3561
19909TIP3    H181142   5.150   3.650   2.252  0.0198  0.3360 -0.4250
19909TIP3    H281143   5.098   3.728   2.372  0.9576 -0.4157  0.4762
19910TIP3   OH281144   2.490   0.256   1.140 -0.3604  0.4052  0.2023
19910TIP3    H181145   2.398   0.283   1.136 -0.2833  0.4257 -2.0863
19910TIP3    H281146   2.505   0.234   1.232 -2.8256 -0.1782  0.4890
19911TIP3   OH281147   6.162   3.365  12.511 -0.3494  0.6320 -0.0827
19911TIP3    H181148   6.157   3.284  12.562  0.2490  0.8529  0.3326
19911TIP3    H281149   6.217   3.344  12.436 -1.3259  0.2741 -0.6999
19912TIP3   OH281150   5.227   3.447  14.516 -0.4195  0.2205  0.2313
19912TIP3    H181151   5.246   3.357  14.541  0.0109 -0.5460 -2.7433
19912TIP3    H281152   5.139   3.464  14.552 -2.5150 -2.9659 -3.0763
19913TIP3   OH281153   2.196   0.656  15.835 -0.0695  0.5581 -0.4836
19913TIP3    H181154   2.243   0.581  15.799 -2.3221 -1.2593  0.2578
19913TIP3    H281155   2.165   0.704  15.758  1.1715  0.6147 -0.9595
19914TIP3   OH281156   5.631   4.702  17.063 -0.0974 -0.0382  0.1956
19914TIP3    H181157   5.566   4.703  17.133  0.1907  0.8338  0.4501
19914TIP3    H281158   5.714   4.688  17.109 -0.0080 -0.3547 -0.0631
19915TIP3   OH281159   6.454   5.572   4.426  0.0427  0.2795  0.2787
19915TIP3    H181160   6.448   5.665   4.401 -3.3213  0.8770  2.9709
19915TIP3    H281161   6.392   5.528   4.369  1.3023 -0.2902 -0.6783
19916TIP3   OH281162   5.461   3.675  13.726  0.3137 -0.2125  0.0751
19916TIP3    H181163   5.475   3.716  13.641 -2.7980 -0.1203 -0.4458
19916TIP3    H281164   5.519   3.599  13.726  0.6612  0.0267 -1.9398
19917TIP3   OH281165   5.337   6.482  14.429 -0.5395  0.4325 -0.2925
19917TIP3    H181166   5.253   6.483  14.474  0.2826  0.1431  1.2894
19917TIP3    H281167   5.395   6.535  14.484  0.6823 -0.5373 -0.6145
19918TIP3   OH281168   3.605   3.639  14.798 -0.3391  0.0026 -0.2186
19918TIP3    H181169   3.658   3.582  14.853 -1.5203  0.0461  0.9982
19918TIP3    H281170   3.626   3.727  14.828  0.2379  0.1273 -0.9673
19919TIP3   OH281171   2.594   2.587   2.868 -0.4650 -0.1147  0.1694
19919TIP3    H181172   2.656   2.658   2.853 -0.9814  0.5798  1.2330
19919TIP3    H281173   2.565   2.561   2.781  1.3829 -0.5158 -0.3458
19920TIP3   OH281174   3.368   4.449  15.058 -0.2890  0.3259  0.1716
19920TIP3    H181175   3.454   4.457  15.098  0.5129 -2.5625 -0.8357
19920TIP3    H281176   3.386   4.425  14.967 -2.1314  1.3280 -0.4743
19921TIP3   OH281177   3.469   1.211   4.862  0.1339 -0.0099  0.6471
19921TIP3    H181178   3.394   1.156   4.842  0.1644  0.5686 -1.1629
19921TIP3    H281179   3.519   1.161   4.927 -2.3392  0.0869  2.7211
19922TIP3   OH281180   4.550   5.603   2.583 -0.3955 -0.4717  0.2244
19922TIP3    H181181   4.535   5.581   2.675  0.1087 -0.3363  0.3397
19922TIP3    H281182   4.624   5.663   2.584 -0.6250 -0.1726 -0.2395
19923TIP3   OH281183   6.686   3.409   0.557  0.4668 -1.2824  0.0342
19923TIP3    H181184   6.704   3.414   0.651  0.3417 -0.6558  0.0284
19923TIP3    H281185   6.639   3.490   0.538 -0.1954 -1.7717 -0.4208
19924TIP3   OH281186   4.270   3.454   2.925 -0.4858  0.9067 -0.1472
19924TIP3    H181187   4.356   3.416   2.911  0.4622  3.4254 -1.5736
19924TIP3    H281188   4.219   3.428   2.848 -0.3078  1.2088 -0.3707
19925TIP3   OH281189   2.672   1.164   4.910 -0.0487 -0.0872  0.3692
19925TIP3    H181190   2.633   1.218   4.979 -1.5378 -0.0040 -0.5211
19925TIP3    H281191   2.619   1.181   4.833  2.8112  1.3960 -1.3763
19926TIP3   OH281192   3.440   5.214   3.475 -0.3716 -0.1630 -0.1568
19926TIP3    H181193   3.510   5.211   3.410 -1.2030 -1.3098 -1.0135
19926TIP3    H281194   3.409   5.124   3.481 -2.7003  0.5538 -0.8242
19927TIP3   OH281195   1.296   1.321   0.703 -0.1459  0.1429 -0.3562
19927TIP3    H181196   1.210   1.302   0.666 -0.6333  1.5301  0.0727
19927TIP3    H281197   1.280   1.333   0.797  0.2241  2.2058 -0.5412
19928TIP3   OH281198   6.323   2.075   2.246  0.0201 -0.0419  0.1962
19928TIP3    H181199   6.403   2.128   2.254 -2.0604  3.2420  0.2934
19928TIP3    H281200   6.322   2.047   2.155  1.4106 -0.2899  0.2521
19929TIP3   OH281201   2.907   2.073   2.137 -0.1720 -0.3527 -0.1165
19929TIP3    H181202   2.935   2.057   2.227 -2.5667  1.0155  0.9208
19929TIP3    H281203   2.849   1.999   2.117 -0.5793 -0.0372 -0.1063
19930TIP3   OH281204   5.698   4.967   2.370  0.3150 -0.3491  0.5527
19930TIP3    H181205   5.609   4.937   2.388 -0.3403  2.4404  2.2572
19930TIP3    H281206   5.693   5.012   2.286 -0.2715  1.2104  1.4021
19931TIP3   OH281207   1.488   0.407   5.173 -0.6358 -0.7640 -0.5557
19931TIP3    H181208   1.513   0.469   5.105  0.5644  0.2998  0.8282
19931TIP3    H281209   1.393   0.402   5.168 -0.5566 -0.6401 -2.2521
19932TIP3   OH281210   2.654   2.534   0.151  0.2042 -0.0619 -0.3771
19932TIP3    H181211   2.702   2.542   0.234 -0.0577 -0.6838 -0.1624
19932TIP3    H281212   2.711   2.576   0.087 -0.3213  1.8844  0.3875
19933TIP3   OH281213   3.117   2.006  11.033  0.4017 -0.2129 -0.6423
19933TIP3    H181214   3.079   2.087  11.001  0.4652  0.1596  0.2093
19933TIP3    H281215   3.100   1.942  10.963 -3.9080 -0.6582  0.6172
19934TIP3   OH281216   5.234   0.770  15.584  0.4614  0.4056 -0.0951
19934TIP3    H181217   5.285   0.846  15.613  2.0731 -0.2936 -1.0288
19934TIP3    H281218   5.297   0.716  15.535 -1.5294  0.2999 -2.6680
19935TIP3   OH281219   5.580   6.745  15.644  0.0242  0.2123 -0.8546
19935TIP3    H181220   5.619   6.784  15.566 -1.0931  1.4121 -0.8211
19935TIP3    H281221   5.522   6.813  15.679 -0.8980 -0.9824 -0.0187
19936TIP3   OH281222   2.201   5.381  15.922  0.3950 -0.1473  0.4134
19936TIP3    H181223   2.165   5.293  15.931 -1.2912  0.5040  0.2353
19936TIP3    H281224   2.268   5.373  15.855 -0.8134 -0.9938 -0.7176
19937TIP3   OH281225   1.775   4.893   5.783 -0.3529  0.1984  0.2553
19937TIP3    H181226   1.786   4.979   5.822 -0.5340  1.0327 -1.4894
19937TIP3    H281227   1.680   4.878   5.783 -0.2799 -0.3024  1.1696
19938TIP3   OH281228   2.607   2.183   3.162 -0.3405 -0.1492 -0.4499
19938TIP3    H181229   2.641   2.099   3.191  1.6501  0.6769 -0.2917
19938TIP3    H281230   2.569   2.165   3.076  0.7445 -1.0692 -0.7478
19939TIP3   OH281231   5.056   2.116  13.038 -0.5591  0.1672  0.3603
19939TIP3    H181232   5.134   2.061  13.037 -0.7051 -0.0325 -1.8509
19939TIP3    H281233   5.086   2.200  13.072 -0.0109 -0.7786  2.2656
19940TIP3   OH281234   1.050   2.541  12.319 -0.1744 -0.2913 -0.4933
19940TIP3    H181235   1.106   2.467  12.343  0.7781  0.5966  0.0725
19940TIP3    H281236   0.961   2.509  12.329  0.2313 -0.9688  0.9840
19941TIP3   OH281237   2.326   3.811   0.835 -0.1628 -0.6114 -0.4192
19941TIP3    H181238   2.407   3.808   0.784 -0.3227  0.7864 -0.7880
19941TIP3    H281239   2.277   3.734   0.807 -0.0606 -0.0889 -2.0702
19942TIP3   OH281240   0.180   3.757  16.051  0.5560 -0.2784 -0.0195
19942TIP3    H181241   0.177   3.853  16.043  1.6314 -0.0856  1.5639
19942TIP3    H281242   0.089   3.732  16.069  0.6448  0.7022  1.9193
19943TIP3   OH281243   1.047   1.500  14.271  0.5070 -0.1994 -0.3858
19943TIP3    H181244   1.057   1.475  14.362 -0.5828  1.3602  0.1899
19943TIP3    H281245   1.105   1.442  14.223  0.8561 -1.2351  1.2721
19944TIP3   OH281246   2.522   3.248  17.051  0.7163  0.2033 -0.6058
19944TIP3    H181247   2.588   3.218  17.113 -0.0406 -0.4753 -0.1175
19944TIP3    H281248   2.557   3.329  17.016  1.4478  0.2589  0.2365
19945TIP3   OH281249   5.123   5.831   0.669 -0.6816 -0.0444  0.4541
19945TIP3    H181250   5.211   5.803   0.694 -0.3100  0.3830 -0.3611
19945TIP3    H281251   5.066   5.765   0.707 -0.3836  2.0114  4.7393
19946TIP3   OH281252   4.104   0.553   5.820  0.5767  0.0906  0.2536
19946TIP3    H181253   4.151   0.606   5.755  1.7459  1.0397  1.8516
19946TIP3    H281254   4.171   0.496   5.857  0.3056  0.7896  1.8649
19947TIP3   OH281255   6.129   5.682  11.700 -0.3177  0.1693  0.0162
19947TIP3    H181256   6.063   5.674  11.631 -0.0272 -0.6991 -0.1663
19947TIP3    H281257   6.212   5.667  11.655 -0.2136 -1.5393  0.7622
19948TIP3   OH281258   1.659   5.389   5.569  0.0833 -0.2950 -0.9992
19948TIP3    H181259   1.693   5.319   5.512  1.1014 -0.7351  0.1090
19948TIP3    H281260   1.628   5.343   5.647 -0.8719  0.3452 -0.9942
19949TIP3   OH281261   0.839   0.876  16.553  0.8688 -0.0900 -0.4182
19949TIP3    H181262   0.862   0.813  16.485  1.0875 -1.0748  0.5405
19949TIP3    H281263   0.915   0.875  16.612 -1.2054 -2.7967  2.4011
19950TIP3   OH281264   6.335   0.987  15.851  0.1546  0.6411  0.1255
19950TIP3    H181265   6.341   1.020  15.941 -2.3037 -0.7281  0.8545
19950TIP3    H281266   6.309   0.895  15.862  0.7704  0.2065 -1.9674
19951TIP3   OH281267   4.955   5.519  14.191  0.5967 -0.4744 -0.2676
19951TIP3    H181268   4.895   5.561  14.253 -0.1351 -2.4297  0.4051
19951TIP3    H281269   5.042   5.543  14.221  0.2319 -0.8889  1.1641
19952TIP3   OH281270   4.444   2.792   3.779 -0.0484  0.2115  1.0494
19952TIP3    H181271   4.532   2.822   3.798 -0.5762  1.1341  2.0974
19952TIP3    H281272   4.409   2.856   3.717 -0.1209  0.0538  0.9238
19953TIP3   OH281273   2.682   5.342   2.771 -0.0384  0.3641 -0.2463
19953TIP3    H181274   2.619   5.270   2.773 -1.2077  1.3690 -0.5319
19953TIP3    H281275   2.669   5.388   2.854  0.8425  0.1358  0.0251
19954TIP3   OH281276   2.388   2.862  15.993  0.1106 -0.6405 -0.2917
19954TIP3    H181277   2.314   2.911  16.030  0.9527  1.3443 -1.1442
19954TIP3    H281278   2.451   2.858  16.065 -0.4665 -1.5894  0.1707
19955TIP3   OH281279   1.394   0.429  15.990  0.0897 -0.3446  0.2003
19955TIP3    H181280   1.366   0.505  16.040 -1.1033 -0.9643  0.5122
19955TIP3    H281281   1.454   0.463  15.924 -2.1871  1.1883 -1.1342
19956TIP3   OH281282   2.762   1.733   3.020  0.1079 -0.1048  0.3757
19956TIP3    H181283   2.694   1.676   3.054  0.8966 -1.0412  0.3964
19956TIP3    H281284   2.715   1.794   2.963 -0.7595 -0.6536  0.4880
19957TIP3   OH281285   5.492   1.044   4.368 -0.1302 -0.2363 -0.1591
19957TIP3    H181286   5.566   1.083   4.416 -0.9933  0.1219  0.9025
19957TIP3    H281287   5.414   1.083   4.408 -0.9897 -2.3425  0.3177
19958TIP3   OH281288   0.113   6.266  13.739 -0.7194  0.6037  0.1599
19958TIP3    H181289   0.073   6.279  13.825 -1.2655 -2.0742  0.3588
19958TIP3    H281290   0.040   6.242  13.682  0.2640 -2.2585  0.0464
19959TIP3   OH281291   5.482   5.058   4.782  0.0786 -0.5397  0.0424
19959TIP3    H181292   5.476   5.054   4.686  0.4542 -1.2346  0.0422
19959TIP3    H281293   5.452   4.972   4.811 -1.7343  0.2735  0.6515
19960TIP3   OH281294   4.209   6.301   1.791  0.4727  0.5493 -0.2116
19960TIP3    H181295   4.212   6.233   1.723 -0.3733 -0.3338  0.6220
19960TIP3    H281296   4.196   6.252   1.873 -0.7105  1.7624  0.3333
19961TIP3   OH281297   0.613   2.333   0.730 -0.3966 -0.8192  0.4277
19961TIP3    H181298   0.613   2.281   0.810 -2.8504 -1.3370  0.1394
19961TIP3    H281299   0.543   2.397   0.744  0.5790  0.4515 -0.4536
19962LIG     O181300   1.639   5.176  16.776 -0.1729 -0.1928  0.1254
19962LIG     O281301   1.703   5.318  16.598  0.1080  0.7081 -0.4197
19962LIG     O381302   1.783   5.460  16.769 -0.0313 -0.7018  0.1986
19962LIG     O481303   1.470   5.045  16.523  0.4890  0.2799 -0.2675
19962LIG     O581304   1.301   5.224  16.674 -0.5255  0.0904  0.6561
19962LIG     O681305   1.968   5.283  16.498  0.5021 -0.3260 -0.4028
19962LIG     O781306   1.796   5.496  16.421 -0.0965  0.1764 -0.3206
19962LIG     O881307   1.848   5.758  16.547  0.1523 -0.8625 -0.1814
19962LIG     O981308   1.772   5.066  16.448 -0.0249 -0.2510  0.4802
19962LIG    O1081309   1.543   5.437  16.884  0.2949  0.2409 -0.4460
19962LIG    O1181310   1.687   5.811  16.772  0.0171  0.4523 -0.6290
19962LIG     C181311   1.659   5.181  16.629  0.6316 -0.4436  0.3490
19962LIG     C281312   1.520   5.182  16.560  1.2023  1.4124  0.2208
19962LIG     C381313   1.439   5.259  16.671 -0.4456  0.1847  0.5419
19962LIG     C481314   1.504   5.210  16.807  0.4518 -0.0864  0.2358
19962LIG     C581315   1.818   5.358  16.673 -0.7205 -0.3101  0.2986
19962LIG     C681316   1.935   5.391  16.584  1.1043 -0.1727  0.1056
19962LIG     C781317   1.906   5.517  16.505 -0.1120  0.4703  0.2368
19962LIG     C881318   1.874   5.628  16.609  1.2287 -0.2226  0.8920
19962LIG     C981319   1.762   5.588  16.706 -0.2082 -0.1481  0.1051
19962LIG    C1081320   1.750   5.070  16.584  0.3434 -0.6160  0.1349
19962LIG    C1181321   1.482   5.312  16.915 -0.2791  0.4758  0.3953
19962LIG    C1281322   1.757   5.690  16.818  0.5620  0.2880 -0.7807
19962LIG     H181323   1.521   5.241  16.467 -0.9025  0.5958 -0.3431
19962LIG     H281324   1.440   5.367  16.650  0.0537 -0.1795 -1.4157
19962LIG     H381325   1.455   5.116  16.835 -0.1884  0.1718 -0.0134
19962LIG     H481326   1.853   5.275  16.738 -2.7493 -1.3781  0.0452
19962LIG     H581327   2.025   5.404  16.649 -1.2347  1.2727  3.1888
19962LIG     H681328   1.990   5.556  16.443  1.7045 -1.1632  1.6309
19962LIG     H781329   1.964   5.648  16.670  2.3505  2.3965 -1.4993
19962LIG     H881330   1.668   5.584  16.647  0.3859  0.1159 -0.8862
19962LIG     H981331   1.846   5.083  16.638 -0.9153  3.6209  1.5085
19962LIG    H1081332   1.704   4.971  16.609 -1.0777  0.2850  1.2074
19962LIG    H1181333   1.375   5.321  16.945 -0.1110 -0.3728  1.2941
19962LIG    H1281334   1.533   5.286  17.010  2.9577  2.1502 -0.7971
19962LIG    H1381335   1.694   5.649  16.900 -0.1742  2.0268 -0.4442
19962LIG    H1481336   1.854   5.723  16.860  0.4779  1.0090 -1.1383
19962LIG    H1581337   1.474   5.038  16.427 -1.3771  1.2425 -0.4455
19962LIG    H1681338   1.254   5.295  16.719 -0.1279 -0.5224  2.0807
19962LIG    H1781339   2.001   5.202  16.539  2.1285  0.6753  0.3019
19962LIG    H1881340   1.811   5.408  16.385 -0.8587  0.4142 -1.2588
19962LIG    H1981341   1.800   5.808  16.613 -0.5100  0.3432 -1.5301
19962LIG    H2081342   1.810   4.982  16.420 -0.6419 -0.0121 -1.0952
19962LIG    H2181343   1.633   5.420  16.854  0.4072  2.1136 -1.2411
19962LIG    H2281344   1.682   5.866  16.850 -1.1033 -0.8203  0.2394
   6.78697   6.78697  17.23950
